 Gaussian 16, Revision A.03,

 -----------------------------------------------------------
 # opt freq B3LYP/6-31G(d) empiricaldispersion=gd3bj scf=xqc
 -----------------------------------------------------------

 -------------------------------
 CID_104474990_JID_3796_neutraal
 -------------------------------
 Symbolic Z-matrix:
 Charge =  0 Multiplicity = 1

 SCF Done:  E(RB3LYP) =  -577.855888247     A.U. after   14 cycles
 SCF Done:  E(RB3LYP) =  -577.860257869     A.U. after   11 cycles
 SCF Done:  E(RB3LYP) =  -577.860474960     A.U. after   11 cycles
 SCF Done:  E(RB3LYP) =  -577.861520735     A.U. after   11 cycles
 SCF Done:  E(RB3LYP) =  -577.861491166     A.U. after   11 cycles
 SCF Done:  E(RB3LYP) =  -577.861908933     A.U. after   11 cycles
 SCF Done:  E(RB3LYP) =  -577.861957977     A.U. after   10 cycles
 SCF Done:  E(RB3LYP) =  -577.862000388     A.U. after   10 cycles
 SCF Done:  E(RB3LYP) =  -577.862026287     A.U. after    9 cycles
 SCF Done:  E(RB3LYP) =  -577.862052281     A.U. after   10 cycles
 SCF Done:  E(RB3LYP) =  -577.862130258     A.U. after   11 cycles
 SCF Done:  E(RB3LYP) =  -577.862135659     A.U. after    9 cycles
 SCF Done:  E(RB3LYP) =  -577.862137960     A.U. after    9 cycles
 SCF Done:  E(RB3LYP) =  -577.862138267     A.U. after    7 cycles
 SCF Done:  E(RB3LYP) =  -577.862138290     A.U. after    6 cycles
 Optimization completed.
    -- Stationary point found.
 Normal termination of Gaussian 16 at Mon Dec 14 16:39:27 2020.

 --------------------------------------------------------------------
 #N Geom=AllCheck Guess=TCheck SCRF=Check GenChk RB3LYP/6-31G(d) Freq
 --------------------------------------------------------------------

 Structure from the checkpoint file:  "JID_3796.chk"
 -------------------------------
 CID_104474990_JID_3796_neutraal
 -------------------------------
 Charge =  0 Multiplicity = 1

 SCF Done:  E(RB3LYP) =  -577.862138290     A.U. after    1 cycles

  Exact polarizability: 147.010   2.897 110.339   2.349   0.530 101.189
 Approx polarizability: 175.848   9.069 168.921   7.880   6.427 149.274

                      1                      2                      3
                      A                      A                      A
 Frequencies --     31.6840                39.2670                45.1646
 Red. masses --      4.0419                 3.3413                 3.5310
 Frc consts  --      0.0024                 0.0030                 0.0042
 IR Inten    --      0.0465                 0.3557                 0.4926

                      4                      5                      6
                      A                      A                      A
 Frequencies --     54.5711                99.3480               115.1881
 Red. masses --      4.0028                 3.2665                 2.9417
 Frc consts  --      0.0070                 0.0190                 0.0230
 IR Inten    --      0.8089                 0.2559                 1.5569

                      7                      8                      9
                      A                      A                      A
 Frequencies --    170.6802               195.9731               229.3271
 Red. masses --      3.6516                 3.7592                 1.3916
 Frc consts  --      0.0627                 0.0851                 0.0431
 IR Inten    --      0.2926                 4.3188                 0.6829

                     10                     11                     12
                      A                      A                      A
 Frequencies --    256.2524               283.0216               286.2159
 Red. masses --      2.0716                 1.2013                 2.2019
 Frc consts  --      0.0801                 0.0567                 0.1063
 IR Inten    --      4.5803                 0.5699                 5.3651

                     13                     14                     15
                      A                      A                      A
 Frequencies --    313.2688               326.6574               335.5768
 Red. masses --      2.5267                 1.2342                 1.8967
 Frc consts  --      0.1461                 0.0776                 0.1258
 IR Inten    --      5.0592                50.2406                 1.5384

                     16                     17                     18
                      A                      A                      A
 Frequencies --    391.0143               395.3823               435.8445
 Red. masses --      2.0999                 2.1323                 3.2962
 Frc consts  --      0.1892                 0.1964                 0.3689
 IR Inten    --      0.6135                 4.4053                 7.2545

                     19                     20                     21
                      A                      A                      A
 Frequencies --    485.3604               520.3752               535.2851
 Red. masses --      2.8759                 2.8013                 3.1102
 Frc consts  --      0.3992                 0.4469                 0.5251
 IR Inten    --      3.8358                 6.6955                 7.9223

                     22                     23                     24
                      A                      A                      A
 Frequencies --    609.7240               660.3093               699.4581
 Red. masses --      2.3899                 2.1480                 1.8343
 Frc consts  --      0.5235                 0.5518                 0.5287
 IR Inten    --     48.9738                27.5958                28.8348

                     25                     26                     27
                      A                      A                      A
 Frequencies --    759.0062               781.6670               794.7842
 Red. masses --      2.2030                 2.6606                 1.3031
 Frc consts  --      0.7478                 0.9578                 0.4850
 IR Inten    --     14.0728                19.1894                 7.1238

                     28                     29                     30
                      A                      A                      A
 Frequencies --    823.0026               840.4994               893.8668
 Red. masses --      2.0302                 1.2560                 1.7856
 Frc consts  --      0.8102                 0.5228                 0.8406
 IR Inten    --      7.6803                 5.1398                 7.2479

                     31                     32                     33
                      A                      A                      A
 Frequencies --    908.4870               918.0148               946.2507
 Red. masses --      2.2717                 1.8501                 1.2527
 Frc consts  --      1.1047                 0.9186                 0.6608
 IR Inten    --      4.8085                93.2500                91.4009

                     34                     35                     36
                      A                      A                      A
 Frequencies --    950.3992              1002.6024              1014.7533
 Red. masses --      2.9375                 1.7301                 1.7667
 Frc consts  --      1.5633                 1.0247                 1.0718
 IR Inten    --      1.0418                 1.3993                10.2333

                     37                     38                     39
                      A                      A                      A
 Frequencies --   1031.7156              1048.1930              1065.5745
 Red. masses --      1.4204                 1.6531                 1.4466
 Frc consts  --      0.8908                 1.0701                 0.9678
 IR Inten    --     11.2681                32.1713                 1.4926

                     40                     41                     42
                      A                      A                      A
 Frequencies --   1085.0341              1104.9225              1118.8537
 Red. masses --      1.3876                 1.8228                 2.0950
 Frc consts  --      0.9625                 1.3112                 1.5452
 IR Inten    --      2.0917                 7.5139                 6.1558

                     43                     44                     45
                      A                      A                      A
 Frequencies --   1135.5761              1154.6937              1159.4721
 Red. masses --      2.2729                 1.1241                 2.7955
 Frc consts  --      1.7269                 0.8831                 2.2143
 IR Inten    --      9.9704                 0.5140                12.8509

                     46                     47                     48
                      A                      A                      A
 Frequencies --   1173.7371              1192.8163              1213.3536
 Red. masses --      1.6809                 1.8424                 1.4095
 Frc consts  --      1.3643                 1.5445                 1.2226
 IR Inten    --      3.9514                13.4888                 1.0727

                     49                     50                     51
                      A                      A                      A
 Frequencies --   1235.8022              1261.5881              1274.4262
 Red. masses --      1.7339                 1.5373                 1.3694
 Frc consts  --      1.5601                 1.4416                 1.3104
 IR Inten    --      2.2680                24.7300                 1.0252

                     52                     53                     54
                      A                      A                      A
 Frequencies --   1300.0767              1313.6134              1368.8483
 Red. masses --      1.3606                 1.4378                 1.3496
 Frc consts  --      1.3550                 1.4618                 1.4900
 IR Inten    --     22.3360                 5.5529                51.2726

                     55                     56                     57
                      A                      A                      A
 Frequencies --   1378.9018              1388.4808              1398.4771
 Red. masses --      1.5964                 1.3414                 1.3062
 Frc consts  --      1.7884                 1.5237                 1.5051
 IR Inten    --     63.1654                35.5682                48.4352

                     58                     59                     60
                      A                      A                      A
 Frequencies --   1420.8620              1429.1577              1437.4525
 Red. masses --      1.3551                 1.4229                 1.3183
 Frc consts  --      1.6119                 1.7123                 1.6049
 IR Inten    --     13.8071                 5.1808                11.1203

                     61                     62                     63
                      A                      A                      A
 Frequencies --   1442.5269              1450.8341              1495.6467
 Red. masses --      1.5594                 1.3332                 1.0971
 Frc consts  --      1.9119                 1.6534                 1.4459
 IR Inten    --      0.2403                12.1072                 2.3000

                     64                     65                     66
                      A                      A                      A
 Frequencies --   1505.4867              1508.3061              1518.8561
 Red. masses --      1.1625                 1.4752                 1.1617
 Frc consts  --      1.5524                 1.9773                 1.5790
 IR Inten    --      6.0798                36.0313                23.1982

                     67                     68                     69
                      A                      A                      A
 Frequencies --   1526.1209              1530.8539              1535.8654
 Red. masses --      1.0941                 1.0970                 1.0530
 Frc consts  --      1.5014                 1.5148                 1.4635
 IR Inten    --      4.7863                30.4725                 9.1978

                     70                     71                     72
                      A                      A                      A
 Frequencies --   1538.0596              1550.3338              1689.1535
 Red. masses --      1.3607                 1.0598                 1.2328
 Frc consts  --      1.8966                 1.5008                 2.0725
 IR Inten    --      1.1534                10.1746               166.9535

                     73                     74                     75
                      A                      A                      A
 Frequencies --   1745.0013              3013.1873              3036.6938
 Red. masses --      3.6998                 1.0846                 1.0616
 Frc consts  --      6.6377                 5.8017                 5.7680
 IR Inten    --    228.2675                39.4623                26.7997

                     76                     77                     78
                      A                      A                      A
 Frequencies --   3038.2630              3050.2557              3061.5987
 Red. masses --      1.0365                 1.0756                 1.0372
 Frc consts  --      5.6371                 5.8962                 5.7279
 IR Inten    --     16.9036                16.0301                24.2436

                     79                     80                     81
                      A                      A                      A
 Frequencies --   3077.1314              3083.9549              3100.2815
 Red. masses --      1.0845                 1.0987                 1.1005
 Frc consts  --      6.0503                 6.1569                 6.2323
 IR Inten    --      2.0765                47.2590                48.2550

                     82                     83                     84
                      A                      A                      A
 Frequencies --   3115.6769              3121.8779              3135.7605
 Red. masses --      1.1026                 1.1008                 1.1020
 Frc consts  --      6.3064                 6.3208                 6.3841
 IR Inten    --     33.6631                40.5444                24.5937

                     85                     86                     87
                      A                      A                      A
 Frequencies --   3141.3251              3146.9056              3156.3176
 Red. masses --      1.0518                 1.0578                 1.0893
 Frc consts  --      6.1149                 6.1720                 6.3937
 IR Inten    --     20.8336                17.2779                11.9616

                     88                     89                     90
                      A                      A                      A
 Frequencies --   3188.2627              3216.3485              3230.9067
 Red. masses --      1.0881                 1.1189                 1.1158
 Frc consts  --      6.5165                 6.8200                 6.8625
 IR Inten    --     18.4881                 0.6618                25.4784

                     91                     92                     93
                      A                      A                      A
 Frequencies --   3453.6388              3544.3230              3579.1267
 Red. masses --      1.0495                 1.0930                 1.0749
 Frc consts  --      7.3754                 8.0895                 8.1130
 IR Inten    --     24.3816                 6.4765                14.8075

 - Thermochemistry -
 -------------------
 Temperature   298.150 Kelvin.  Pressure   1.00000 Atm.
 Atom     1 has atomic number  6 and mass  12.00000

 Molecular mass:   184.15756 amu.
 Principal axes and moments of inertia in atomic units:
                           1         2         3
     Eigenvalues --  1051.504545256.385895475.12409
           X            0.99996  -0.00717  -0.00500
           Y            0.00681   0.99771  -0.06732
           Z            0.00547   0.06728   0.99772
 This molecule is an asymmetric top.
 Rotational symmetry number  1.
 Warning -- assumption of classical behavior for rotation
           may cause significant error
 Rotational temperatures (Kelvin)      0.08237     0.01648     0.01582
 Rotational constants (GHZ):           1.71634     0.34334     0.32963
 Zero-point vibrational energy     785759.9 (Joules/Mol)
                                  187.80112 (Kcal/Mol)
 Warning -- explicit consideration of  22 degrees of freedom as
           vibrations may cause significant error
 Vibrational temperatures:     45.59    56.50    64.98    78.52   142.94
          (Kelvin)            165.73   245.57   281.96   329.95   368.69
                              407.20   411.80   450.72   469.99   482.82
                              562.58   568.87   627.08   698.33   748.70
                              770.16   877.26   950.04  1006.36  1092.04
                             1124.64  1143.52  1184.12  1209.29  1286.07
                             1307.11  1320.82  1361.44  1367.41  1442.52
                             1460.00  1484.41  1508.12  1533.12  1561.12
                             1589.74  1609.78  1633.84  1661.35  1668.22
                             1688.75  1716.20  1745.75  1778.04  1815.14
                             1833.62  1870.52  1890.00  1969.47  1983.93
                             1997.71  2012.10  2044.30  2056.24  2068.17
                             2075.47  2087.43  2151.90  2166.06  2170.12
                             2185.30  2195.75  2202.56  2209.77  2212.92
                             2230.58  2430.32  2510.67  4335.30  4369.13
                             4371.38  4388.64  4404.96  4427.31  4437.12
                             4460.61  4482.76  4491.69  4511.66  4519.67
                             4527.70  4541.24  4587.20  4627.61  4648.55
                             4969.02  5099.49  5149.56

 Zero-point correction=                           0.299280 (Hartree/Particle)
 Thermal correction to Energy=                    0.314286
 Thermal correction to Enthalpy=                  0.315230
 Thermal correction to Gibbs Free Energy=         0.256102
 Sum of electronic and zero-point Energies=           -577.562858
 Sum of electronic and thermal Energies=              -577.547853
 Sum of electronic and thermal Enthalpies=            -577.546908
 Sum of electronic and thermal Free Energies=         -577.606037

                     E (Thermal)             CV                S
                      KCal/Mol        Cal/Mol-Kelvin    Cal/Mol-Kelvin
 Total                  197.217             56.008            124.446
 Electronic               0.000              0.000              0.000
 Translational            0.889              2.981             41.538
 Rotational               0.889              2.981             31.782
 Vibrational            195.440             50.046             51.126
 Vibration     1          0.594              1.983              5.721
 Vibration     2          0.594              1.981              5.296
 Vibration     3          0.595              1.979              5.019
 Vibration     4          0.596              1.976              4.644
 Vibration     5          0.604              1.950              3.467
 Vibration     6          0.608              1.937              3.180
 Vibration     7          0.626              1.879              2.428
 Vibration     8          0.636              1.845              2.171
 Vibration     9          0.652              1.796              1.884
 Vibration    10          0.666              1.752              1.687
 Vibration    11          0.682              1.705              1.515
 Vibration    12          0.684              1.699              1.496
 Vibration    13          0.701              1.648              1.345
 Vibration    14          0.710              1.622              1.277
 Vibration    15          0.717              1.604              1.233
 Vibration    16          0.759              1.489              0.996
 Vibration    17          0.762              1.480              0.980
 Vibration    18          0.796              1.392              0.840
 Vibration    19          0.841              1.283              0.696
 Vibration    20          0.875              1.205              0.609
 Vibration    21          0.890              1.172              0.576
 Vibration    22          0.969              1.011              0.433

 Optimization completed.
    -- Stationary point found.
 Normal termination of Gaussian 16 at Mon Dec 14 16:48:49 2020.

 ----------------------------------------------------------------------
 # B3LYP/6-311++G(d,p) empiricaldispersion=gd3bj scf=xqc pop=npa geom=c
 heck
 ----------------------------------------------------------------------

 ---------------------------------------
 CID_104474990_JID_3796_Energie_neutraal
 ---------------------------------------
 Structure from the checkpoint file:  "JID_3796.chk"
 Charge =  0 Multiplicity = 1

 SCF Done:  E(RB3LYP) =  -578.038663703     A.U. after   13 cycles
 Normal termination of Gaussian 16 at Mon Dec 14 16:53:03 2020.

 ----------------------------------------------------------------------
 # B3LYP/6-311++G(d,p) empiricaldispersion=gd3bj scf=xqc pop=npa geom=c
 heck
 ----------------------------------------------------------------------

 -------------------------------------
 CID_104474990_JID_3796_Energie_kation
 -------------------------------------
 Structure from the checkpoint file:  "JID_3796.chk"
 Charge =  1 Multiplicity = 2

 SCF Done:  E(UB3LYP) =  -577.729694298     A.U. after   26 cycles
 Normal termination of Gaussian 16 at Mon Dec 14 17:04:51 2020.
 Gaussian 16:  ES64L-G16RevA.03 25-Dec-2016

 ----------------------------------------------------------------------
 # B3LYP/6-311++G(d,p) empiricaldispersion=gd3bj scf=xqc pop=npa geom=c
 heck
 ----------------------------------------------------------------------

 ------------------------------------
 CID_104474990_JID_3796_Energie_anion
 ------------------------------------
 Structure from the checkpoint file:  "JID_3796.chk"
 Charge = -1 Multiplicity = 2

                         Standard orientation:
 ---------------------------------------------------------------------
 Center     Atomic      Atomic             Coordinates (Angstroms)
 Number     Number       Type             X           Y           Z
 ---------------------------------------------------------------------
      1          6           0        1.210179   -1.734708    1.085565
      2          6           0        1.852447   -0.367694    0.818063
      3          6           0        3.031668   -0.460272   -0.192686
      4          6           0        2.562477   -0.516510   -1.656126
      5          7           0        3.973869    0.626773    0.090422
      6          6           0        0.962527    0.829903    0.461819
      7          8           0        1.386731    1.963640    0.701973
      8          7           0       -0.271180    0.704909   -0.117712
      9          6           0       -0.967701   -0.411314   -0.745737
     10          6           0       -2.182531   -0.899970    0.054247
     11          6           0       -3.195459    0.195946    0.311205
     12          6           0       -4.139970    0.619821   -0.790038
     13          6           0       -4.663387   -0.126280    0.414171
     14          1           0        0.999230   -2.302054    0.174388
     15          1           0        0.280187   -1.644910    1.654888
     16          1           0        1.903946   -2.338139    1.680399
     17          1           0        2.314001   -0.038469    1.754843
     18          1           0        3.545955   -1.406833    0.028836
     19          1           0        2.048186    0.408946   -1.939660
     20          1           0        3.424028   -0.638991   -2.322955
     21          1           0        1.885633   -1.359504   -1.844290
     22          1           0        4.620586    0.737518   -0.689062
     23          1           0        3.448760    1.497405    0.178021
     24          1           0       -0.686883    1.618110   -0.261244
     25          1           0       -1.305064   -0.073905   -1.733952
     26          1           0       -0.266482   -1.224421   -0.918705
     27          1           0       -2.657445   -1.714787   -0.509690
     28          1           0       -1.847107   -1.326410    1.007675
     29          1           0       -2.838151    0.989274    0.964936
     30          1           0       -4.384832    1.673172   -0.892403
     31          1           0       -4.090020    0.082970   -1.734561
     32          1           0       -4.965112   -1.161750    0.277565
     33          1           0       -5.263587    0.418352    1.137309
 ---------------------------------------------------------------------

 SCF Done:  E(UB3LYP) =  -578.026163118     A.U. after   33 cycles
 SCF Done:  E(UB3LYP) =  -578.026163118     a.u. after    1 cycles

 The electronic state is 2-A.
 Alpha  occ. eigenvalues --  -18.99045 -14.24238 -14.19008 -10.17907 -10.11233
 Alpha  occ. eigenvalues --  -10.10934 -10.09075 -10.08670 -10.07940 -10.07760
 Alpha  occ. eigenvalues --  -10.07758 -10.07284 -10.06304  -0.94360  -0.82679
 Alpha  occ. eigenvalues --   -0.79297  -0.76943  -0.69320  -0.66543  -0.62511
 Alpha  occ. eigenvalues --   -0.57036  -0.55819  -0.51946  -0.50952  -0.48329
 Alpha  occ. eigenvalues --   -0.45882  -0.41114  -0.40120  -0.39915  -0.37941
 Alpha  occ. eigenvalues --   -0.37246  -0.36372  -0.33959  -0.33544  -0.33204
 Alpha  occ. eigenvalues --   -0.32192  -0.30919  -0.29832  -0.29165  -0.28482
 Alpha  occ. eigenvalues --   -0.27458  -0.27368  -0.26001  -0.25663  -0.24623
 Alpha  occ. eigenvalues --   -0.23063  -0.20332  -0.19752  -0.16593  -0.15733
 Alpha  occ. eigenvalues --   -0.14379   0.04266
 Alpha virt. eigenvalues --    0.06171   0.06998   0.07164   0.07924   0.08873
 Alpha virt. eigenvalues --    0.08946   0.09637   0.09990   0.10587   0.10724
 Alpha virt. eigenvalues --    0.11276   0.11512   0.12080   0.12821   0.13651

  Beta  occ. eigenvalues --  -18.99031 -14.24238 -14.19001 -10.17897 -10.11207
  Beta  occ. eigenvalues --  -10.10925 -10.09072 -10.08666 -10.07922 -10.07734
  Beta  occ. eigenvalues --  -10.07728 -10.07253 -10.06267  -0.94337  -0.82664
  Beta  occ. eigenvalues --   -0.79279  -0.76922  -0.69295  -0.66503  -0.62460
  Beta  occ. eigenvalues --   -0.56978  -0.55763  -0.51907  -0.50875  -0.48280
  Beta  occ. eigenvalues --   -0.45841  -0.41067  -0.40088  -0.39888  -0.37898
  Beta  occ. eigenvalues --   -0.37209  -0.36331  -0.33916  -0.33508  -0.33169
  Beta  occ. eigenvalues --   -0.32153  -0.30881  -0.29795  -0.29121  -0.28437
  Beta  occ. eigenvalues --   -0.27424  -0.27333  -0.25963  -0.25628  -0.24592
  Beta  occ. eigenvalues --   -0.23037  -0.20302  -0.19723  -0.16578  -0.15699
  Beta  occ. eigenvalues --   -0.14359
  Beta virt. eigenvalues --    0.06500   0.06959   0.07523   0.08022   0.08249
  Beta virt. eigenvalues --    0.09154   0.09425   0.09812   0.10502   0.10987
  Beta virt. eigenvalues --    0.11068   0.11640   0.11851   0.12506   0.13127

 Mulliken charges and spin densities:
               1          2
     1  C    0.906009  -1.688925
     2  C   -0.528968   0.954264
     3  C   -0.485917   0.152156
     4  C    0.381977  -1.047623
     5  N   -0.235443  -0.042195
     6  C    0.215168  -0.300158
     7  O   -0.335905   0.010352
     8  N   -0.279416   0.110074
     9  C   -0.755307   0.534572
    10  C    2.621466  -3.211016
    11  C   -2.904680   3.283478
    12  C    1.212517  -1.736115
    13  C    0.808909  -1.206718
    14  H   -0.345016   0.511964
    15  H    0.057093   0.077973
    16  H   -0.023756   0.175842
    17  H    0.183084   0.091162
    18  H   -0.019712   0.224165
    19  H    0.142736   0.048123
    20  H   -0.597083   0.742718
    21  H   -0.395674   0.542266
    22  H    0.146361   0.051181
    23  H    0.213493   0.026369
    24  H    0.261190   0.063721
    25  H   -0.370188   0.572152
    26  H    0.642020  -0.553757
    27  H   -0.814999   0.995233
    28  H    0.058176   0.056207
    29  H   -0.139919   0.368916
    30  H   -0.159181   0.304672
    31  H   -0.245926   0.402403
    32  H   -0.065904   0.200176
    33  H   -0.147205   0.286369
 Sum of Mulliken charges =  -1.00000   1.00000

 Dipole moment (field-independent basis, Debye):
    X=              1.3670    Y=              2.2417    Z=              3.0070  Tot=              3.9920
 Quadrupole moment (field-independent basis, Debye-Ang):
   XX=           -167.6022   YY=           -127.8839   ZZ=           -121.6189
   XY=             -0.2972   XZ=             -6.2829   YZ=             -9.1629

 Summary of Natural Population Analysis:

                                       Natural Population
                Natural  -----------------------------------------------
    Atom  No    Charge         Core      Valence    Rydberg      Total
 -----------------------------------------------------------------------
      C    1   -0.28710      0.99965     2.28130    0.00615     3.28710
      C    2   -0.15365      0.99953     2.14324    0.01088     3.15365
      C    3   -0.00833      0.99960     1.99500    0.01373     3.00833
      C    4   -0.29779      0.99964     2.29118    0.00696     3.29779
      N    5   -0.42686      0.99977     2.91796    0.00912     3.92686
      C    6    0.35130      0.99963     1.62569    0.02338     2.64870
      O    7   -0.34030      0.99988     3.33490    0.00552     4.34030
      N    8   -0.31657      0.99966     2.80721    0.00970     3.81657
      C    9   -0.08872      0.99960     2.07731    0.01181     3.08872
      C   10   -0.19188      0.99960     2.18239    0.00988     3.19188
      C   11   -0.11916      0.99959     2.10939    0.01019     3.11916
      C   12   -0.20071      0.99962     2.19156    0.00954     3.20071
      C   13   -0.19423      0.99962     2.18786    0.00675     3.19423
      H   14    0.10055      0.00000     0.39773    0.00172     0.39945
      H   15    0.10141      0.00000     0.39738    0.00122     0.39859
      H   16    0.10274      0.00000     0.39630    0.00095     0.39726
      H   17    0.11607      0.00000     0.38205    0.00188     0.38393
      H   18    0.08786      0.00000     0.41020    0.00194     0.41214
      H   19    0.09869      0.00000     0.39991    0.00140     0.40131
      H   20    0.09990      0.00000     0.39872    0.00138     0.40010
      H   21    0.10208      0.00000     0.39614    0.00178     0.39792
      H   22    0.17003      0.00000     0.32833    0.00164     0.32997
      H   23    0.18736      0.00000     0.31058    0.00206     0.31264
      H   24    0.19317      0.00000     0.30412    0.00271     0.30683
      H   25    0.09770      0.00000     0.40042    0.00188     0.40230
      H   26    0.10444      0.00000     0.39343    0.00213     0.39556
      H   27    0.10338      0.00000     0.39428    0.00233     0.39662
      H   28    0.09780      0.00000     0.40078    0.00142     0.40220
      H   29    0.10224      0.00000     0.39632    0.00144     0.39776
      H   30    0.10216      0.00000     0.39670    0.00114     0.39784
      H   31    0.10445      0.00000     0.39388    0.00167     0.39555
      H   32    0.10188      0.00000     0.39684    0.00128     0.39812
      H   33    0.10006      0.00000     0.39885    0.00109     0.39994
 =======================================================================
   * Total *   -0.00000     12.99537    37.83795    0.16668    51.00000

 Normal termination of Gaussian 16 at Mon Dec 14 17:20:02 2020.
