 Gaussian 16, Revision A.03,

 -----------------------------------------------------------
 # opt freq B3LYP/6-31G(d) empiricaldispersion=gd3bj scf=xqc
 -----------------------------------------------------------

 ------------------------------
 CID_63193737_JID_9767_neutraal
 ------------------------------
 Symbolic Z-matrix:
 Charge =  0 Multiplicity = 1

 SCF Done:  E(RB3LYP) =  -823.807485614     A.U. after   15 cycles
 SCF Done:  E(RB3LYP) =  -823.813499691     A.U. after   13 cycles
 SCF Done:  E(RB3LYP) =  -823.811147980     A.U. after   13 cycles
 SCF Done:  E(RB3LYP) =  -823.815201588     A.U. after   13 cycles
 SCF Done:  E(RB3LYP) =  -823.817238593     A.U. after   12 cycles
 SCF Done:  E(RB3LYP) =  -823.818005461     A.U. after   12 cycles
 SCF Done:  E(RB3LYP) =  -823.818945112     A.U. after   12 cycles
 SCF Done:  E(RB3LYP) =  -823.820739330     A.U. after   14 cycles
 SCF Done:  E(RB3LYP) =  -823.820536024     A.U. after   14 cycles
 SCF Done:  E(RB3LYP) =  -823.822079682     A.U. after   13 cycles
 SCF Done:  E(RB3LYP) =  -823.825339503     A.U. after   10 cycles
 SCF Done:  E(RB3LYP) =  -823.825342725     A.U. after    9 cycles
 SCF Done:  E(RB3LYP) =  -823.825343746     A.U. after    8 cycles
 SCF Done:  E(RB3LYP) =  -823.825343993     A.U. after    7 cycles
 SCF Done:  E(RB3LYP) =  -823.825344117     A.U. after    7 cycles
 Optimization completed.
    -- Stationary point found.
 Normal termination of Gaussian 16 at Sun Dec 13 16:42:57 2020.

 --------------------------------------------------------------------
 #N Geom=AllCheck Guess=TCheck SCRF=Check GenChk RB3LYP/6-31G(d) Freq
 --------------------------------------------------------------------

 Structure from the checkpoint file:  "JID_9767.chk"
 ------------------------------
 CID_63193737_JID_9767_neutraal
 ------------------------------
 Charge =  0 Multiplicity = 1

 SCF Done:  E(RB3LYP) =  -823.825344117     A.U. after    1 cycles

  Exact polarizability: 166.672 -28.700 177.236   8.012  12.952 161.868
 Approx polarizability: 224.339 -60.454 293.487  14.672  40.335 288.736

                      1                      2                      3
                      A                      A                      A
 Frequencies --     26.5774                42.8610                59.7704
 Red. masses --      4.7764                 3.9720                 5.4422
 Frc consts  --      0.0020                 0.0043                 0.0115
 IR Inten    --      0.5912                 1.2292                 0.6090

                      4                      5                      6
                      A                      A                      A
 Frequencies --     78.9278                91.5797               111.2016
 Red. masses --      6.6240                 3.9380                 3.6681
 Frc consts  --      0.0243                 0.0195                 0.0267
 IR Inten    --      2.9059                 0.1827                 1.8808

                      7                      8                      9
                      A                      A                      A
 Frequencies --    152.5936               167.3137               203.1909
 Red. masses --      4.7503                 3.0010                 1.5722
 Frc consts  --      0.0652                 0.0495                 0.0382
 IR Inten    --      0.5058                 1.4283                 1.7784

                     10                     11                     12
                      A                      A                      A
 Frequencies --    219.3494               230.6920               250.3678
 Red. masses --      1.6126                 3.3576                 3.3475
 Frc consts  --      0.0457                 0.1053                 0.1236
 IR Inten    --      2.4941                10.2544                 0.4270

                     13                     14                     15
                      A                      A                      A
 Frequencies --    251.8146               279.2923               292.4165
 Red. masses --      2.7392                 1.1714                 2.3604
 Frc consts  --      0.1023                 0.0538                 0.1189
 IR Inten    --      0.4921                 2.4445                 7.8723

                     16                     17                     18
                      A                      A                      A
 Frequencies --    311.6393               328.0431               357.7347
 Red. masses --      1.1931                 2.7045                 1.9709
 Frc consts  --      0.0683                 0.1715                 0.1486
 IR Inten    --     52.0032                 2.0894                40.4368

                     19                     20                     21
                      A                      A                      A
 Frequencies --    371.9097               374.2619               398.7076
 Red. masses --      2.8836                 2.1968                 2.5750
 Frc consts  --      0.2350                 0.1813                 0.2412
 IR Inten    --      1.3623                17.8626                 7.5667

                     22                     23                     24
                      A                      A                      A
 Frequencies --    436.4086               444.2427               469.8737
 Red. masses --      2.6484                 2.5779                 3.1321
 Frc consts  --      0.2972                 0.2998                 0.4074
 IR Inten    --      1.3315                36.4670                 3.0404

                     25                     26                     27
                      A                      A                      A
 Frequencies --    521.6986               544.7336               554.3842
 Red. masses --      2.3791                 4.2537                 3.2619
 Frc consts  --      0.3815                 0.7437                 0.5907
 IR Inten    --     13.7304                 4.7535                22.0539

                     28                     29                     30
                      A                      A                      A
 Frequencies --    567.9113               578.0665               588.9290
 Red. masses --      2.4225                 4.5064                 3.2118
 Frc consts  --      0.4603                 0.8872                 0.6563
 IR Inten    --      5.4065                 2.6647                 4.0891

                     31                     32                     33
                      A                      A                      A
 Frequencies --    616.3067               656.4630               700.9093
 Red. masses --      1.9166                 2.5962                 2.9456
 Frc consts  --      0.4289                 0.6592                 0.8526
 IR Inten    --     24.2782                 9.8678                15.4881

                     34                     35                     36
                      A                      A                      A
 Frequencies --    715.3014               744.3867               755.6459
 Red. masses --      4.4102                 3.0392                 1.3061
 Frc consts  --      1.3295                 0.9922                 0.4394
 IR Inten    --     12.5009                 4.1506                63.4488

                     37                     38                     39
                      A                      A                      A
 Frequencies --    779.7685               787.8173               806.8901
 Red. masses --      3.5291                 4.0804                 1.5855
 Frc consts  --      1.2643                 1.4921                 0.6082
 IR Inten    --      8.0912                 4.4890                 8.3668

                     40                     41                     42
                      A                      A                      A
 Frequencies --    824.5573               857.6672               892.4654
 Red. masses --      2.5237                 1.5071                 4.9465
 Frc consts  --      1.0110                 0.6532                 2.3213
 IR Inten    --      4.4177                 0.7382                 0.1088

                     43                     44                     45
                      A                      A                      A
 Frequencies --    900.7107               921.6351               942.1576
 Red. masses --      1.5529                 1.3406                 1.5038
 Frc consts  --      0.7423                 0.6709                 0.7865
 IR Inten    --     28.7365                 2.6794                61.9285

                     46                     47                     48
                      A                      A                      A
 Frequencies --    948.4453               957.7249               964.3306
 Red. masses --      1.8926                 2.1627                 1.2462
 Frc consts  --      1.0031                 1.1687                 0.6828
 IR Inten    --      7.9265                 9.4538                 0.1413

                     49                     50                     51
                      A                      A                      A
 Frequencies --    966.9174              1000.9973              1020.9736
 Red. masses --      1.8370                 1.6747                 1.9116
 Frc consts  --      1.0119                 0.9886                 1.1740
 IR Inten    --      0.2857                10.6400                10.4890

                     52                     53                     54
                      A                      A                      A
 Frequencies --   1043.4333              1048.8751              1068.1060
 Red. masses --      2.1224                 2.3651                 1.5691
 Frc consts  --      1.3615                 1.5330                 1.0547
 IR Inten    --      4.7141                 2.5654                14.9343

                     55                     56                     57
                      A                      A                      A
 Frequencies --   1090.9506              1108.1462              1115.3443
 Red. masses --      2.7777                 1.8987                 1.6226
 Frc consts  --      1.9478                 1.3737                 1.1893
 IR Inten    --     15.1707                12.2530                25.3887

                     58                     59                     60
                      A                      A                      A
 Frequencies --   1154.5829              1162.6477              1182.1224
 Red. masses --      1.4585                 1.4099                 1.1708
 Frc consts  --      1.1455                 1.1229                 0.9639
 IR Inten    --      2.5832                 8.5176                 5.0518

                     61                     62                     63
                      A                      A                      A
 Frequencies --   1199.7955              1227.9944              1237.5114
 Red. masses --      1.2569                 2.5498                 1.4113
 Frc consts  --      1.0660                 2.2655                 1.2734
 IR Inten    --      9.1884                10.3368                 4.0514

                     64                     65                     66
                      A                      A                      A
 Frequencies --   1257.5040              1261.4906              1285.1163
 Red. masses --      2.1730                 2.2982                 2.0862
 Frc consts  --      2.0245                 2.1548                 2.0299
 IR Inten    --     11.2880                 3.8799                41.7996

                     67                     68                     69
                      A                      A                      A
 Frequencies --   1288.4564              1329.8731              1333.4847
 Red. masses --      1.6642                 1.6581                 2.2740
 Frc consts  --      1.6278                 1.7278                 2.3824
 IR Inten    --     10.3290                49.9773                 6.7712

                     70                     71                     72
                      A                      A                      A
 Frequencies --   1352.6485              1377.6556              1390.4202
 Red. masses --      1.3041                 1.7885                 2.1253
 Frc consts  --      1.4058                 2.0000                 2.4208
 IR Inten    --     14.0520                 1.1076                30.4226

                     73                     74                     75
                      A                      A                      A
 Frequencies --   1400.1987              1422.0902              1432.8317
 Red. masses --      3.3412                 1.2581                 1.4879
 Frc consts  --      3.8595                 1.4991                 1.7998
 IR Inten    --     13.2436                 5.8752                43.1126

                     76                     77                     78
                      A                      A                      A
 Frequencies --   1440.9362              1455.2581              1466.2794
 Red. masses --      1.8220                 1.3683                 2.5697
 Frc consts  --      2.2289                 1.7073                 3.2551
 IR Inten    --     63.6669                35.8123                24.4032

                     79                     80                     81
                      A                      A                      A
 Frequencies --   1486.3666              1498.6084              1502.1424
 Red. masses --      1.5232                 2.3929                 1.1629
 Frc consts  --      1.9827                 3.1662                 1.5460
 IR Inten    --     26.7445                23.4907                 2.0304

                     82                     83                     84
                      A                      A                      A
 Frequencies --   1513.5054              1515.5211              1523.3185
 Red. masses --      1.1047                 1.0729                 1.0628
 Frc consts  --      1.4910                 1.4518                 1.4530
 IR Inten    --     16.3134                 4.5342                 2.1814

                     85                     86                     87
                      A                      A                      A
 Frequencies --   1532.0918              1540.4584              1545.1408
 Red. masses --      1.0804                 2.8799                 1.0593
 Frc consts  --      1.4941                 4.0266                 1.4900
 IR Inten    --      0.4331                 2.5520                 5.6177

                     88                     89                     90
                      A                      A                      A
 Frequencies --   1550.5158              1607.8686              1633.6038
 Red. masses --      1.0824                 5.6926                 5.6627
 Frc consts  --      1.5332                 8.6709                 8.9036
 IR Inten    --      4.1556                 4.3940                 0.6952

                     91                     92                     93
                      A                      A                      A
 Frequencies --   1679.5429              1693.4199              1759.5726
 Red. masses --      5.6302                 1.1142                 6.6932
 Frc consts  --      9.3574                 1.8825                12.2096
 IR Inten    --      3.9518                38.3053               302.0033

                     94                     95                     96
                      A                      A                      A
 Frequencies --   3007.6193              3054.3919              3055.7832
 Red. masses --      1.0683                 1.0668                 1.0375
 Frc consts  --      5.6935                 5.8641                 5.7079
 IR Inten    --     47.4261                22.1508                10.9014

                     97                     98                     99
                      A                      A                      A
 Frequencies --   3060.7699              3064.7853              3068.8819
 Red. masses --      1.0456                 1.0714                 1.0833
 Frc consts  --      5.7713                 5.9295                 6.0112
 IR Inten    --     10.0928                46.3901                51.1556

                    100                    101                    102
                      A                      A                      A
 Frequencies --   3123.3100              3124.2502              3130.1892
 Red. masses --      1.1012                 1.0962                 1.1009
 Frc consts  --      6.3293                 6.3044                 6.3551
 IR Inten    --      0.5528                 3.2660                47.3140

                    103                    104                    105
                      A                      A                      A
 Frequencies --   3143.1090              3150.3709              3168.2249
 Red. masses --      1.1007                 1.1025                 1.0902
 Frc consts  --      6.4069                 6.4466                 6.4477
 IR Inten    --     27.9867                11.7888                19.2156

                    106                    107                    108
                      A                      A                      A
 Frequencies --   3181.3459              3187.4739              3198.0963
 Red. masses --      1.0853                 1.0883                 1.0932
 Frc consts  --      6.4718                 6.5145                 6.5877
 IR Inten    --      3.2222                 2.4686                31.7966

                    109                    110                    111
                      A                      A                      A
 Frequencies --   3210.6454              3281.6444              3481.4428
 Red. masses --      1.0968                 1.0973                 1.0505
 Frc consts  --      6.6612                 6.9627                 7.5021
 IR Inten    --     24.7811                 0.1901                 3.0999

                    112                    113                    114
                      A                      A                      A
 Frequencies --   3560.3453              3581.2134              3672.2379
 Red. masses --      1.0911                 1.0755                 1.0801
 Frc consts  --      8.1486                 8.1267                 8.5815
 IR Inten    --      0.3140                18.8243                63.8233

 - Thermochemistry -
 -------------------
 Temperature   298.150 Kelvin.  Pressure   1.00000 Atm.
 Atom     1 has atomic number  6 and mass  12.00000

 Molecular mass:   259.16846 amu.
 Principal axes and moments of inertia in atomic units:
                           1         2         3
     Eigenvalues --  3203.151775843.995306961.01801
           X            0.99974   0.02184   0.00617
           Y           -0.02176   0.99969  -0.01225
           Z           -0.00644   0.01211   0.99991
 This molecule is an asymmetric top.
 Rotational symmetry number  1.
 Warning -- assumption of classical behavior for rotation
           may cause significant error
 Rotational temperatures (Kelvin)      0.02704     0.01482     0.01244
 Rotational constants (GHZ):           0.56343     0.30882     0.25926
 Zero-point vibrational energy     910897.2 (Joules/Mol)
                                  217.70967 (Kcal/Mol)
 Warning -- explicit consideration of  31 degrees of freedom as
           vibrations may cause significant error
 Vibrational temperatures:     38.24    61.67    86.00   113.56   131.76
          (Kelvin)            159.99   219.55   240.73   292.35   315.59
                              331.91   360.22   362.31   401.84   420.72
                              448.38   471.98   514.70   535.10   538.48
                              573.65   627.89   639.17   676.04   750.61
                              783.75   797.64   817.10   831.71   847.34
                              886.73   944.50  1008.45  1029.16  1071.01
                             1087.21  1121.91  1133.49  1160.93  1186.35
                             1233.99  1284.06  1295.92  1326.03  1355.55
                             1364.60  1377.95  1387.46  1391.18  1440.21
                             1468.95  1501.27  1509.10  1536.77  1569.63
                             1594.38  1604.73  1661.19  1672.79  1700.81
                             1726.24  1766.81  1780.50  1809.27  1815.00
                             1849.00  1853.80  1913.39  1918.59  1946.16
                             1982.14  2000.50  2014.57  2046.07  2061.53
                             2073.19  2093.79  2109.65  2138.55  2156.16
                             2161.25  2177.60  2180.50  2191.72  2204.34
                             2216.38  2223.11  2230.85  2313.36  2350.39
                             2416.49  2436.45  2531.63  4327.29  4394.59
                             4396.59  4403.77  4409.54  4415.44  4493.75
                             4495.10  4503.64  4522.23  4532.68  4558.37
                             4577.25  4586.06  4601.35  4619.40  4721.55
                             5009.02  5122.54  5152.57  5283.53

 Zero-point correction=                           0.346942 (Hartree/Particle)
 Thermal correction to Energy=                    0.365263
 Thermal correction to Enthalpy=                  0.366208
 Thermal correction to Gibbs Free Energy=         0.300976
 Sum of electronic and zero-point Energies=           -823.478402
 Sum of electronic and thermal Energies=              -823.460081
 Sum of electronic and thermal Enthalpies=            -823.459137
 Sum of electronic and thermal Free Energies=         -823.524368

                     E (Thermal)             CV                S
                      KCal/Mol        Cal/Mol-Kelvin    Cal/Mol-Kelvin
 Total                  229.206             72.374            137.291
 Electronic               0.000              0.000              0.000
 Translational            0.889              2.981             42.557
 Rotational               0.889              2.981             33.232
 Vibrational            227.429             66.413             61.502
 Vibration     1          0.593              1.984              6.070
 Vibration     2          0.595              1.980              5.122
 Vibration     3          0.597              1.973              4.465
 Vibration     4          0.600              1.963              3.917
 Vibration     5          0.602              1.955              3.626
 Vibration     6          0.607              1.940              3.248
 Vibration     7          0.619              1.900              2.640
 Vibration     8          0.624              1.883              2.465
 Vibration     9          0.639              1.835              2.104
 Vibration    10          0.647              1.812              1.964
 Vibration    11          0.652              1.794              1.874
 Vibration    12          0.663              1.762              1.728
 Vibration    13          0.664              1.760              1.718
 Vibration    14          0.680              1.712              1.538
 Vibration    15          0.688              1.688              1.460
 Vibration    16          0.700              1.652              1.354
 Vibration    17          0.711              1.619              1.270
 Vibration    18          0.733              1.559              1.132
 Vibration    19          0.744              1.530              1.072
 Vibration    20          0.745              1.525              1.062
 Vibration    21          0.765              1.473              0.967
 Vibration    22          0.797              1.391              0.838
 Vibration    23          0.804              1.374              0.813
 Vibration    24          0.827              1.317              0.738
 Vibration    25          0.877              1.202              0.606
 Vibration    26          0.900              1.151              0.555
 Vibration    27          0.910              1.130              0.535
 Vibration    28          0.924              1.101              0.508
 Vibration    29          0.935              1.079              0.489
 Vibration    30          0.946              1.055              0.469
 Vibration    31          0.976              0.997              0.422

                           ! Non-Optimized Parameters !
 Normal termination of Gaussian 16 at Sun Dec 13 17:09:15 2020.

 ----------------------------------------------------------------------
 # B3LYP/6-311++G(d,p) empiricaldispersion=gd3bj scf=xqc pop=npa geom=c
 heck
 ----------------------------------------------------------------------

 --------------------------------------
 CID_63193737_JID_9767_Energie_neutraal
 --------------------------------------
 Structure from the checkpoint file:  "JID_9767.chk"
 Charge =  0 Multiplicity = 1

 SCF Done:  E(RB3LYP) =  -824.061300439     A.U. after   15 cycles
 Normal termination of Gaussian 16 at Sun Dec 13 17:21:06 2020.

 ----------------------------------------------------------------------
 # B3LYP/6-311++G(d,p) empiricaldispersion=gd3bj scf=xqc pop=npa geom=c
 heck
 ----------------------------------------------------------------------

 ------------------------------------
 CID_63193737_JID_9767_Energie_kation
 ------------------------------------
 Structure from the checkpoint file:  "JID_9767.chk"
 Charge =  1 Multiplicity = 2

 SCF Done:  E(UB3LYP) =  -823.785057249     A.U. after   30 cycles
 Normal termination of Gaussian 16 at Sun Dec 13 17:54:23 2020.
 Gaussian 16:  ES64L-G16RevA.03 25-Dec-2016

 ----------------------------------------------------------------------
 # B3LYP/6-311++G(d,p) empiricaldispersion=gd3bj scf=xqc pop=npa geom=c
 heck
 ----------------------------------------------------------------------

 -----------------------------------
 CID_63193737_JID_9767_Energie_anion
 -----------------------------------
 Structure from the checkpoint file:  "JID_9767.chk"
 Charge = -1 Multiplicity = 2

                         Standard orientation:
 ---------------------------------------------------------------------
 Center     Atomic      Atomic             Coordinates (Angstroms)
 Number     Number       Type             X           Y           Z
 ---------------------------------------------------------------------
      1          6           0       -3.197383   -1.317605   -1.275090
      2          6           0       -2.456447   -1.166998    0.062200
      3          6           0       -3.219724   -1.938177    1.150274
      4          6           0       -1.021519   -1.735191   -0.043440
      5          7           0       -0.283716   -1.535526    1.201299
      6          7           0       -2.445820    0.242588    0.518227
      7          6           0       -1.969881    1.409673   -0.011494
      8          8           0       -2.100331    2.462931    0.611498
      9          6           0       -1.262320    1.411000   -1.361108
     10          6           0        0.042941    2.226607   -1.258195
     11          6           0        1.003587    1.618157   -0.280531
     12          6           0        1.170292    1.983322    1.032668
     13          7           0        2.078685    1.135164    1.646522
     14          6           0        2.510301    0.192202    0.735951
     15          6           0        3.380677   -0.890735    0.888286
     16          6           0        3.579974   -1.714512   -0.215260
     17          6           0        2.936216   -1.460034   -1.443581
     18          6           0        2.078584   -0.376872   -1.592229
     19          6           0        1.846923    0.467689   -0.494435
     20          1           0       -3.255034   -2.375957   -1.552888
     21          1           0       -2.700251   -0.786588   -2.090746
     22          1           0       -4.216843   -0.928550   -1.187851
     23          1           0       -3.319389   -2.989162    0.862713
     24          1           0       -2.670914   -1.896436    2.094741
     25          1           0       -4.226061   -1.525441    1.285724
     26          1           0       -1.107824   -2.813583   -0.225296
     27          1           0       -0.515832   -1.313358   -0.925526
     28          1           0        0.650132   -1.927796    1.098198
     29          1           0       -0.143973   -0.534853    1.332115
     30          1           0       -2.864471    0.408603    1.425968
     31          1           0       -1.045303    0.405787   -1.719631
     32          1           0       -1.937808    1.882598   -2.086189
     33          1           0        0.500016    2.292743   -2.253068
     34          1           0       -0.214203    3.241290   -0.944530
     35          1           0        0.685066    2.775478    1.584431
     36          1           0        2.380621    1.202843    2.605469
     37          1           0        3.876394   -1.088783    1.834731
     38          1           0        4.246616   -2.567587   -0.128919
     39          1           0        3.117381   -2.122724   -2.284805
     40          1           0        1.586952   -0.188706   -2.543059
 ---------------------------------------------------------------------

 SCF Done:  E(UB3LYP) =  -824.050102279     A.U. after   33 cycles
 SCF Done:  E(UB3LYP) =  -824.050102279     a.u. after    1 cycles

 The electronic state is 2-A.
 Alpha  occ. eigenvalues --  -18.99241 -14.26227 -14.24303 -14.19397 -10.18117
 Alpha  occ. eigenvalues --  -10.13826 -10.11470 -10.10940 -10.10015 -10.08836
 Alpha  occ. eigenvalues --  -10.08638 -10.08362 -10.08192 -10.08113 -10.08005
 Alpha  occ. eigenvalues --  -10.07759 -10.07661 -10.07647 -10.07560  -0.94441
 Alpha  occ. eigenvalues --   -0.88811  -0.83827  -0.78330  -0.75282  -0.72192
 Alpha  occ. eigenvalues --   -0.69900  -0.67337  -0.64736  -0.63078  -0.61106
 Alpha  occ. eigenvalues --   -0.57522  -0.57141  -0.53387  -0.51554  -0.50403
 Alpha  occ. eigenvalues --   -0.47653  -0.45891  -0.44256  -0.40809  -0.40124
 Alpha  occ. eigenvalues --   -0.39891  -0.39090  -0.38226  -0.37393  -0.36612
 Alpha  occ. eigenvalues --   -0.35288  -0.34712  -0.34241  -0.33360  -0.32967
 Alpha  occ. eigenvalues --   -0.31672  -0.31283  -0.30523  -0.30030  -0.29873
 Alpha  occ. eigenvalues --   -0.28773  -0.28560  -0.27654  -0.27288  -0.26087
 Alpha  occ. eigenvalues --   -0.25540  -0.25232  -0.24766  -0.24049  -0.18815
 Alpha  occ. eigenvalues --   -0.16687  -0.16566  -0.15199  -0.13665  -0.11780
 Alpha  occ. eigenvalues --    0.03953
 Alpha virt. eigenvalues --    0.05352   0.06291   0.06518   0.06884   0.07856
 Alpha virt. eigenvalues --    0.08120   0.08628   0.09073   0.09760   0.09965
 Alpha virt. eigenvalues --    0.10086   0.10545   0.10668   0.11286   0.11535

  Beta  occ. eigenvalues --  -18.99238 -14.26183 -14.24297 -14.19387 -10.18112
  Beta  occ. eigenvalues --  -10.13824 -10.11471 -10.10921 -10.10004 -10.08823
  Beta  occ. eigenvalues --  -10.08633 -10.08336 -10.08177 -10.08107 -10.08001
  Beta  occ. eigenvalues --  -10.07751 -10.07634 -10.07630 -10.07562  -0.94432
  Beta  occ. eigenvalues --   -0.88762  -0.83817  -0.78317  -0.75251  -0.72170
  Beta  occ. eigenvalues --   -0.69881  -0.67306  -0.64695  -0.63046  -0.61067
  Beta  occ. eigenvalues --   -0.57485  -0.57104  -0.53336  -0.51526  -0.50366
  Beta  occ. eigenvalues --   -0.47622  -0.45851  -0.44197  -0.40793  -0.40100
  Beta  occ. eigenvalues --   -0.39868  -0.39055  -0.38191  -0.37364  -0.36588
  Beta  occ. eigenvalues --   -0.35264  -0.34687  -0.34200  -0.33339  -0.32934
  Beta  occ. eigenvalues --   -0.31653  -0.31259  -0.30499  -0.30002  -0.29850
  Beta  occ. eigenvalues --   -0.28750  -0.28539  -0.27629  -0.27266  -0.26064
  Beta  occ. eigenvalues --   -0.25519  -0.25211  -0.24728  -0.24027  -0.18782
  Beta  occ. eigenvalues --   -0.16676  -0.16557  -0.15182  -0.13636  -0.11732
  Beta virt. eigenvalues --    0.05907   0.06442   0.06758   0.07062   0.07409
  Beta virt. eigenvalues --    0.08420   0.08504   0.08866   0.09426   0.09860
  Beta virt. eigenvalues --    0.10007   0.10348   0.10761   0.10920   0.11529

 Mulliken charges and spin densities:
               1          2
     1  C    0.431693  -0.956694
     2  C   -1.029458   1.052237
     3  C   -0.323622  -0.222525
     4  C    0.677244  -1.055353
     5  N   -0.298979   0.053534
     6  N   -0.132424  -0.042214
     7  C   -0.349216   0.109951
     8  O   -0.302687   0.001958
     9  C    0.047893   0.172371
    10  C    0.001666  -0.675469
    11  C    1.188560  -0.887307
    12  C   -0.086034  -0.248874
    13  N   -0.055179  -0.075903
    14  C   -0.170851  -0.033976
    15  C   -1.205853   1.007186
    16  C    1.233421  -1.482074
    17  C   -0.297344  -0.126420
    18  C   -0.619542   0.348092
    19  C    0.991923  -0.585176
    20  H   -0.154933   0.301722
    21  H   -0.457246   0.591724
    22  H   -0.010708   0.180179
    23  H    0.055016   0.088413
    24  H    0.056528   0.125369
    25  H   -0.072619   0.211440
    26  H   -0.035338   0.235002
    27  H    0.199613  -0.038873
    28  H    0.295484  -0.021282
    29  H    0.273285  -0.048498
    30  H    0.274417   0.052738
    31  H    0.497098  -0.418498
    32  H   -0.098356   0.318044
    33  H    0.104158   0.051713
    34  H    0.211611  -0.005665
    35  H   -0.066948   0.256058
    36  H   -0.362839   0.696673
    37  H   -0.875830   1.050766
    38  H    0.055599   0.110464
    39  H   -0.238629   0.401512
    40  H   -0.350577   0.507656
 Sum of Mulliken charges =  -1.00000   1.00000

 Dipole moment (field-independent basis, Debye):
    X=             -2.2341    Y=              0.4021    Z=             -2.0472  Tot=              3.0568
 Quadrupole moment (field-independent basis, Debye-Ang):
   XX=           -187.4457   YY=           -162.1830   ZZ=           -167.7296
   XY=              2.3651   XZ=            -14.3272   YZ=             -6.1220

 Summary of Natural Population Analysis:

                                       Natural Population
                Natural  -----------------------------------------------
    Atom  No    Charge         Core      Valence    Rydberg      Total
 -----------------------------------------------------------------------
      C    1   -0.28848      0.99961     2.28196    0.00691     3.28848
      C    2    0.05570      0.99957     1.93139    0.01334     2.94430
      C    3   -0.28942      0.99962     2.28380    0.00600     3.28942
      C    4   -0.09094      0.99956     2.08061    0.01077     3.09094
      N    5   -0.42376      0.99977     2.91522    0.00877     3.92376
      N    6   -0.32573      0.99964     2.81476    0.01133     3.82573
      C    7    0.35063      0.99967     1.62758    0.02212     2.64937
      O    8   -0.33419      0.99988     3.32869    0.00562     4.33419
      C    9   -0.22960      0.99958     2.22203    0.00800     3.22960
      C   10   -0.19346      0.99960     2.18499    0.00887     3.19346
      C   11   -0.06184      0.99948     2.05111    0.01125     3.06184
      C   12    0.00905      0.99949     1.97911    0.01235     2.99095
      N   13   -0.27168      0.99966     2.76116    0.01086     3.77168
      C   14    0.07437      0.99947     1.91256    0.01360     2.92563
      C   15   -0.11534      0.99951     2.10550    0.01033     3.11534
      C   16   -0.10906      0.99957     2.09921    0.01027     3.10906
      C   17   -0.11577      0.99957     2.10622    0.00997     3.11577
      C   18   -0.09788      0.99952     2.08887    0.00948     3.09788
      C   19   -0.04669      0.99946     2.03683    0.01040     3.04669
      H   20    0.10311      0.00000     0.39574    0.00115     0.39689
      H   21    0.10278      0.00000     0.39594    0.00128     0.39722
      H   22    0.10262      0.00000     0.39637    0.00101     0.39738
      H   23    0.10414      0.00000     0.39504    0.00082     0.39586
      H   24    0.11321      0.00000     0.38560    0.00119     0.38679
      H   25    0.09792      0.00000     0.40116    0.00092     0.40208
      H   26    0.09297      0.00000     0.40585    0.00118     0.40703
      H   27    0.08523      0.00000     0.41235    0.00242     0.41477
      H   28    0.18108      0.00000     0.31638    0.00254     0.31892
      H   29    0.17682      0.00000     0.31932    0.00386     0.32318
      H   30    0.19463      0.00000     0.30296    0.00241     0.30537
      H   31    0.10109      0.00000     0.39654    0.00237     0.39891
      H   32    0.11069      0.00000     0.38821    0.00109     0.38931
      H   33    0.10196      0.00000     0.39701    0.00103     0.39804
      H   34    0.11149      0.00000     0.38734    0.00118     0.38851
      H   35    0.10803      0.00000     0.39108    0.00089     0.39197
      H   36    0.20717      0.00000     0.28248    0.01036     0.29283
      H   37    0.10722      0.00000     0.39092    0.00186     0.39278
      H   38    0.10047      0.00000     0.39870    0.00083     0.39953
      H   39    0.10031      0.00000     0.39879    0.00090     0.39969
      H   40    0.10112      0.00000     0.39729    0.00159     0.39888
 =======================================================================
   * Total *   -0.00000     18.99223    50.76668    0.24110    70.00000

 Normal termination of Gaussian 16 at Sun Dec 13 18:30:57 2020.
