 Gaussian 16, Revision A.03,

 -----------------------------------------------------------
 # opt freq B3LYP/6-31G(d) empiricaldispersion=gd3bj scf=xqc
 -----------------------------------------------------------

 ------------------------------
 CID_99837928_JID_8398_neutraal
 ------------------------------
 Symbolic Z-matrix:
 Charge =  0 Multiplicity = 1

 SCF Done:  E(RB3LYP) =  -844.939799514     A.U. after   15 cycles
 SCF Done:  E(RB3LYP) =  -844.946495100     A.U. after   13 cycles
 SCF Done:  E(RB3LYP) =  -844.947169024     A.U. after   12 cycles
 SCF Done:  E(RB3LYP) =  -844.947471514     A.U. after   12 cycles
 SCF Done:  E(RB3LYP) =  -844.947628417     A.U. after   13 cycles
 SCF Done:  E(RB3LYP) =  -844.947808506     A.U. after   13 cycles
 SCF Done:  E(RB3LYP) =  -844.947960119     A.U. after   12 cycles
 SCF Done:  E(RB3LYP) =  -844.948084964     A.U. after   15 cycles
 SCF Done:  E(RB3LYP) =  -844.948286642     A.U. after   15 cycles
 SCF Done:  E(RB3LYP) =  -844.948340622     A.U. after   12 cycles
 SCF Done:  E(RB3LYP) =  -844.949627462     A.U. after   12 cycles
 SCF Done:  E(RB3LYP) =  -844.949636321     A.U. after   12 cycles
 SCF Done:  E(RB3LYP) =  -844.949636665     A.U. after    8 cycles
 SCF Done:  E(RB3LYP) =  -844.949636847     A.U. after    9 cycles
 SCF Done:  E(RB3LYP) =  -844.949636866     A.U. after    8 cycles
 Optimization completed.
    -- Stationary point found.
 Normal termination of Gaussian 16 at Fri Dec 11 20:50:24 2020.

 --------------------------------------------------------------------
 #N Geom=AllCheck Guess=TCheck SCRF=Check GenChk RB3LYP/6-31G(d) Freq
 --------------------------------------------------------------------

 Structure from the checkpoint file:  "JID_8398.chk"
 ------------------------------
 CID_99837928_JID_8398_neutraal
 ------------------------------
 Charge =  0 Multiplicity = 1

 SCF Done:  E(RB3LYP) =  -844.949636866     A.U. after    1 cycles

  Exact polarizability: 212.933  -4.117 135.035  28.962   7.310  96.503
 Approx polarizability: 309.440  -0.619 250.766  67.274  24.730 178.615

                      1                      2                      3
                      A                      A                      A
 Frequencies --     23.5442                34.3559                39.3441
 Red. masses --      5.1447                 6.0516                 6.6560
 Frc consts  --      0.0017                 0.0042                 0.0061
 IR Inten    --      2.9778                 1.9637                 0.6137

                      4                      5                      6
                      A                      A                      A
 Frequencies --     93.6460                96.1972               141.2752
 Red. masses --      1.1508                 7.4188                 5.4807
 Frc consts  --      0.0059                 0.0404                 0.0644
 IR Inten    --      0.1073                 2.2953                 0.3695

                      7                      8                      9
                      A                      A                      A
 Frequencies --    162.9029               219.5733               229.8467
 Red. masses --      4.0064                 5.1605                 6.6359
 Frc consts  --      0.0626                 0.1466                 0.2066
 IR Inten    --      1.4735                 3.0339                 2.6295

                     10                     11                     12
                      A                      A                      A
 Frequencies --    267.3587               300.2680               308.5402
 Red. masses --      4.3367                 5.0184                 5.7017
 Frc consts  --      0.1826                 0.2666                 0.3198
 IR Inten    --      3.5022                 4.6902                 2.6512

                     13                     14                     15
                      A                      A                      A
 Frequencies --    347.8607               410.2371               439.2192
 Red. masses --      3.2120                 3.9484                 3.5321
 Frc consts  --      0.2290                 0.3915                 0.4015
 IR Inten    --      7.0598                 5.0506                 0.0777

                     16                     17                     18
                      A                      A                      A
 Frequencies --    473.1169               503.2624               515.9690
 Red. masses --      4.9758                 8.0093                 7.0150
 Frc consts  --      0.6562                 1.1952                 1.1003
 IR Inten    --      0.5664                 3.0383                 2.2277

                     19                     20                     21
                      A                      A                      A
 Frequencies --    568.2873               599.2823               631.2830
 Red. masses --      6.5673                 7.9812                 5.0530
 Frc consts  --      1.2496                 1.6888                 1.1864
 IR Inten    --     14.6222                 0.4510                 3.4161

                     22                     23                     24
                      A                      A                      A
 Frequencies --    680.3944               690.8575               705.6608
 Red. masses --      5.4441                 7.0753                 4.8189
 Frc consts  --      1.4849                 1.9896                 1.4138
 IR Inten    --     10.1625                 4.4723                16.0260

                     25                     26                     27
                      A                      A                      A
 Frequencies --    718.3542               752.0768               791.4129
 Red. masses --      6.2399                 6.6734                 4.4919
 Frc consts  --      1.8972                 2.2239                 1.6576
 IR Inten    --      2.1354                 2.8751                 0.7029

                     28                     29                     30
                      A                      A                      A
 Frequencies --    797.1642               803.0389               810.6501
 Red. masses --      1.7303                 3.6109                 6.4343
 Frc consts  --      0.6478                 1.3719                 2.4913
 IR Inten    --     66.3570                12.4709                36.3431

                     31                     32                     33
                      A                      A                      A
 Frequencies --    905.8320               909.6909               949.1176
 Red. masses --      1.4552                 5.8973                 2.8420
 Frc consts  --      0.7035                 2.8754                 1.5084
 IR Inten    --      0.5579                11.9496                83.2979

                     34                     35                     36
                      A                      A                      A
 Frequencies --    982.3286              1008.1715              1009.2324
 Red. masses --      1.3543                 6.5650                 1.2961
 Frc consts  --      0.7700                 3.9315                 0.7778
 IR Inten    --      1.3691                12.6111                 0.0094

                     37                     38                     39
                      A                      A                      A
 Frequencies --   1043.7687              1056.2214              1058.6182
 Red. masses --      2.8399                 2.0572                 4.2232
 Frc consts  --      1.8229                 1.3522                 2.7885
 IR Inten    --     25.7206                 2.3975                 1.7930

                     40                     41                     42
                      A                      A                      A
 Frequencies --   1103.2912              1123.1321              1140.7464
 Red. masses --      6.3946                 3.1372                 1.8984
 Frc consts  --      4.5861                 2.3316                 1.4555
 IR Inten    --     44.6461                53.5134                 2.9764

                     43                     44                     45
                      A                      A                      A
 Frequencies --   1161.6694              1188.2191              1227.3823
 Red. masses --      1.3154                 1.1897                 2.2772
 Frc consts  --      1.0459                 0.9897                 2.0212
 IR Inten    --      0.0056                 9.5939                 2.7667

                     46                     47                     48
                      A                      A                      A
 Frequencies --   1254.7488              1256.8925              1300.5536
 Red. masses --      3.5542                 6.8936                 2.7328
 Frc consts  --      3.2969                 6.4164                 2.7235
 IR Inten    --      0.5765                22.5583                 6.6107

                     49                     50                     51
                      A                      A                      A
 Frequencies --   1314.4987              1339.4005              1342.5001
 Red. masses --      2.0552                 2.7279                 2.5443
 Frc consts  --      2.0923                 2.8834                 2.7018
 IR Inten    --      2.6465                39.4112                31.9322

                     52                     53                     54
                      A                      A                      A
 Frequencies --   1381.7153              1392.9416              1421.7568
 Red. masses --      1.9183                 3.9095                 9.0341
 Frc consts  --      2.1578                 4.4692                10.7594
 IR Inten    --     79.0044                18.9564                10.4393

                     55                     56                     57
                      A                      A                      A
 Frequencies --   1437.5280              1468.4491              1484.8579
 Red. masses --      5.1492                 1.1893                 1.1159
 Frc consts  --      6.2694                 1.5110                 1.4496
 IR Inten    --     20.5579                 0.5829                 6.3081

                     58                     59                     60
                      A                      A                      A
 Frequencies --   1505.0926              1507.6421              1510.1183
 Red. masses --      1.0422                 2.8195                 2.6398
 Frc consts  --      1.3910                 3.7758                 3.5468
 IR Inten    --     10.0041                 6.8389                23.2111

                     61                     62                     63
                      A                      A                      A
 Frequencies --   1530.1368              1551.0975              1562.6541
 Red. masses --      1.1754                 5.0095                 6.8329
 Frc consts  --      1.6215                 7.1010                 9.8307
 IR Inten    --      4.4943                15.0309                42.9623

                     64                     65                     66
                      A                      A                      A
 Frequencies --   1630.3423              1668.1180              1780.9039
 Red. masses --      6.9306                 6.0922                12.4174
 Frc consts  --     10.8538                 9.9879                23.2040
 IR Inten    --      7.2019                13.4169               312.8879

                     67                     68                     69
                      A                      A                      A
 Frequencies --   3089.7918              3104.6786              3157.3195
 Red. masses --      1.0320                 1.0582                 1.1072
 Frc consts  --      5.8050                 6.0097                 6.5027
 IR Inten    --     24.2048                 6.8464                 0.5196

                     70                     71                     72
                      A                      A                      A
 Frequencies --   3163.7627              3198.3970              3199.4982
 Red. masses --      1.1069                 1.0871                 1.1052
 Frc consts  --      6.5280                 6.5519                 6.6656
 IR Inten    --      6.5204                 4.0303                 0.9248

                     73                     74                     75
                      A                      A                      A
 Frequencies --   3212.1821              3227.7300              3231.8635
 Red. masses --      1.0913                 1.0939                 1.0948
 Frc consts  --      6.6344                 6.7146                 6.7375
 IR Inten    --     13.3257                 5.2412                 6.9343

 - Thermochemistry -
 -------------------
 Temperature   298.150 Kelvin.  Pressure   1.00000 Atm.
 Atom     1 has atomic number  6 and mass  12.00000

 Molecular mass:   243.08686 amu.
 Principal axes and moments of inertia in atomic units:
                           1         2         3
     Eigenvalues --  1627.565847866.837728401.47294
           X            0.99999   0.00026   0.00371
           Y           -0.00018   0.99976  -0.02175
           Z           -0.00372   0.02175   0.99976
 This molecule is an asymmetric top.
 Rotational symmetry number  1.
 Warning -- assumption of classical behavior for rotation
           may cause significant error
 Rotational temperatures (Kelvin)      0.05322     0.01101     0.01031
 Rotational constants (GHZ):           1.10886     0.22941     0.21481
 Zero-point vibrational energy     527849.7 (Joules/Mol)
                                  126.15910 (Kcal/Mol)
 Warning -- explicit consideration of  20 degrees of freedom as
           vibrations may cause significant error
 Vibrational temperatures:     33.87    49.43    56.61   134.74   138.41
          (Kelvin)            203.26   234.38   315.92   330.70   384.67
                              432.02   443.92   500.49   590.24   631.94
                              680.71   724.08   742.36   817.64   862.23
                              908.28   978.94   993.99  1015.29  1033.55
                             1082.07  1138.67  1146.94  1155.39  1166.34
                             1303.29  1308.84  1365.57  1413.35  1450.53
                             1452.06  1501.75  1519.67  1523.12  1587.39
                             1615.94  1641.28  1671.38  1709.58  1765.93
                             1805.30  1808.39  1871.21  1891.27  1927.10
                             1931.56  1987.98  2004.13  2045.59  2068.28
                             2112.77  2136.38  2165.49  2169.16  2172.72
                             2201.53  2231.68  2248.31  2345.70  2400.05
                             2562.32  4445.52  4466.94  4542.68  4551.95
                             4601.78  4603.36  4621.61  4643.98  4649.93

 Zero-point correction=                           0.201047 (Hartree/Particle)
 Thermal correction to Energy=                    0.215172
 Thermal correction to Enthalpy=                  0.216116
 Thermal correction to Gibbs Free Energy=         0.157506
 Sum of electronic and zero-point Energies=           -844.748590
 Sum of electronic and thermal Energies=              -844.734465
 Sum of electronic and thermal Enthalpies=            -844.733521
 Sum of electronic and thermal Free Energies=         -844.792130

                     E (Thermal)             CV                S
                      KCal/Mol        Cal/Mol-Kelvin    Cal/Mol-Kelvin
 Total                  135.022             53.147            123.355
 Electronic               0.000              0.000              0.000
 Translational            0.889              2.981             42.366
 Rotational               0.889              2.981             33.042
 Vibrational            133.245             47.186             47.947
 Vibration     1          0.593              1.985              6.310
 Vibration     2          0.594              1.983              5.561
 Vibration     3          0.594              1.981              5.292
 Vibration     4          0.603              1.954              3.582
 Vibration     5          0.603              1.952              3.530
 Vibration     6          0.615              1.912              2.787
 Vibration     7          0.623              1.888              2.516
 Vibration     8          0.647              1.811              1.963
 Vibration     9          0.652              1.795              1.880
 Vibration    10          0.672              1.733              1.613
 Vibration    11          0.693              1.673              1.415
 Vibration    12          0.698              1.657              1.370
 Vibration    13          0.725              1.580              1.176
 Vibration    14          0.774              1.448              0.926
 Vibration    15          0.799              1.385              0.829
 Vibration    16          0.830              1.310              0.729
 Vibration    17          0.859              1.243              0.650
 Vibration    18          0.871              1.215              0.619
 Vibration    19          0.924              1.100              0.508
 Vibration    20          0.957              1.033              0.451

 Optimization completed.
    -- Stationary point found.
 Normal termination of Gaussian 16 at Fri Dec 11 20:59:24 2020.

 ----------------------------------------------------------------------
 # B3LYP/6-311++G(d,p) empiricaldispersion=gd3bj scf=xqc pop=npa geom=c
 heck
 ----------------------------------------------------------------------

 --------------------------------------
 CID_99837928_JID_8398_Energie_neutraal
 --------------------------------------
 Structure from the checkpoint file:  "JID_8398.chk"
 Charge =  0 Multiplicity = 1

 SCF Done:  E(RB3LYP) =  -845.168640832     A.U. after   17 cycles
 Normal termination of Gaussian 16 at Fri Dec 11 21:03:53 2020.

 ----------------------------------------------------------------------
 # B3LYP/6-311++G(d,p) empiricaldispersion=gd3bj scf=xqc pop=npa geom=c
 heck
 ----------------------------------------------------------------------

 ------------------------------------
 CID_99837928_JID_8398_Energie_kation
 ------------------------------------
 Structure from the checkpoint file:  "JID_8398.chk"
 Charge =  1 Multiplicity = 2

 SCF Done:  E(UB3LYP) =  -844.843377701     A.U. after   33 cycles
 SCF Done:  E(UB3LYP) =  -844.843377701     a.u. after    1 cycles
 Normal termination of Gaussian 16 at Fri Dec 11 21:16:47 2020.
 Gaussian 16:  ES64L-G16RevA.03 25-Dec-2016

 ----------------------------------------------------------------------
 # B3LYP/6-311++G(d,p) empiricaldispersion=gd3bj scf=xqc pop=npa geom=c
 heck
 ----------------------------------------------------------------------

 -----------------------------------
 CID_99837928_JID_8398_Energie_anion
 -----------------------------------
 Structure from the checkpoint file:  "JID_8398.chk"
 Charge = -1 Multiplicity = 2

                         Standard orientation:
 ---------------------------------------------------------------------
 Center     Atomic      Atomic             Coordinates (Angstroms)
 Number     Number       Type             X           Y           Z
 ---------------------------------------------------------------------
      1          6           0        5.210924    1.082805   -0.465967
      2          7           0        3.914557    0.433450   -0.422514
      3          7           0        3.395950   -0.086478    0.687841
      4          6           0        2.224493   -0.533513    0.243719
      5          7           0        2.043978   -0.292226   -1.077946
      6          7           0        3.125098    0.328585   -1.488559
      7          6           0        1.227224   -1.240987    1.110211
      8          7           0       -0.139119   -0.973657    0.678453
      9          6           0       -0.650050    0.321420    0.841957
     10          8           0        0.012447    1.194207    1.386680
     11          6           0       -1.999590    0.455714    0.306774
     12          6           0       -2.695914    1.669691    0.371420
     13          6           0       -3.975543    1.749025   -0.156941
     14          6           0       -4.569835    0.621381   -0.753605
     15          6           0       -3.887635   -0.582694   -0.821858
     16          6           0       -2.590093   -0.673829   -0.288993
     17          7           0       -1.935995   -1.902289   -0.377611
     18          7           0       -0.763797   -2.035022    0.079727
     19          1           0        5.210965    1.945326    0.204212
     20          1           0        5.984677    0.376749   -0.156673
     21          1           0        5.376978    1.401714   -1.494495
     22          1           0        1.353618   -2.324488    1.052898
     23          1           0        1.354708   -0.912247    2.143517
     24          1           0       -2.211678    2.522171    0.835121
     25          1           0       -4.523540    2.685288   -0.112175
     26          1           0       -5.572122    0.697449   -1.164553
     27          1           0       -4.321776   -1.466220   -1.277308
 ---------------------------------------------------------------------

 SCF Done:  E(UB3LYP) =  -845.192198963     A.U. after   32 cycles

 The electronic state is 2-A.
 Alpha  occ. eigenvalues --  -18.95826 -14.33217 -14.27944 -14.24855 -14.23792
 Alpha  occ. eigenvalues --  -14.23302 -14.20371 -14.17381 -10.14497 -10.13913
 Alpha  occ. eigenvalues --  -10.12706 -10.10296 -10.06128 -10.05057 -10.04405
 Alpha  occ. eigenvalues --  -10.04067 -10.03636 -10.03448  -1.04431  -0.93111
 Alpha  occ. eigenvalues --   -0.89104  -0.84901  -0.80164  -0.77683  -0.72629
 Alpha  occ. eigenvalues --   -0.66944  -0.64331  -0.63437  -0.61007  -0.54366
 Alpha  occ. eigenvalues --   -0.54111  -0.52511  -0.50061  -0.46981  -0.43322
 Alpha  occ. eigenvalues --   -0.42760  -0.42117  -0.39595  -0.36835  -0.35969
 Alpha  occ. eigenvalues --   -0.34942  -0.34764  -0.33653  -0.31588  -0.30565
 Alpha  occ. eigenvalues --   -0.30437  -0.29795  -0.29370  -0.27366  -0.24954
 Alpha  occ. eigenvalues --   -0.24283  -0.23550  -0.23079  -0.21571  -0.21456
 Alpha  occ. eigenvalues --   -0.19617  -0.18659  -0.18097  -0.15568  -0.13728
 Alpha  occ. eigenvalues --   -0.13122  -0.10539  -0.09293   0.03427
 Alpha virt. eigenvalues --    0.05938   0.06503   0.08731   0.08801   0.09712
 Alpha virt. eigenvalues --    0.10335   0.10457   0.10559   0.12079   0.12232
 Alpha virt. eigenvalues --    0.12288   0.13457   0.14098   0.14583   0.15486

  Beta  occ. eigenvalues --  -18.95828 -14.33113 -14.27863 -14.24773 -14.23669
  Beta  occ. eigenvalues --  -14.23317 -14.19505 -14.17197 -10.14502 -10.13925
  Beta  occ. eigenvalues --  -10.12706 -10.10305 -10.06032 -10.05121 -10.04455
  Beta  occ. eigenvalues --  -10.03928 -10.03483 -10.03156  -1.04306  -0.92620
  Beta  occ. eigenvalues --   -0.88641  -0.84792  -0.79994  -0.77343  -0.72300
  Beta  occ. eigenvalues --   -0.66880  -0.63975  -0.63024  -0.60865  -0.54136
  Beta  occ. eigenvalues --   -0.53623  -0.52370  -0.49891  -0.46722  -0.43226
  Beta  occ. eigenvalues --   -0.42561  -0.41847  -0.39346  -0.36601  -0.35746
  Beta  occ. eigenvalues --   -0.34814  -0.34652  -0.33500  -0.31453  -0.30459
  Beta  occ. eigenvalues --   -0.29746  -0.29611  -0.29284  -0.27212  -0.24082
  Beta  occ. eigenvalues --   -0.23797  -0.22956  -0.22227  -0.21383  -0.21150
  Beta  occ. eigenvalues --   -0.19092  -0.18576  -0.17767  -0.14348  -0.13609
  Beta  occ. eigenvalues --   -0.12496  -0.08981  -0.08616
  Beta virt. eigenvalues --    0.05904   0.07074   0.08703   0.08910   0.09687
  Beta virt. eigenvalues --    0.10209   0.10359   0.10463   0.10677   0.12055
  Beta virt. eigenvalues --    0.12192   0.12293   0.13493   0.14077   0.15404

 Mulliken charges and spin densities:
               1          2
     1  C   -0.282703  -0.008031
     2  N    0.048166   0.021695
     3  N   -0.062171   0.046133
     4  C   -0.138943  -0.007822
     5  N   -0.400899  -0.009287
     6  N    0.272121   0.044004
     7  C   -0.502683   0.018141
     8  N    0.271049   0.017697
     9  C   -0.610797  -0.028844
    10  O   -0.334174   0.004716
    11  C    2.021928   0.183413
    12  C   -0.093469  -0.047980
    13  C   -0.519304   0.240414
    14  C   -0.247718  -0.048465
    15  C   -0.297716   0.123109
    16  C   -1.351742  -0.022046
    17  N   -0.034482   0.033159
    18  N   -0.152386   0.432146
    19  H    0.163108   0.010222
    20  H    0.155296   0.010342
    21  H    0.165981   0.000079
    22  H    0.177814   0.010407
    23  H    0.220979  -0.001085
    24  H    0.154265   0.001446
    25  H    0.112587  -0.018259
    26  H    0.115555   0.002973
    27  H    0.150336  -0.008277
 Sum of Mulliken charges =  -1.00000   1.00000

 Dipole moment (field-independent basis, Debye):
    X=              6.3217    Y=              2.2751    Z=              0.7842  Tot=              6.7643
 Quadrupole moment (field-independent basis, Debye-Ang):
   XX=           -121.5813   YY=           -123.4089   ZZ=           -119.3218
   XY=             -0.1643   XZ=             -0.8606   YZ=             -5.4886

 Summary of Natural Population Analysis:

                                       Natural Population
                Natural  -----------------------------------------------
    Atom  No    Charge         Core      Valence    Rydberg      Total
 -----------------------------------------------------------------------
      C    1   -0.17631      0.99965     2.17032    0.00634     3.17631
      N    2   -0.00411      0.99971     2.49050    0.01389     3.50411
      N    3   -0.14350      0.99968     2.63122    0.01260     3.64350
      C    4    0.16322      0.99967     1.81881    0.01829     2.83678
      N    5   -0.14519      0.99971     2.63125    0.01423     3.64519
      N    6   -0.02603      0.99977     2.51024    0.01602     3.52603
      C    7   -0.10468      0.99957     2.09432    0.01078     3.10468
      N    8   -0.14280      0.99964     2.62452    0.01863     3.64280
      C    9    0.32762      0.99957     1.65218    0.02062     2.67238
      O   10   -0.33627      0.99988     3.33012    0.00627     4.33627
      C   11   -0.05736      0.99943     2.04834    0.00959     3.05736
      C   12   -0.09840      0.99955     2.08962    0.00923     3.09840
      C   13   -0.05770      0.99958     2.04866    0.00947     3.05770
      C   14   -0.11676      0.99958     2.10826    0.00892     3.11676
      C   15   -0.06798      0.99954     2.05840    0.01004     3.06798
      C   16    0.08227      0.99945     1.90627    0.01200     2.91773
      N   17   -0.12305      0.99972     2.60542    0.01790     3.62305
      N   18    0.10908      0.99976     2.37328    0.01788     3.39092
      H   19    0.10257      0.00000     0.39653    0.00090     0.39743
      H   20    0.10015      0.00000     0.39893    0.00092     0.39985
      H   21    0.10734      0.00000     0.39169    0.00097     0.39266
      H   22    0.11639      0.00000     0.38224    0.00138     0.38361
      H   23    0.11041      0.00000     0.38846    0.00113     0.38959
      H   24    0.10465      0.00000     0.39418    0.00117     0.39535
      H   25    0.08785      0.00000     0.41112    0.00103     0.41215
      H   26    0.09115      0.00000     0.40782    0.00103     0.40885
      H   27    0.09744      0.00000     0.40024    0.00232     0.40256
 =======================================================================
   * Total *    0.00000     17.99349    44.76296    0.24354    63.00000

 Normal termination of Gaussian 16 at Fri Dec 11 21:28:41 2020.
