 Gaussian 16, Revision A.03,

 -----------------------------------------------------------
 # opt freq B3LYP/6-31G(d) empiricaldispersion=gd3bj scf=xqc
 -----------------------------------------------------------

 -------------------------------
 CID_152592407_JID_9687_neutraal
 -------------------------------
 Symbolic Z-matrix:
 Charge =  0 Multiplicity = 1

 SCF Done:  E(RB3LYP) =  -1030.69048081     A.U. after   14 cycles
 SCF Done:  E(RB3LYP) =  -1030.69844852     A.U. after   13 cycles
 SCF Done:  E(RB3LYP) =  -1030.69803408     A.U. after   13 cycles
 SCF Done:  E(RB3LYP) =  -1030.69913492     A.U. after   13 cycles
 SCF Done:  E(RB3LYP) =  -1030.69970366     A.U. after   13 cycles
 SCF Done:  E(RB3LYP) =  -1030.70006904     A.U. after   12 cycles
 SCF Done:  E(RB3LYP) =  -1030.70017873     A.U. after   11 cycles
 SCF Done:  E(RB3LYP) =  -1030.70023844     A.U. after   11 cycles
 SCF Done:  E(RB3LYP) =  -1030.70027535     A.U. after   12 cycles
 SCF Done:  E(RB3LYP) =  -1030.70030484     A.U. after   10 cycles
 SCF Done:  E(RB3LYP) =  -1030.70032031     A.U. after    8 cycles
 SCF Done:  E(RB3LYP) =  -1030.70032008     A.U. after    9 cycles
 SCF Done:  E(RB3LYP) =  -1030.70032107     A.U. after    8 cycles
 SCF Done:  E(RB3LYP) =  -1030.70032122     A.U. after    8 cycles
 SCF Done:  E(RB3LYP) =  -1030.70032123     A.U. after    7 cycles
 Optimization completed.
    -- Stationary point found.
 Normal termination of Gaussian 16 at Sun Dec 13 12:50:20 2020.

 --------------------------------------------------------------------
 #N Geom=AllCheck Guess=TCheck SCRF=Check GenChk RB3LYP/6-31G(d) Freq
 --------------------------------------------------------------------

 Structure from the checkpoint file:  "JID_9687.chk"
 -------------------------------
 CID_152592407_JID_9687_neutraal
 -------------------------------
 Charge =  0 Multiplicity = 1

 SCF Done:  E(RB3LYP) =  -1030.70032123     A.U. after    1 cycles

  Exact polarizability: 145.053   0.960 128.695   0.712  -0.013 121.991
 Approx polarizability: 198.712  -0.962 182.927   2.153   4.031 203.120

                      1                      2                      3
                      A                      A                      A
 Frequencies --     22.2651                29.4291                43.8146
 Red. masses --      3.7782                 4.8421                 7.0098
 Frc consts  --      0.0011                 0.0025                 0.0079
 IR Inten    --      0.1840                 0.4798                 1.6194

                      4                      5                      6
                      A                      A                      A
 Frequencies --     62.8302                80.8826                96.4924
 Red. masses --     10.1969                10.9518                 5.0959
 Frc consts  --      0.0237                 0.0422                 0.0280
 IR Inten    --      0.5693                 0.2376                 0.7661

                      7                      8                      9
                      A                      A                      A
 Frequencies --    111.5682               127.1129               150.1533
 Red. masses --     11.1253                 5.6533                 6.0130
 Frc consts  --      0.0816                 0.0538                 0.0799
 IR Inten    --      0.7907                 1.3680                 0.3250

                     10                     11                     12
                      A                      A                      A
 Frequencies --    156.6075               169.0842               183.7515
 Red. masses --      6.1355                 6.2752                 4.4364
 Frc consts  --      0.0887                 0.1057                 0.0883
 IR Inten    --      0.2216                 1.7785                 1.0516

                     13                     14                     15
                      A                      A                      A
 Frequencies --    202.2589               228.7992               231.7661
 Red. masses --      3.2424                 3.7492                 3.9726
 Frc consts  --      0.0782                 0.1156                 0.1257
 IR Inten    --      1.7446                 0.2899                 2.1083

                     16                     17                     18
                      A                      A                      A
 Frequencies --    244.6840               258.7409               285.7428
 Red. masses --      1.2854                 4.3620                 1.1686
 Frc consts  --      0.0453                 0.1721                 0.0562
 IR Inten    --      0.7890                 1.1817                 0.2609

                     19                     20                     21
                      A                      A                      A
 Frequencies --    302.7713               323.2202               353.2221
 Red. masses --      1.1903                 3.4774                 2.3948
 Frc consts  --      0.0643                 0.2140                 0.1760
 IR Inten    --      0.0642                 1.3076                 0.0133

                     22                     23                     24
                      A                      A                      A
 Frequencies --    362.6627               373.9925               387.5557
 Red. masses --      4.9613                 3.2089                 5.4419
 Frc consts  --      0.3845                 0.2644                 0.4816
 IR Inten    --      0.7620                 0.6473                 1.0722

                     25                     26                     27
                      A                      A                      A
 Frequencies --    419.4626               424.2300               453.5891
 Red. masses --      7.6169                 2.2001                 2.7697
 Frc consts  --      0.7896                 0.2333                 0.3357
 IR Inten    --      0.8446                 0.5113                 0.0568

                     28                     29                     30
                      A                      A                      A
 Frequencies --    491.2445               532.2664               555.2501
 Red. masses --      2.5837                 2.0741                 1.6889
 Frc consts  --      0.3674                 0.3462                 0.3068
 IR Inten    --      2.2747                14.2417                17.2029

                     31                     32                     33
                      A                      A                      A
 Frequencies --    574.9342               617.3816               627.1269
 Red. masses --      1.5621                 1.6333                 1.7918
 Frc consts  --      0.3042                 0.3668                 0.4152
 IR Inten    --     27.8725               133.5257                80.2587

                     34                     35                     36
                      A                      A                      A
 Frequencies --    646.3306               653.1621               677.0558
 Red. masses --      1.8167                 2.8002                 3.2226
 Frc consts  --      0.4471                 0.7038                 0.8704
 IR Inten    --    203.4328               115.6911                65.8994

                     37                     38                     39
                      A                      A                      A
 Frequencies --    731.7716               743.4638               750.7670
 Red. masses --      3.8185                 4.4494                 4.6795
 Frc consts  --      1.2047                 1.4490                 1.5540
 IR Inten    --      4.2819                 7.3163                12.3930

                     40                     41                     42
                      A                      A                      A
 Frequencies --    765.4421               772.2608               821.0483
 Red. masses --      4.7285                 3.6587                 5.1396
 Frc consts  --      1.6323                 1.2856                 2.0414
 IR Inten    --      6.6366                28.3146                24.6156

                     43                     44                     45
                      A                      A                      A
 Frequencies --    835.5229               929.6999               943.4102
 Red. masses --      2.7176                 2.3798                 2.1188
 Frc consts  --      1.1178                 1.2119                 1.1111
 IR Inten    --      5.4064                 0.9203                 0.7520

                     46                     47                     48
                      A                      A                      A
 Frequencies --    955.9484               972.0296               977.8478
 Red. masses --      1.7152                 2.0118                 1.2192
 Frc consts  --      0.9235                 1.1199                 0.6869
 IR Inten    --      0.9881                 4.5610                 0.3927

                     49                     50                     51
                      A                      A                      A
 Frequencies --   1016.9363              1036.4972              1053.6653
 Red. masses --      4.4063                 2.8140                 2.2653
 Frc consts  --      2.6848                 1.7812                 1.4818
 IR Inten    --      2.9325                 0.2665                29.0961

                     52                     53                     54
                      A                      A                      A
 Frequencies --   1076.2171              1093.4841              1101.8290
 Red. masses --      2.1868                 2.9019                 2.6750
 Frc consts  --      1.4923                 2.0444                 1.9134
 IR Inten    --      7.0882                30.0814                13.5139

                     55                     56                     57
                      A                      A                      A
 Frequencies --   1158.8415              1190.3194              1196.7831
 Red. masses --      2.5317                 3.0719                 2.5194
 Frc consts  --      2.0032                 2.5644                 2.1260
 IR Inten    --    283.6003               108.3972               134.9155

                     58                     59                     60
                      A                      A                      A
 Frequencies --   1215.4981              1220.6107              1251.1938
 Red. masses --      1.6661                 2.2687                 2.3605
 Frc consts  --      1.4503                 1.9915                 2.1772
 IR Inten    --    107.2101               281.6436                16.2170

                     61                     62                     63
                      A                      A                      A
 Frequencies --   1288.9168              1301.8118              1331.4516
 Red. masses --      2.6273                 1.7330                 1.5136
 Frc consts  --      2.5716                 1.7304                 1.5810
 IR Inten    --     16.9795                 3.4798                 4.0588

                     64                     65                     66
                      A                      A                      A
 Frequencies --   1359.4176              1366.3536              1375.2261
 Red. masses --      1.9552                 2.1571                 1.8483
 Frc consts  --      2.1289                 2.3727                 2.0596
 IR Inten    --     19.4203                73.9025                13.0656

                     67                     68                     69
                      A                      A                      A
 Frequencies --   1388.5188              1396.7637              1428.2332
 Red. masses --      1.6824                 1.4803                 1.2394
 Frc consts  --      1.9110                 1.7015                 1.4895
 IR Inten    --     25.6494                16.2227                 7.0613

                     70                     71                     72
                      A                      A                      A
 Frequencies --   1430.3792              1453.8367              1462.3154
 Red. masses --      1.2440                 1.5344                 1.2612
 Frc consts  --      1.4996                 1.9109                 1.5890
 IR Inten    --      3.8602                14.6472                10.4788

                     73                     74                     75
                      A                      A                      A
 Frequencies --   1512.4580              1516.0561              1524.2181
 Red. masses --      1.0542                 1.0624                 1.0474
 Frc consts  --      1.4208                 1.4387                 1.4337
 IR Inten    --      0.4668                 1.1610                 1.9802

                     76                     77                     78
                      A                      A                      A
 Frequencies --   1526.1845              1541.1119              1545.9922
 Red. masses --      1.0677                 1.0595                 1.0592
 Frc consts  --      1.4653                 1.4826                 1.4916
 IR Inten    --      3.1655                 3.8371                 2.4978

                     79                     80                     81
                      A                      A                      A
 Frequencies --   1556.9481              1843.5301              1851.3585
 Red. masses --      1.0555                10.5005                 9.9037
 Frc consts  --      1.5074                21.0262                19.9999
 IR Inten    --     13.3035               304.4403               197.0443

                     82                     83                     84
                      A                      A                      A
 Frequencies --   1860.9685              1881.2642              3038.0723
 Red. masses --     11.0671                10.4093                 1.0347
 Frc consts  --     22.5821                21.7055                 5.6268
 IR Inten    --    261.9428               274.3829                24.3885

                     85                     86                     87
                      A                      A                      A
 Frequencies --   3042.4709              3051.1938              3095.3023
 Red. masses --      1.0362                 1.0398                 1.0609
 Frc consts  --      5.6512                 5.7036                 5.9887
 IR Inten    --     27.9128                23.3978                 6.2313

                     88                     89                     90
                      A                      A                      A
 Frequencies --   3104.1800              3105.2365              3107.4956
 Red. masses --      1.1024                 1.1020                 1.1023
 Frc consts  --      6.2588                 6.2605                 6.2713
 IR Inten    --      1.1462                 6.5249                38.6523

                     91                     92                     93
                      A                      A                      A
 Frequencies --   3113.4592              3116.5074              3127.2881
 Red. masses --      1.1009                 1.1001                 1.0870
 Frc consts  --      6.2876                 6.2954                 6.2632
 IR Inten    --     69.6312                37.9264                 6.4827

                     94                     95                     96
                      A                      A                      A
 Frequencies --   3146.4438              3157.6380              3678.8595
 Red. masses --      1.1012                 1.0963                 1.0639
 Frc consts  --      6.4232                 6.4403                 8.4836
 IR Inten    --      8.3196                14.4228                59.3855

                     97                     98                     99
                      A                      A                      A
 Frequencies --   3680.4761              3689.4639              3692.1656
 Red. masses --      1.0640                 1.0640                 1.0641
 Frc consts  --      8.4920                 8.5337                 8.5467
 IR Inten    --     68.4603                81.5853                76.3007

 - Thermochemistry -
 -------------------
 Temperature   298.150 Kelvin.  Pressure   1.00000 Atm.
 Atom     1 has atomic number  6 and mass  12.00000

 Molecular mass:   276.08452 amu.
 Principal axes and moments of inertia in atomic units:
                           1         2         3
     Eigenvalues --  3393.522365673.075586462.62228
           X            0.99984   0.01801   0.00143
           Y           -0.01798   0.99962  -0.02101
           Z           -0.00181   0.02098   0.99978
 This molecule is an asymmetric top.
 Rotational symmetry number  1.
 Warning -- assumption of classical behavior for rotation
           may cause significant error
 Rotational temperatures (Kelvin)      0.02552     0.01527     0.01340
 Rotational constants (GHZ):           0.53182     0.31812     0.27926
 Zero-point vibrational energy     729495.3 (Joules/Mol)
                                  174.35357 (Kcal/Mol)
 Warning -- explicit consideration of  32 degrees of freedom as
           vibrations may cause significant error
 Vibrational temperatures:     32.03    42.34    63.04    90.40   116.37
          (Kelvin)            138.83   160.52   182.89   216.04   225.32
                              243.27   264.38   291.01   329.19   333.46
                              352.05   372.27   411.12   435.62   465.04
                              508.21   521.79   538.09   557.61   603.51
                              610.37   652.61   706.79   765.81   798.88
                              827.20   888.27   902.30   929.93   939.75
                              974.13  1052.86  1069.68  1080.19  1101.30
                             1111.11  1181.31  1202.13  1337.63  1357.36
                             1375.40  1398.53  1406.90  1463.14  1491.29
                             1515.99  1548.44  1573.28  1585.29  1667.31
                             1712.60  1721.90  1748.83  1756.19  1800.19
                             1854.46  1873.02  1915.66  1955.90  1965.88
                             1978.64  1997.77  2009.63  2054.91  2058.00
                             2091.75  2103.95  2176.09  2181.27  2193.01
                             2195.84  2217.32  2224.34  2240.10  2652.43
                             2663.69  2677.52  2706.72  4371.11  4377.44
                             4389.99  4453.45  4466.22  4467.74  4470.99
                             4479.57  4483.96  4499.47  4527.03  4543.14
                             5293.06  5295.38  5308.32  5312.20

 Zero-point correction=                           0.277850 (Hartree/Particle)
 Thermal correction to Energy=                    0.298210
 Thermal correction to Enthalpy=                  0.299154
 Thermal correction to Gibbs Free Energy=         0.228334
 Sum of electronic and zero-point Energies=          -1030.422471
 Sum of electronic and thermal Energies=             -1030.402111
 Sum of electronic and thermal Enthalpies=           -1030.401167
 Sum of electronic and thermal Free Energies=        -1030.471988

                     E (Thermal)             CV                S
                      KCal/Mol        Cal/Mol-Kelvin    Cal/Mol-Kelvin
 Total                  187.129             74.881            149.054
 Electronic               0.000              0.000              0.000
 Translational            0.889              2.981             42.745
 Rotational               0.889              2.981             33.186
 Vibrational            185.352             68.920             73.122
 Vibration     1          0.593              1.985              6.421
 Vibration     2          0.593              1.984              5.868
 Vibration     3          0.595              1.980              5.079
 Vibration     4          0.597              1.972              4.366
 Vibration     5          0.600              1.962              3.869
 Vibration     6          0.603              1.952              3.524
 Vibration     7          0.607              1.940              3.241
 Vibration     8          0.611              1.926              2.989
 Vibration     9          0.618              1.902              2.670
 Vibration    10          0.620              1.895              2.590
 Vibration    11          0.625              1.881              2.446
 Vibration    12          0.631              1.862              2.290
 Vibration    13          0.639              1.837              2.112
 Vibration    14          0.651              1.797              1.888
 Vibration    15          0.653              1.792              1.865
 Vibration    16          0.660              1.772              1.769
 Vibration    17          0.668              1.748              1.670
 Vibration    18          0.684              1.700              1.499
 Vibration    19          0.694              1.668              1.402
 Vibration    20          0.708              1.629              1.294
 Vibration    21          0.729              1.569              1.152
 Vibration    22          0.737              1.549              1.111
 Vibration    23          0.745              1.525              1.063
 Vibration    24          0.756              1.497              1.010
 Vibration    25          0.782              1.428              0.894
 Vibration    26          0.786              1.418              0.878
 Vibration    27          0.812              1.353              0.785
 Vibration    28          0.847              1.269              0.680
 Vibration    29          0.887              1.179              0.582
 Vibration    30          0.911              1.128              0.533
 Vibration    31          0.931              1.085              0.495
 Vibration    32          0.977              0.995              0.421

 Optimization completed.
    -- Stationary point found.
 Normal termination of Gaussian 16 at Sun Dec 13 13:11:52 2020.

 ----------------------------------------------------------------------
 # B3LYP/6-311++G(d,p) empiricaldispersion=gd3bj scf=xqc pop=npa geom=c
 heck
 ----------------------------------------------------------------------

 ---------------------------------------
 CID_152592407_JID_9687_Energie_neutraal
 ---------------------------------------
 Structure from the checkpoint file:  "JID_9687.chk"
 Charge =  0 Multiplicity = 1

 SCF Done:  E(RB3LYP) =  -1031.03557236     A.U. after   15 cycles
 Normal termination of Gaussian 16 at Sun Dec 13 13:20:39 2020.

 ----------------------------------------------------------------------
 # B3LYP/6-311++G(d,p) empiricaldispersion=gd3bj scf=xqc pop=npa geom=c
 heck
 ----------------------------------------------------------------------

 -------------------------------------
 CID_152592407_JID_9687_Energie_kation
 -------------------------------------
 Structure from the checkpoint file:  "JID_9687.chk"
 Charge =  1 Multiplicity = 2

 SCF Done:  E(UB3LYP) =  -1030.68219132     A.U. after   27 cycles
 Normal termination of Gaussian 16 at Sun Dec 13 13:43:22 2020.
 Gaussian 16:  ES64L-G16RevA.03 25-Dec-2016

 ----------------------------------------------------------------------
 # B3LYP/6-311++G(d,p) empiricaldispersion=gd3bj scf=xqc pop=npa geom=c
 heck
 ----------------------------------------------------------------------

 ------------------------------------
 CID_152592407_JID_9687_Energie_anion
 ------------------------------------
 Structure from the checkpoint file:  "JID_9687.chk"
 Charge = -1 Multiplicity = 2

                         Standard orientation:
 ---------------------------------------------------------------------
 Center     Atomic      Atomic             Coordinates (Angstroms)
 Number     Number       Type             X           Y           Z
 ---------------------------------------------------------------------
      1          6           0       -3.565829    0.825775    0.472864
      2          6           0       -2.849408   -0.450131   -0.004435
      3          6           0       -3.568554   -1.664618    0.614910
      4          6           0       -2.928595   -0.553115   -1.536635
      5          6           0       -1.382249   -0.515583    0.497342
      6          6           0       -0.314380    0.333275   -0.245360
      7          6           0       -0.400626    1.799644    0.144956
      8          8           0        0.053378    2.294288    1.150043
      9          8           0       -1.073763    2.524511   -0.784479
     10          6           0        1.147487   -0.205872   -0.027536
     11          6           0        1.458796   -1.282045   -1.084125
     12          8           0        2.379248   -1.238720   -1.862831
     13          8           0        0.562126   -2.292997   -1.058990
     14          6           0        2.216408    0.885225   -0.238679
     15          8           0        3.193814    1.035205    0.448170
     16          8           0        1.921430    1.644764   -1.313270
     17          6           0        1.407183   -0.771854    1.382598
     18          8           0        0.877392   -0.407219    2.399734
     19          8           0        2.346622   -1.739978    1.334163
     20          1           0       -4.626674    0.790498    0.197430
     21          1           0       -3.138531    1.724864    0.024404
     22          1           0       -3.506538    0.922171    1.563498
     23          1           0       -4.633680   -1.658594    0.356268
     24          1           0       -3.138160   -2.606571    0.254256
     25          1           0       -3.488063   -1.654517    1.708508
     26          1           0       -2.551952    0.352245   -2.024310
     27          1           0       -2.349398   -1.408976   -1.905005
     28          1           0       -3.968064   -0.688235   -1.857039
     29          1           0       -1.350236   -0.260044    1.558775
     30          1           0       -1.061072   -1.556859    0.415187
     31          1           0       -0.499767    0.281686   -1.318991
     32          1           0       -1.108347    3.436388   -0.437730
     33          1           0        0.847807   -2.924851   -1.746139
     34          1           0        2.646948    2.290958   -1.402037
     35          1           0        2.522350   -2.003192    2.257201
 ---------------------------------------------------------------------

 SCF Done:  E(UB3LYP) =  -1031.03133803     A.U. after   33 cycles
 SCF Done:  E(UB3LYP) =  -1031.03133802     a.u. after    1 cycles

 The electronic state is 2-A.
 Alpha  occ. eigenvalues --  -19.09172 -19.08483 -19.08034 -19.07693 -19.03590
 Alpha  occ. eigenvalues --  -19.03083 -19.02829 -19.02164 -10.23233 -10.22685
 Alpha  occ. eigenvalues --  -10.22454 -10.21304 -10.14608 -10.11643 -10.09492
 Alpha  occ. eigenvalues --  -10.07775 -10.06808 -10.06322 -10.06318  -1.03827
 Alpha  occ. eigenvalues --   -1.02769  -1.02236  -1.01744  -0.94563  -0.94074
 Alpha  occ. eigenvalues --   -0.93642  -0.92906  -0.76200  -0.72974  -0.66146
 Alpha  occ. eigenvalues --   -0.59760  -0.59450  -0.58878  -0.56726  -0.56157
 Alpha  occ. eigenvalues --   -0.51710  -0.48785  -0.45250  -0.44612  -0.42493
 Alpha  occ. eigenvalues --   -0.41536  -0.40634  -0.40370  -0.39829  -0.39139
 Alpha  occ. eigenvalues --   -0.38164  -0.36717  -0.36103  -0.35818  -0.35388
 Alpha  occ. eigenvalues --   -0.35085  -0.34368  -0.33474  -0.31889  -0.31686
 Alpha  occ. eigenvalues --   -0.31282  -0.30866  -0.29769  -0.28939  -0.27526
 Alpha  occ. eigenvalues --   -0.27401  -0.26744  -0.25403  -0.24212  -0.23742
 Alpha  occ. eigenvalues --   -0.23492  -0.23144  -0.23094  -0.22801  -0.21192
 Alpha  occ. eigenvalues --   -0.20175  -0.19495  -0.18184   0.03781
 Alpha virt. eigenvalues --    0.05742   0.06434   0.06798   0.07026   0.07347
 Alpha virt. eigenvalues --    0.07891   0.08292   0.08793   0.09225   0.09793
 Alpha virt. eigenvalues --    0.10246   0.11357   0.11656   0.12148   0.13436

  Beta  occ. eigenvalues --  -19.09156 -19.08449 -19.07961 -19.07651 -19.03584
  Beta  occ. eigenvalues --  -19.03056 -19.02773 -19.02149 -10.23225 -10.22650
  Beta  occ. eigenvalues --  -10.22405 -10.21271 -10.14593 -10.11615 -10.09492
  Beta  occ. eigenvalues --  -10.07766 -10.06794 -10.06302 -10.06301  -1.03777
  Beta  occ. eigenvalues --   -1.02710  -1.02121  -1.01673  -0.94540  -0.94016
  Beta  occ. eigenvalues --   -0.93525  -0.92855  -0.76140  -0.72941  -0.66069
  Beta  occ. eigenvalues --   -0.59721  -0.59415  -0.58809  -0.56648  -0.56008
  Beta  occ. eigenvalues --   -0.51618  -0.48705  -0.45181  -0.44552  -0.42430
  Beta  occ. eigenvalues --   -0.41492  -0.40588  -0.40321  -0.39753  -0.39077
  Beta  occ. eigenvalues --   -0.38118  -0.36657  -0.36035  -0.35768  -0.35331
  Beta  occ. eigenvalues --   -0.35000  -0.34284  -0.33405  -0.31861  -0.31644
  Beta  occ. eigenvalues --   -0.31219  -0.30820  -0.29724  -0.28912  -0.27500
  Beta  occ. eigenvalues --   -0.27375  -0.26715  -0.25339  -0.24138  -0.23657
  Beta  occ. eigenvalues --   -0.23407  -0.23098  -0.23049  -0.22755  -0.21131
  Beta  occ. eigenvalues --   -0.20132  -0.19435  -0.18152
  Beta virt. eigenvalues --    0.06092   0.06743   0.06804   0.07238   0.07639
  Beta virt. eigenvalues --    0.07752   0.08578   0.08741   0.08997   0.09600
  Beta virt. eigenvalues --    0.10015   0.10357   0.11580   0.11678   0.12292

 Mulliken charges and spin densities:
               1          2
     1  C   -0.317778  -0.369071
     2  C   -0.846171   1.666786
     3  C   -0.410382  -0.215172
     4  C    0.296872  -1.014584
     5  C   -0.192157  -0.988570
     6  C    1.007136  -0.679019
     7  C   -0.702358   0.222523
     8  O   -0.239049   0.044394
     9  O   -0.116928   0.047224
    10  C    0.960381  -0.687441
    11  C    0.049206  -0.147169
    12  O   -0.211742   0.048167
    13  O   -0.169870   0.037759
    14  C    0.090253   0.005498
    15  O   -0.248290   0.048763
    16  O   -0.181742   0.067965
    17  C   -0.098544  -0.001771
    18  O   -0.227555   0.017566
    19  O   -0.079229   0.043929
    20  H   -0.102706   0.259310
    21  H    0.209169  -0.054554
    22  H    0.092726   0.039548
    23  H    0.076871   0.071066
    24  H   -0.117001   0.257982
    25  H    0.044185   0.093858
    26  H   -0.012387   0.177233
    27  H    0.026813   0.140615
    28  H    0.002395   0.152536
    29  H    0.297371  -0.042548
    30  H    0.310750  -0.086558
    31  H    0.470048  -0.034979
    32  H   -0.259386   0.549975
    33  H   -0.467610   0.795708
    34  H   -0.085218   0.400874
    35  H    0.151927   0.132158
 Sum of Mulliken charges =  -1.00000   1.00000

 Dipole moment (field-independent basis, Debye):
    X=             -1.5314    Y=              0.0172    Z=              2.5136  Tot=              2.9434
 Quadrupole moment (field-independent basis, Debye-Ang):
   XX=           -161.9275   YY=           -163.2013   ZZ=           -147.5272
   XY=             -1.2849   XZ=              2.0659   YZ=            -11.2159

 Summary of Natural Population Analysis:

                                       Natural Population
                Natural  -----------------------------------------------
    Atom  No    Charge         Core      Valence    Rydberg      Total
 -----------------------------------------------------------------------
      C    1   -0.28721      0.99962     2.28182    0.00576     3.28721
      C    2   -0.04625      0.99959     2.03626    0.01040     3.04625
      C    3   -0.28042      0.99963     2.27508    0.00571     3.28042
      C    4   -0.29106      0.99962     2.28415    0.00729     3.29106
      C    5   -0.19333      0.99956     2.18225    0.01152     3.19333
      C    6   -0.14644      0.99952     2.13258    0.01434     3.14644
      C    7    0.41592      0.99967     1.55715    0.02727     2.58408
      O    8   -0.29925      0.99986     3.29347    0.00592     4.29925
      O    9   -0.34313      0.99987     3.33634    0.00692     4.34313
      C   10   -0.15168      0.99942     2.13506    0.01720     3.15168
      C   11    0.42463      0.99967     1.54887    0.02683     2.57537
      O   12   -0.28745      0.99987     3.28158    0.00600     4.28745
      O   13   -0.34494      0.99987     3.33688    0.00819     4.34494
      C   14    0.42868      0.99968     1.54364    0.02799     2.57132
      O   15   -0.29018      0.99986     3.28456    0.00575     4.29018
      O   16   -0.33956      0.99987     3.33236    0.00732     4.33956
      C   17    0.42324      0.99968     1.54885    0.02824     2.57676
      O   18   -0.28753      0.99986     3.28180    0.00587     4.28753
      O   19   -0.33704      0.99987     3.33075    0.00641     4.33704
      H   20    0.09676      0.00000     0.40243    0.00081     0.40324
      H   21    0.10587      0.00000     0.39280    0.00133     0.39413
      H   22    0.09832      0.00000     0.40088    0.00080     0.40168
      H   23    0.09702      0.00000     0.40220    0.00078     0.40298
      H   24    0.10179      0.00000     0.39724    0.00097     0.39821
      H   25    0.09839      0.00000     0.40080    0.00081     0.40161
      H   26    0.10331      0.00000     0.39564    0.00105     0.39669
      H   27    0.10422      0.00000     0.39467    0.00111     0.39578
      H   28    0.09877      0.00000     0.40046    0.00077     0.40123
      H   29    0.11345      0.00000     0.38530    0.00125     0.38655
      H   30    0.11258      0.00000     0.38510    0.00232     0.38742
      H   31    0.12185      0.00000     0.37520    0.00296     0.37815
      H   32    0.24211      0.00000     0.25090    0.00700     0.25789
      H   33    0.25085      0.00000     0.22843    0.02072     0.24915
      H   34    0.24590      0.00000     0.24879    0.00531     0.25410
      H   35    0.24182      0.00000     0.25516    0.00302     0.25818
 =======================================================================
   * Total *   -0.00000     18.99461    53.71944    0.28595    73.00000

 Normal termination of Gaussian 16 at Sun Dec 13 14:11:30 2020.
