 Gaussian 16, Revision A.03,

 -----------------------------------------------------------
 # opt freq B3LYP/6-31G(d) empiricaldispersion=gd3bj scf=xqc
 -----------------------------------------------------------

 ------------------------------
 CID_20238909_JID_7821_neutraal
 ------------------------------
 Symbolic Z-matrix:
 Charge =  0 Multiplicity = 1

 SCF Done:  E(RB3LYP) =  -750.130334807     A.U. after   15 cycles
 SCF Done:  E(RB3LYP) =  -750.134041540     A.U. after   12 cycles
 SCF Done:  E(RB3LYP) =  -750.135208096     A.U. after   13 cycles
 SCF Done:  E(RB3LYP) =  -750.135705670     A.U. after   14 cycles
 SCF Done:  E(RB3LYP) =  -750.136381238     A.U. after   12 cycles
 SCF Done:  E(RB3LYP) =  -750.136539428     A.U. after   11 cycles
 SCF Done:  E(RB3LYP) =  -750.136603131     A.U. after   12 cycles
 SCF Done:  E(RB3LYP) =  -750.136637537     A.U. after   11 cycles
 SCF Done:  E(RB3LYP) =  -750.136646784     A.U. after   11 cycles
 SCF Done:  E(RB3LYP) =  -750.136650602     A.U. after   11 cycles
 SCF Done:  E(RB3LYP) =  -750.137820667     A.U. after   11 cycles
 SCF Done:  E(RB3LYP) =  -750.137826194     A.U. after   11 cycles
 SCF Done:  E(RB3LYP) =  -750.137825979     A.U. after   10 cycles
 SCF Done:  E(RB3LYP) =  -750.137826573     A.U. after    9 cycles
 SCF Done:  E(RB3LYP) =  -750.137826647     A.U. after    7 cycles
 SCF Done:  E(RB3LYP) =  -750.137826662     A.U. after    7 cycles
 Optimization completed.
    -- Stationary point found.
 Normal termination of Gaussian 16 at Fri Dec 11 13:29:08 2020.

 --------------------------------------------------------------------
 #N Geom=AllCheck Guess=TCheck SCRF=Check GenChk RB3LYP/6-31G(d) Freq
 --------------------------------------------------------------------

 Structure from the checkpoint file:  "JID_7821.chk"
 ------------------------------
 CID_20238909_JID_7821_neutraal
 ------------------------------
 Charge =  0 Multiplicity = 1

 SCF Done:  E(RB3LYP) =  -750.137826662     A.U. after    1 cycles

  Exact polarizability: 261.112   4.410 159.914   7.112   3.913  91.518
 Approx polarizability: 333.326   4.056 273.266  14.148   5.661 138.802

                      1                      2                      3
                      A                      A                      A
 Frequencies --     12.5342                30.3401                33.3859
 Red. masses --      4.6532                 5.1664                 4.4367
 Frc consts  --      0.0004                 0.0028                 0.0029
 IR Inten    --      0.0789                 1.7771                 0.5376

                      4                      5                      6
                      A                      A                      A
 Frequencies --     49.2878                79.5059                80.7510
 Red. masses --      2.7711                 3.7534                 3.7021
 Frc consts  --      0.0040                 0.0140                 0.0142
 IR Inten    --      0.0483                 1.1780                 0.8055

                      7                      8                      9
                      A                      A                      A
 Frequencies --    112.7906               131.2765               169.0631
 Red. masses --      2.7551                 4.8818                 4.2292
 Frc consts  --      0.0207                 0.0496                 0.0712
 IR Inten    --      0.6873                 0.5199                10.8281

                     10                     11                     12
                      A                      A                      A
 Frequencies --    187.5343               211.5237               218.3490
 Red. masses --      2.0784                 2.0784                 3.1167
 Frc consts  --      0.0431                 0.0548                 0.0875
 IR Inten    --      0.5829                 0.2098                 0.6825

                     13                     14                     15
                      A                      A                      A
 Frequencies --    242.6659               272.7493               289.8735
 Red. masses --      5.2752                 1.6847                 2.6314
 Frc consts  --      0.1830                 0.0738                 0.1303
 IR Inten    --      3.0342                 0.0486                 0.1117

                     16                     17                     18
                      A                      A                      A
 Frequencies --    330.6846               367.6790               373.3421
 Red. masses --      2.9712                 2.4067                 2.2943
 Frc consts  --      0.1914                 0.1917                 0.1884
 IR Inten    --      7.0270                 4.5377                24.3854

                     19                     20                     21
                      A                      A                      A
 Frequencies --    395.2125               406.3636               442.7170
 Red. masses --      2.0206                 2.0040                 3.5384
 Frc consts  --      0.1859                 0.1950                 0.4086
 IR Inten    --     65.0222                12.7490                 4.2573

                     22                     23                     24
                      A                      A                      A
 Frequencies --    449.8613               514.3566               556.8992
 Red. masses --      2.6683                 2.7201                 4.1686
 Frc consts  --      0.3182                 0.4240                 0.7617
 IR Inten    --      0.5436                 5.8843                 7.6074

                     25                     26                     27
                      A                      A                      A
 Frequencies --    568.8016               608.3949               637.1153
 Red. masses --      3.9464                 4.2391                 4.9313
 Frc consts  --      0.7523                 0.9245                 1.1794
 IR Inten    --     25.0769                78.9129                23.9210

                     28                     29                     30
                      A                      A                      A
 Frequencies --    695.1645               729.7405               732.1122
 Red. masses --      2.5575                 3.0283                 1.2675
 Frc consts  --      0.7282                 0.9501                 0.4003
 IR Inten    --     15.3758                58.3791                 6.0335

                     31                     32                     33
                      A                      A                      A
 Frequencies --    746.7707               781.0748               803.6913
 Red. masses --      2.9022                 1.8384                 1.7892
 Frc consts  --      0.9536                 0.6608                 0.6809
 IR Inten    --     31.9237                20.1020               151.4760

                     34                     35                     36
                      A                      A                      A
 Frequencies --    825.1881               840.1794               864.0048
 Red. masses --      2.5243                 1.7535                 1.7913
 Frc consts  --      1.0127                 0.7293                 0.7879
 IR Inten    --     54.8270                 0.3394                 0.3666

                     37                     38                     39
                      A                      A                      A
 Frequencies --    886.2383               917.2446               928.4695
 Red. masses --      2.0841                 1.4737                 1.8949
 Frc consts  --      0.9644                 0.7305                 0.9624
 IR Inten    --      4.4341                 0.8027                 6.0421

                     40                     41                     42
                      A                      A                      A
 Frequencies --    936.5459               945.6781               972.4388
 Red. masses --      2.1080                 1.5360                 1.2976
 Frc consts  --      1.0894                 0.8094                 0.7230
 IR Inten    --      7.9628                 4.0909                 0.7426

                     43                     44                     45
                      A                      A                      A
 Frequencies --   1004.7821              1016.6208              1022.0925
 Red. masses --      1.8087                 1.1848                 5.1899
 Frc consts  --      1.0759                 0.7215                 3.1944
 IR Inten    --      2.0093                24.3009                 1.3027

                     46                     47                     48
                      A                      A                      A
 Frequencies --   1023.2620              1062.2628              1085.7853
 Red. masses --      1.5565                 1.6092                 3.9475
 Frc consts  --      0.9602                 1.0698                 2.7420
 IR Inten    --      2.5872                 2.2818                35.5487

                     49                     50                     51
                      A                      A                      A
 Frequencies --   1098.7079              1131.0995              1135.7928
 Red. masses --      2.1253                 1.7270                 1.9905
 Frc consts  --      1.5116                 1.3018                 1.5129
 IR Inten    --      1.3915                 3.3241                 1.8249

                     52                     53                     54
                      A                      A                      A
 Frequencies --   1148.2894              1158.9892              1211.3095
 Red. masses --      2.0875                 1.8906                 1.1484
 Frc consts  --      1.6217                 1.4963                 0.9928
 IR Inten    --      1.3317                 0.7553                 4.0184

                     55                     56                     57
                      A                      A                      A
 Frequencies --   1214.4036              1241.8146              1251.5311
 Red. masses --      1.2306                 1.4143                 2.2764
 Frc consts  --      1.0693                 1.2850                 2.1008
 IR Inten    --      0.4037                 3.6762                13.1426

                     58                     59                     60
                      A                      A                      A
 Frequencies --   1299.6587              1329.4815              1337.5335
 Red. masses --      1.2992                 1.3984                 1.5509
 Frc consts  --      1.2929                 1.4563                 1.6348
 IR Inten    --      0.6517                 6.7647                 4.9292

                     61                     62                     63
                      A                      A                      A
 Frequencies --   1347.2494              1361.3516              1366.1186
 Red. masses --      1.1937                 3.1276                 1.6973
 Frc consts  --      1.2765                 3.4151                 1.8663
 IR Inten    --     15.3452               187.5554                 1.8521

                     64                     65                     66
                      A                      A                      A
 Frequencies --   1371.0201              1380.6002              1389.3840
 Red. masses --      1.3619                 1.8011                 1.6389
 Frc consts  --      1.5083                 2.0227                 1.8640
 IR Inten    --      6.1613                 6.5513                14.2468

                     67                     68                     69
                      A                      A                      A
 Frequencies --   1411.8996              1415.9357              1425.6853
 Red. masses --      1.4347                 1.4083                 1.3354
 Frc consts  --      1.6851                 1.6635                 1.5992
 IR Inten    --      3.4091                15.8139                97.1853

                     70                     71                     72
                      A                      A                      A
 Frequencies --   1444.3617              1449.0439              1477.9764
 Red. masses --      1.2710                 1.1554                 3.1290
 Frc consts  --      1.5622                 1.4294                 4.0270
 IR Inten    --      6.3206                11.8378                62.2502

                     73                     74                     75
                      A                      A                      A
 Frequencies --   1507.8706              1516.6724              1525.7160
 Red. masses --      1.0869                 1.0846                 1.0890
 Frc consts  --      1.4560                 1.4700                 1.4936
 IR Inten    --      7.3636                 8.9765                 3.8092

                     76                     77                     78
                      A                      A                      A
 Frequencies --   1528.3836              1534.8041              1540.8695
 Red. masses --      1.0609                 1.0584                 2.3883
 Frc consts  --      1.4602                 1.4690                 3.3409
 IR Inten    --      7.3668                 5.8285                 2.1840

                     79                     80                     81
                      A                      A                      A
 Frequencies --   1542.7465              1640.8210              1660.6631
 Red. masses --      1.0852                 5.2524                 5.7943
 Frc consts  --      1.5218                 8.3316                 9.4149
 IR Inten    --      3.1543                11.2274                10.1683

                     82                     83                     84
                      A                      A                      A
 Frequencies --   1733.4250              1772.8923              3027.2679
 Red. masses --      5.6777                 9.2511                 1.0651
 Frc consts  --     10.0516                17.1319                 5.7508
 IR Inten    --      3.9414               201.0709                43.3112

                     85                     86                     87
                      A                      A                      A
 Frequencies --   3030.8882              3035.1859              3042.8308
 Red. masses --      1.0610                 1.0635                 1.0532
 Frc consts  --      5.7428                 5.7724                 5.7452
 IR Inten    --     11.0538                24.1033                 6.3017

                     88                     89                     90
                      A                      A                      A
 Frequencies --   3046.9859              3062.0789              3068.7237
 Red. masses --      1.0465                 1.0972                 1.1003
 Frc consts  --      5.7243                 6.0613                 6.1051
 IR Inten    --     32.9251                21.3258                53.5132

                     91                     92                     93
                      A                      A                      A
 Frequencies --   3077.6224              3085.5902              3110.1678
 Red. masses --      1.0971                 1.1041                 1.1017
 Frc consts  --      6.1226                 6.1934                 6.2790
 IR Inten    --     50.0320                88.1013                50.1972

                     94                     95                     96
                      A                      A                      A
 Frequencies --   3116.6387              3145.7540              3160.2117
 Red. masses --      1.1019                 1.0894                 1.0865
 Frc consts  --      6.3064                 6.3517                 6.3933
 IR Inten    --     49.4537                10.3689                24.9383

                     97                     98                     99
                      A                      A                      A
 Frequencies --   3190.9938              3209.1880              3213.2013
 Red. masses --      1.0867                 1.0926                 1.0901
 Frc consts  --      6.5194                 6.6298                 6.6310
 IR Inten    --      5.8986                18.8832                 2.3947

                    100                    101                    102
                      A                      A                      A
 Frequencies --   3236.6044              3523.8719              3711.8142
 Red. masses --      1.0920                 1.0764                 1.0688
 Frc consts  --      6.7400                 7.8750                 8.6756
 IR Inten    --     19.1663                17.1615                30.4058

 - Thermochemistry -
 -------------------
 Temperature   298.150 Kelvin.  Pressure   1.00000 Atm.
 Atom     1 has atomic number  6 and mass  12.00000

 Molecular mass:   233.14158 amu.
 Principal axes and moments of inertia in atomic units:
                           1         2         3
     Eigenvalues --  1288.53886********************
           X            0.99999   0.00341   0.00145
           Y           -0.00343   0.99987   0.01543
           Z           -0.00140  -0.01544   0.99988
 This molecule is an asymmetric top.
 Rotational symmetry number  1.
 Warning -- assumption of classical behavior for rotation
           may cause significant error
 Rotational temperatures (Kelvin)      0.06722     0.00669     0.00631
 Rotational constants (GHZ):           1.40061     0.13946     0.13152
 Zero-point vibrational energy     811021.0 (Joules/Mol)
                                  193.83868 (Kcal/Mol)
 Warning -- explicit consideration of  26 degrees of freedom as
           vibrations may cause significant error
 Vibrational temperatures:     18.03    43.65    48.03    70.91   114.39
          (Kelvin)            116.18   162.28   188.88   243.24   269.82
                              304.34   314.16   349.14   392.43   417.06
                              475.78   529.01   537.16   568.62   584.67
                              636.97   647.25   740.04   801.25   818.38
                              875.34   916.67  1000.19  1049.93  1053.35
                             1074.44  1123.79  1156.33  1187.26  1208.83
                             1243.11  1275.10  1319.71  1335.86  1347.48
                             1360.62  1399.12  1445.66  1462.69  1470.56
                             1472.25  1528.36  1562.20  1580.80  1627.40
                             1634.15  1652.13  1667.53  1742.80  1747.26
                             1786.69  1800.67  1869.92  1912.83  1924.41
                             1938.39  1958.68  1965.54  1972.59  1986.38
                             1999.01  2031.41  2037.22  2051.24  2078.11
                             2084.85  2126.48  2169.49  2182.15  2195.17
                             2199.00  2208.24  2216.97  2219.67  2360.78
                             2389.32  2494.01  2550.80  4355.56  4360.77
                             4366.96  4377.95  4383.93  4405.65  4415.21
                             4428.01  4439.48  4474.84  4484.15  4526.04
                             4546.84  4591.13  4617.31  4623.08  4656.75
                             5070.07  5340.47

 Zero-point correction=                           0.308902 (Hartree/Particle)
 Thermal correction to Energy=                    0.326489
 Thermal correction to Enthalpy=                  0.327433
 Thermal correction to Gibbs Free Energy=         0.260508
 Sum of electronic and zero-point Energies=           -749.828925
 Sum of electronic and thermal Energies=              -749.811338
 Sum of electronic and thermal Enthalpies=            -749.810393
 Sum of electronic and thermal Free Energies=         -749.877319

                     E (Thermal)             CV                S
                      KCal/Mol        Cal/Mol-Kelvin    Cal/Mol-Kelvin
 Total                  204.875             65.320            140.856
 Electronic               0.000              0.000              0.000
 Translational            0.889              2.981             42.241
 Rotational               0.889              2.981             33.792
 Vibrational            203.098             59.359             64.823
 Vibration     1          0.593              1.987              7.562
 Vibration     2          0.594              1.984              5.807
 Vibration     3          0.594              1.983              5.617
 Vibration     4          0.595              1.978              4.846
 Vibration     5          0.600              1.963              3.903
 Vibration     6          0.600              1.962              3.873
 Vibration     7          0.607              1.939              3.220
 Vibration     8          0.612              1.922              2.927
 Vibration     9          0.625              1.881              2.446
 Vibration    10          0.632              1.857              2.252
 Vibration    11          0.643              1.823              2.030
 Vibration    12          0.646              1.813              1.973
 Vibration    13          0.659              1.775              1.783
 Vibration    14          0.676              1.724              1.579
 Vibration    15          0.686              1.693              1.475
 Vibration    16          0.713              1.614              1.257
 Vibration    17          0.740              1.539              1.089
 Vibration    18          0.745              1.527              1.066
 Vibration    19          0.762              1.480              0.980
 Vibration    20          0.771              1.456              0.940
 Vibration    21          0.802              1.377              0.818
 Vibration    22          0.809              1.361              0.796
 Vibration    23          0.869              1.218              0.623
 Vibration    24          0.912              1.125              0.530
 Vibration    25          0.925              1.099              0.507
 Vibration    26          0.967              1.014              0.435

 Optimization completed.
    -- Stationary point found.
 Normal termination of Gaussian 16 at Fri Dec 11 13:39:08 2020.

 ----------------------------------------------------------------------
 # B3LYP/6-311++G(d,p) empiricaldispersion=gd3bj scf=xqc pop=npa geom=c
 heck
 ----------------------------------------------------------------------

 --------------------------------------
 CID_20238909_JID_7821_Energie_neutraal
 --------------------------------------
 Structure from the checkpoint file:  "JID_7821.chk"
 Charge =  0 Multiplicity = 1

 SCF Done:  E(RB3LYP) =  -750.355240993     A.U. after   16 cycles
 Normal termination of Gaussian 16 at Fri Dec 11 13:44:23 2020.

 ----------------------------------------------------------------------
 # B3LYP/6-311++G(d,p) empiricaldispersion=gd3bj scf=xqc pop=npa geom=c
 heck
 ----------------------------------------------------------------------

 ------------------------------------
 CID_20238909_JID_7821_Energie_kation
 ------------------------------------
 Structure from the checkpoint file:  "JID_7821.chk"
 Charge =  1 Multiplicity = 2

 SCF Done:  E(UB3LYP) =  -750.061736059     A.U. after   27 cycles
 Normal termination of Gaussian 16 at Fri Dec 11 13:56:36 2020.
 Gaussian 16:  ES64L-G16RevA.03 25-Dec-2016

 ----------------------------------------------------------------------
 # B3LYP/6-311++G(d,p) empiricaldispersion=gd3bj scf=xqc pop=npa geom=c
 heck
 ----------------------------------------------------------------------

 -----------------------------------
 CID_20238909_JID_7821_Energie_anion
 -----------------------------------
 Structure from the checkpoint file:  "JID_7821.chk"
 Charge = -1 Multiplicity = 2

                         Standard orientation:
 ---------------------------------------------------------------------
 Center     Atomic      Atomic             Coordinates (Angstroms)
 Number     Number       Type             X           Y           Z
 ---------------------------------------------------------------------
      1          6           0       -6.601627    0.321460   -0.713462
      2          6           0       -5.368988    1.026566   -0.139874
      3          6           0       -4.676180    0.249548    0.989999
      4          6           0       -4.174520   -1.152156    0.609384
      5          6           0       -3.203579   -1.192931   -0.591144
      6          6           0       -1.987472   -0.333936   -0.402532
      7          6           0       -0.747436   -0.809315   -0.221082
      8          6           0        0.478163   -0.029294   -0.003422
      9          6           0        1.712908   -0.690544   -0.010356
     10          6           0        2.916932   -0.001850    0.169395
     11          6           0        2.892630    1.379496    0.391929
     12          6           0        1.669910    2.049134    0.426163
     13          6           0        0.478868    1.358900    0.226389
     14          6           0        4.159628   -0.825766    0.181924
     15          8           0        4.158832   -2.018438    0.454374
     16          7           0        5.391689   -0.200219   -0.040788
     17          8           0        5.428598    0.823445   -1.022474
     18          1           0       -6.338878   -0.626186   -1.196697
     19          1           0       -7.101545    0.945376   -1.462555
     20          1           0       -7.329676    0.098522    0.076330
     21          1           0       -4.653900    1.224343   -0.949903
     22          1           0       -5.663530    2.011195    0.246073
     23          1           0       -3.833407    0.843922    1.366586
     24          1           0       -5.375463    0.149143    1.831483
     25          1           0       -3.669289   -1.591088    1.478838
     26          1           0       -5.028583   -1.803709    0.384979
     27          1           0       -2.895595   -2.231795   -0.760735
     28          1           0       -3.739240   -0.873561   -1.496364
     29          1           0       -2.155994    0.742260   -0.403910
     30          1           0       -0.602250   -1.889722   -0.245923
     31          1           0        1.754503   -1.765249   -0.156716
     32          1           0        3.811677    1.926631    0.560173
     33          1           0        1.646751    3.118333    0.616508
     34          1           0       -0.461418    1.900155    0.264502
     35          1           0        6.101010   -0.897892   -0.256918
     36          1           0        5.798145    1.584921   -0.545298
 ---------------------------------------------------------------------

 SCF Done:  E(UB3LYP) =  -750.366071693     A.U. after   32 cycles

 The electronic state is 2-A.
 Alpha  occ. eigenvalues --  -19.05491 -18.95407 -14.25122 -10.12692 -10.08275
 Alpha  occ. eigenvalues --  -10.08011 -10.07457 -10.07037 -10.06631 -10.04436
 Alpha  occ. eigenvalues --  -10.04175 -10.04107 -10.03971 -10.03786 -10.03538
 Alpha  occ. eigenvalues --  -10.03004 -10.02515  -0.97314  -0.90017  -0.72757
 Alpha  occ. eigenvalues --   -0.72155  -0.71794  -0.68152  -0.64803  -0.61866
 Alpha  occ. eigenvalues --   -0.61133  -0.57526  -0.53177  -0.50978  -0.48469
 Alpha  occ. eigenvalues --   -0.45935  -0.45309  -0.43329  -0.41612  -0.39145
 Alpha  occ. eigenvalues --   -0.37848  -0.37313  -0.35690  -0.34592  -0.33528
 Alpha  occ. eigenvalues --   -0.33088  -0.32383  -0.30982  -0.30318  -0.29304
 Alpha  occ. eigenvalues --   -0.28617  -0.28180  -0.27466  -0.27282  -0.26052
 Alpha  occ. eigenvalues --   -0.24956  -0.23966  -0.23522  -0.23124  -0.22317
 Alpha  occ. eigenvalues --   -0.21975  -0.20774  -0.20316  -0.16874  -0.15184
 Alpha  occ. eigenvalues --   -0.13091  -0.11973  -0.09699   0.03773
 Alpha virt. eigenvalues --    0.05457   0.07052   0.07465   0.07670   0.08692
 Alpha virt. eigenvalues --    0.09618   0.09687   0.10405   0.10554   0.10766
 Alpha virt. eigenvalues --    0.10976   0.11448   0.12001   0.12820   0.13176

  Beta  occ. eigenvalues --  -19.05438 -18.95145 -14.25108 -10.12499 -10.08273
  Beta  occ. eigenvalues --  -10.07996 -10.07449 -10.07019 -10.06640 -10.04391
  Beta  occ. eigenvalues --  -10.04152 -10.04067 -10.03992 -10.03802 -10.03439
  Beta  occ. eigenvalues --  -10.02727 -10.02170  -0.97171  -0.89559  -0.72500
  Beta  occ. eigenvalues --   -0.72056  -0.71658  -0.68020  -0.64615  -0.61511
  Beta  occ. eigenvalues --   -0.60958  -0.57385  -0.53082  -0.50373  -0.48311
  Beta  occ. eigenvalues --   -0.45848  -0.45167  -0.43230  -0.41453  -0.39055
  Beta  occ. eigenvalues --   -0.37769  -0.37272  -0.35446  -0.34313  -0.33441
  Beta  occ. eigenvalues --   -0.32981  -0.32309  -0.30874  -0.30205  -0.29234
  Beta  occ. eigenvalues --   -0.28349  -0.28074  -0.27340  -0.26352  -0.25997
  Beta  occ. eigenvalues --   -0.24899  -0.23770  -0.23280  -0.22612  -0.22256
  Beta  occ. eigenvalues --   -0.21860  -0.20651  -0.20202  -0.16066  -0.14644
  Beta  occ. eigenvalues --   -0.12688  -0.11130  -0.08538
  Beta virt. eigenvalues --    0.05503   0.07072   0.07399   0.07593   0.08559
  Beta virt. eigenvalues --    0.08944   0.09537   0.10233   0.10343   0.10501
  Beta virt. eigenvalues --    0.10726   0.10978   0.11423   0.11959   0.12794

 Mulliken charges and spin densities:
               1          2
     1  C   -0.177906  -0.434083
     2  C   -0.432942   0.242585
     3  C   -0.143065  -0.083868
     4  C   -0.114555  -0.151896
     5  C   -0.079535   0.062780
     6  C    0.246562   0.090685
     7  C   -0.268225  -0.016399
     8  C    1.300268  -0.071541
     9  C   -0.460825  -0.018954
    10  C    0.880949  -0.087077
    11  C   -0.737830   0.216447
    12  C   -0.902377  -0.062024
    13  C   -0.753717   0.274107
    14  C   -0.286339   0.215326
    15  O   -0.393086   0.092776
    16  N   -0.332537   0.008834
    17  O   -0.129273  -0.000553
    18  H    0.042921   0.110714
    19  H    0.033940   0.091231
    20  H    0.029270   0.098237
    21  H    0.171900  -0.012508
    22  H    0.079051   0.056191
    23  H    0.132554   0.019441
    24  H    0.050309   0.084422
    25  H    0.123953   0.030250
    26  H    0.061361   0.053591
    27  H    0.126056   0.041891
    28  H    0.107046   0.020791
    29  H    0.062873  -0.012655
    30  H    0.096169  -0.014347
    31  H    0.156974   0.001563
    32  H   -0.066502   0.075624
    33  H    0.125441   0.012719
    34  H    0.017513  -0.023642
    35  H    0.275953   0.016153
    36  H    0.157649   0.073191
 Sum of Mulliken charges =  -1.00000   1.00000

 Dipole moment (field-independent basis, Debye):
    X=             -4.6210    Y=              2.3654    Z=             -0.4744  Tot=              5.2128
 Quadrupole moment (field-independent basis, Debye-Ang):
   XX=           -182.5481   YY=           -120.8340   ZZ=           -120.8718
   XY=              9.2028   XZ=             -2.6910   YZ=              2.9827

 Summary of Natural Population Analysis:

                                       Natural Population
                Natural  -----------------------------------------------
    Atom  No    Charge         Core      Valence    Rydberg      Total
 -----------------------------------------------------------------------
      C    1   -0.28751      0.99967     2.28330    0.00454     3.28751
      C    2   -0.19342      0.99964     2.18642    0.00736     3.19342
      C    3   -0.19139      0.99963     2.18401    0.00775     3.19139
      C    4   -0.18528      0.99963     2.17790    0.00776     3.18528
      C    5   -0.20375      0.99962     2.19543    0.00870     3.20375
      C    6   -0.08271      0.99955     2.07446    0.00870     3.08271
      C    7   -0.07619      0.99942     2.06833    0.00844     3.07619
      C    8   -0.04688      0.99951     2.03853    0.00884     3.04688
      C    9   -0.06963      0.99951     2.06286    0.00726     3.06963
      C   10   -0.06377      0.99946     2.05279    0.01152     3.06377
      C   11   -0.03387      0.99954     2.02429    0.01004     3.03387
      C   12   -0.12873      0.99958     2.12080    0.00835     3.12873
      C   13   -0.02087      0.99953     2.01345    0.00788     3.02087
      C   14    0.35559      0.99963     1.62187    0.02291     2.64441
      O   15   -0.29475      0.99988     3.28928    0.00560     4.29475
      N   16   -0.18537      0.99965     2.67079    0.01493     3.68537
      O   17   -0.28063      0.99990     3.27316    0.00757     4.28063
      H   18    0.09712      0.00000     0.40145    0.00143     0.40288
      H   19    0.09573      0.00000     0.40315    0.00112     0.40427
      H   20    0.09336      0.00000     0.40528    0.00135     0.40664
      H   21    0.09589      0.00000     0.40274    0.00137     0.40411
      H   22    0.09282      0.00000     0.40595    0.00123     0.40718
      H   23    0.10171      0.00000     0.39688    0.00142     0.39829
      H   24    0.09190      0.00000     0.40675    0.00135     0.40810
      H   25    0.09787      0.00000     0.40069    0.00144     0.40213
      H   26    0.09023      0.00000     0.40817    0.00160     0.40977
      H   27    0.09628      0.00000     0.40179    0.00193     0.40372
      H   28    0.09345      0.00000     0.40500    0.00155     0.40655
      H   29    0.08697      0.00000     0.41165    0.00138     0.41303
      H   30    0.08742      0.00000     0.41080    0.00177     0.41258
      H   31    0.10390      0.00000     0.39479    0.00130     0.39610
      H   32    0.08712      0.00000     0.41101    0.00187     0.41288
      H   33    0.09035      0.00000     0.40830    0.00134     0.40965
      H   34    0.08767      0.00000     0.41096    0.00137     0.41233
      H   35    0.17390      0.00000     0.32264    0.00346     0.32610
      H   36    0.22551      0.00000     0.27108    0.00341     0.27449
 =======================================================================
   * Total *    0.00000     16.99335    45.81678    0.18987    63.00000

 Normal termination of Gaussian 16 at Fri Dec 11 14:10:34 2020.
