 Gaussian 16, Revision A.03,

 -----------------------------------------------------------
 # opt freq B3LYP/6-31G(d) empiricaldispersion=gd3bj scf=xqc
 -----------------------------------------------------------

 -------------------------------
 CID_116865291_JID_6932_neutraal
 -------------------------------
 Symbolic Z-matrix:
 Charge =  0 Multiplicity = 1

 SCF Done:  E(RB3LYP) =  -1025.13033391     A.U. after   16 cycles
 SCF Done:  E(RB3LYP) =  -1025.13852761     A.U. after   14 cycles
 SCF Done:  E(RB3LYP) =  -1025.13993807     A.U. after   13 cycles
 SCF Done:  E(RB3LYP) =  -1025.14033929     A.U. after   14 cycles
 SCF Done:  E(RB3LYP) =  -1025.14073156     A.U. after   13 cycles
 SCF Done:  E(RB3LYP) =  -1025.14092798     A.U. after   13 cycles
 SCF Done:  E(RB3LYP) =  -1025.14101840     A.U. after   13 cycles
 SCF Done:  E(RB3LYP) =  -1025.14103551     A.U. after   11 cycles
 SCF Done:  E(RB3LYP) =  -1025.14105836     A.U. after   12 cycles
 SCF Done:  E(RB3LYP) =  -1025.14106472     A.U. after   11 cycles
 SCF Done:  E(RB3LYP) =  -1025.14106680     A.U. after   10 cycles
 SCF Done:  E(RB3LYP) =  -1025.14106801     A.U. after   10 cycles
 SCF Done:  E(RB3LYP) =  -1025.14106833     A.U. after    9 cycles
 SCF Done:  E(RB3LYP) =  -1025.14106838     A.U. after    8 cycles
 SCF Done:  E(RB3LYP) =  -1025.14106839     A.U. after    7 cycles
 Optimization completed.
    -- Stationary point found.
 Normal termination of Gaussian 16 at Fri Dec 11 01:13:21 2020.

 --------------------------------------------------------------------
 #N Geom=AllCheck Guess=TCheck SCRF=Check GenChk RB3LYP/6-31G(d) Freq
 --------------------------------------------------------------------

 Structure from the checkpoint file:  "JID_6932.chk"
 -------------------------------
 CID_116865291_JID_6932_neutraal
 -------------------------------
 Charge =  0 Multiplicity = 1

 SCF Done:  E(RB3LYP) =  -1025.14106839     A.U. after    1 cycles

  Exact polarizability: 222.564  16.449 168.832   0.002  -0.004  70.983
 Approx polarizability: 314.496  34.008 319.761   0.004  -0.009 113.205

                      1                      2                      3
                      A                      A                      A
 Frequencies --     17.9933                20.1708                72.7623
 Red. masses --      5.3534                 4.7213                 8.0404
 Frc consts  --      0.0010                 0.0011                 0.0251
 IR Inten    --      1.2412                 4.3699                 2.6194

                      4                      5                      6
                      A                      A                      A
 Frequencies --     86.4628               150.3908               150.7178
 Red. masses --      7.1705                 5.1940                 7.1774
 Frc consts  --      0.0316                 0.0692                 0.0961
 IR Inten    --      0.2651                 0.0145                 1.0187

                      7                      8                      9
                      A                      A                      A
 Frequencies --    209.3866               229.5474               252.2304
 Red. masses --      4.6444                 2.8066                 4.3686
 Frc consts  --      0.1200                 0.0871                 0.1638
 IR Inten    --      2.5939                 3.1210                 0.0942

                     10                     11                     12
                      A                      A                      A
 Frequencies --    275.4747               348.0291               358.7400
 Red. masses --      6.8963                 4.0564                 7.4763
 Frc consts  --      0.3083                 0.2895                 0.5669
 IR Inten    --      2.4689                 2.4137                 4.2805

                     13                     14                     15
                      A                      A                      A
 Frequencies --    395.3723               407.2901               482.5458
 Red. masses --      8.5762                 3.1839                 4.9035
 Frc consts  --      0.7899                 0.3112                 0.6727
 IR Inten    --      1.4026                 1.1812                 2.1555

                     16                     17                     18
                      A                      A                      A
 Frequencies --    487.5180               545.8344               561.1221
 Red. masses --      7.2542                 5.7912                 6.8703
 Frc consts  --      1.0158                 1.0166                 1.2745
 IR Inten    --      1.6410                 0.0076                 3.8651

                     19                     20                     21
                      A                      A                      A
 Frequencies --    619.6996               631.3875               659.4512
 Red. masses --      5.2672                 8.1307                 9.3264
 Frc consts  --      1.1918                 1.9097                 2.3896
 IR Inten    --      1.6703                 3.7804                 0.6764

                     22                     23                     24
                      A                      A                      A
 Frequencies --    701.9598               718.0138               725.2892
 Red. masses --      2.5218                 2.5053                 7.8121
 Frc consts  --      0.7321                 0.7610                 2.4213
 IR Inten    --      0.2237                 1.6128                16.5413

                     25                     26                     27
                      A                      A                      A
 Frequencies --    748.1828               786.9361               832.3945
 Red. masses --      1.5465                 1.1985                 3.0592
 Frc consts  --      0.5100                 0.4373                 1.2488
 IR Inten    --     55.7027                 0.9640                 3.4511

                     28                     29                     30
                      A                      A                      A
 Frequencies --    839.6993               851.8758               869.6679
 Red. masses --      1.7837                 8.7451                 3.1891
 Frc consts  --      0.7410                 3.7391                 1.4211
 IR Inten    --      8.8438                 1.2365                21.7801

                     31                     32                     33
                      A                      A                      A
 Frequencies --    922.8739               935.2961               975.4595
 Red. masses --      5.4960                 1.3948                 1.4403
 Frc consts  --      2.7579                 0.7189                 0.8074
 IR Inten    --      4.9056                 0.2241                 0.7330

                     34                     35                     36
                      A                      A                      A
 Frequencies --    983.8499               992.7734              1011.9512
 Red. masses --      1.1516                 3.4288                 1.3352
 Frc consts  --      0.6568                 1.9911                 0.8056
 IR Inten    --      0.0031                29.9909                 0.8907

                     37                     38                     39
                      A                      A                      A
 Frequencies --   1042.5520              1064.4151              1072.5992
 Red. masses --      4.2739                 2.9167                 3.2047
 Frc consts  --      2.7370                 1.9470                 2.1723
 IR Inten    --     14.9524                82.5416                 0.8655

                     40                     41                     42
                      A                      A                      A
 Frequencies --   1083.0889              1102.2444              1102.2531
 Red. masses --      1.2889                 1.8597                 1.3437
 Frc consts  --      0.8908                 1.3312                 0.9619
 IR Inten    --      1.2134                 1.5338                 3.9500

                     43                     44                     45
                      A                      A                      A
 Frequencies --   1150.2751              1212.7379              1224.0737
 Red. masses --      1.4446                 1.3222                 1.6078
 Frc consts  --      1.1262                 1.1458                 1.4194
 IR Inten    --      5.9334                 0.0737                 9.8735

                     46                     47                     48
                      A                      A                      A
 Frequencies --   1259.1120              1295.5424              1313.5945
 Red. masses --      1.6361                 4.0329                 5.9528
 Frc consts  --      1.5282                 3.9882                 6.0519
 IR Inten    --      2.0917                 4.6323                 1.5580

                     49                     50                     51
                      A                      A                      A
 Frequencies --   1333.1648              1347.1852              1389.9979
 Red. masses --      4.2280                 4.5742                 1.3856
 Frc consts  --      4.4274                 4.8913                 1.5773
 IR Inten    --     19.9581                10.7410                 3.2999

                     52                     53                     54
                      A                      A                      A
 Frequencies --   1475.0958              1494.5408              1508.1083
 Red. masses --      2.6096                 1.0841                 2.4496
 Frc consts  --      3.3456                 1.4267                 3.2826
 IR Inten    --     12.4308                 6.3524                19.7633

                     55                     56                     57
                      A                      A                      A
 Frequencies --   1525.3340              1569.3811              1581.4426
 Red. masses --      1.2600                 5.0179                10.4833
 Frc consts  --      1.7272                 7.2817                15.4473
 IR Inten    --      4.0950                 4.2256                85.0952

                     58                     59                     60
                      A                      A                      A
 Frequencies --   1628.4015              1652.6056              2372.2986
 Red. masses --      5.5475                 5.5337                12.6630
 Frc consts  --      8.6670                 8.9044                41.9879
 IR Inten    --      7.6092                 1.3471                14.5247

                     61                     62                     63
                      A                      A                      A
 Frequencies --   3164.9269              3165.8948              3166.9124
 Red. masses --      1.0505                 1.0888                 1.0594
 Frc consts  --      6.1998                 6.4298                 6.2599
 IR Inten    --      4.7289                26.9224                 1.0282

                     64                     65                     66
                      A                      A                      A
 Frequencies --   3178.6690              3210.0468              3232.9720
 Red. masses --      1.0896                 1.0924                 1.0941
 Frc consts  --      6.4862                 6.6322                 6.7374
 IR Inten    --     17.6768                21.2460                 2.6000

                     67                     68                     69
                      A                      A                      A
 Frequencies --   3248.4179              3261.5065              3285.9065
 Red. masses --      1.1213                 1.1175                 1.0941
 Frc consts  --      6.9714                 7.0037                 6.9603
 IR Inten    --      0.0210                 3.1041                 2.5896

 - Thermochemistry -
 -------------------
 Temperature   298.150 Kelvin.  Pressure   1.00000 Atm.
 Atom     1 has atomic number  6 and mass  12.00000

 Molecular mass:   227.05172 amu.
 Principal axes and moments of inertia in atomic units:
                           1         2         3
     Eigenvalues --  1742.467586601.250798202.26382
           X            0.99996   0.00906   0.00000
           Y           -0.00906   0.99996  -0.00001
           Z           -0.00000   0.00001   1.00000
 This molecule is an asymmetric top.
 Rotational symmetry number  1.
 Warning -- assumption of classical behavior for rotation
           may cause significant error
 Rotational temperatures (Kelvin)      0.04971     0.01312     0.01056
 Rotational constants (GHZ):           1.03574     0.27339     0.22003
 Zero-point vibrational energy     487918.8 (Joules/Mol)
                                  116.61538 (Kcal/Mol)
 Warning -- explicit consideration of  19 degrees of freedom as
           vibrations may cause significant error
 Vibrational temperatures:     25.89    29.02   104.69   124.40   216.38
          (Kelvin)            216.85   301.26   330.27   362.90   396.35
                              500.74   516.15   568.85   586.00   694.28
                              701.43   785.33   807.33   891.61   908.43
                              948.80  1009.96  1033.06  1043.53  1076.47
                             1132.23  1197.63  1208.14  1225.66  1251.26
                             1327.81  1345.68  1403.47  1415.54  1428.38
                             1455.97  1500.00  1531.46  1543.23  1558.32
                             1585.88  1585.90  1654.99  1744.86  1761.17
                             1811.58  1864.00  1889.97  1918.13  1938.30
                             1999.90  2122.33  2150.31  2169.83  2194.62
                             2257.99  2275.34  2342.91  2377.73  3413.21
                             4553.62  4555.02  4556.48  4573.40  4618.54
                             4651.53  4673.75  4692.58  4727.69

 Zero-point correction=                           0.185838 (Hartree/Particle)
 Thermal correction to Energy=                    0.199224
 Thermal correction to Enthalpy=                  0.200168
 Thermal correction to Gibbs Free Energy=         0.143067
 Sum of electronic and zero-point Energies=          -1024.955230
 Sum of electronic and thermal Energies=             -1024.941845
 Sum of electronic and thermal Enthalpies=           -1024.940900
 Sum of electronic and thermal Free Energies=        -1024.998001

                     E (Thermal)             CV                S
                      KCal/Mol        Cal/Mol-Kelvin    Cal/Mol-Kelvin
 Total                  125.015             50.880            120.179
 Electronic               0.000              0.000              0.000
 Translational            0.889              2.981             42.162
 Rotational               0.889              2.981             32.911
 Vibrational            123.237             44.918             45.105
 Vibration     1          0.593              1.986              6.844
 Vibration     2          0.593              1.986              6.617
 Vibration     3          0.599              1.967              4.077
 Vibration     4          0.601              1.959              3.739
 Vibration     5          0.618              1.902              2.667
 Vibration     6          0.618              1.902              2.663
 Vibration     7          0.642              1.826              2.049
 Vibration     8          0.652              1.796              1.882
 Vibration     9          0.664              1.759              1.715
 Vibration    10          0.677              1.719              1.562
 Vibration    11          0.726              1.579              1.175
 Vibration    12          0.734              1.557              1.128
 Vibration    13          0.762              1.480              0.980
 Vibration    14          0.772              1.454              0.936
 Vibration    15          0.839              1.289              0.703
 Vibration    16          0.843              1.278              0.690
 Vibration    17          0.901              1.149              0.553
 Vibration    18          0.917              1.115              0.522
 Vibration    19          0.980              0.990              0.417

 Optimization completed.
    -- Stationary point found.
 Normal termination of Gaussian 16 at Fri Dec 11 01:20:35 2020.

 ----------------------------------------------------------------------
 # B3LYP/6-311++G(d,p) empiricaldispersion=gd3bj scf=xqc pop=npa geom=c
 heck
 ----------------------------------------------------------------------

 ---------------------------------------
 CID_116865291_JID_6932_Energie_neutraal
 ---------------------------------------
 Structure from the checkpoint file:  "JID_6932.chk"
 Charge =  0 Multiplicity = 1

 SCF Done:  E(RB3LYP) =  -1025.32581981     A.U. after   16 cycles
 Normal termination of Gaussian 16 at Fri Dec 11 01:23:29 2020.

 ----------------------------------------------------------------------
 # B3LYP/6-311++G(d,p) empiricaldispersion=gd3bj scf=xqc pop=npa geom=c
 heck
 ----------------------------------------------------------------------

 -------------------------------------
 CID_116865291_JID_6932_Energie_kation
 -------------------------------------
 Structure from the checkpoint file:  "JID_6932.chk"
 Charge =  1 Multiplicity = 2

 SCF Done:  E(UB3LYP) =  -1025.02488955     A.U. after   24 cycles
 Normal termination of Gaussian 16 at Fri Dec 11 01:29:36 2020.
 Gaussian 16:  ES64L-G16RevA.03 25-Dec-2016

 ----------------------------------------------------------------------
 # B3LYP/6-311++G(d,p) empiricaldispersion=gd3bj scf=xqc pop=npa geom=c
 heck
 ----------------------------------------------------------------------

 ------------------------------------
 CID_116865291_JID_6932_Energie_anion
 ------------------------------------
 Structure from the checkpoint file:  "JID_6932.chk"
 Charge = -1 Multiplicity = 2

                         Standard orientation:
 ---------------------------------------------------------------------
 Center     Atomic      Atomic             Coordinates (Angstroms)
 Number     Number       Type             X           Y           Z
 ---------------------------------------------------------------------
      1          6           0       -3.984261   -0.056205    0.744444
      2          6           0       -3.984060   -0.055973   -0.744947
      3          6           0       -2.763898    0.501546    0.000010
      4          6           0       -2.604916    1.938111    0.000253
      5          7           0       -2.531226    3.096628    0.000430
      6          6           0       -1.486645   -0.257078    0.000021
      7          7           0       -0.320437    0.307211   -0.000017
      8          6           0        0.711838   -0.617839    0.000003
      9          6           0        0.295642   -1.924950    0.000008
     10         16           0       -1.435214   -2.022325    0.000049
     11          6           0        2.096706   -0.125198   -0.000009
     12          6           0        3.201093   -0.991826    0.000199
     13          7           0        4.472389   -0.589140    0.000177
     14          6           0        4.700126    0.731562   -0.000049
     15          6           0        3.681602    1.684542   -0.000248
     16          6           0        2.360019    1.251555   -0.000228
     17          1           0       -3.827851   -0.991879    1.272363
     18          1           0       -4.602102    0.667173    1.265827
     19          1           0       -4.601762    0.667556   -1.266287
     20          1           0       -3.827482   -0.991483   -1.273106
     21          1           0        0.889971   -2.826698   -0.000007
     22          1           0        3.052011   -2.070419    0.000407
     23          1           0        5.744799    1.036297   -0.000066
     24          1           0        3.920229    2.743597   -0.000419
     25          1           0        1.531051    1.950687   -0.000368
 ---------------------------------------------------------------------

 SCF Done:  E(UB3LYP) =  -1025.33802369     A.U. after   29 cycles

 The electronic state is 2-A.
 Alpha  occ. eigenvalues --  -88.73619 -14.20752 -14.17588 -14.17554 -10.13488
 Alpha  occ. eigenvalues --  -10.11022 -10.10139 -10.10109 -10.09895 -10.06047
 Alpha  occ. eigenvalues --  -10.06005 -10.05763 -10.04585 -10.04394 -10.04384
 Alpha  occ. eigenvalues --  -10.03649  -7.82296  -5.78594  -5.78238  -5.77910
 Alpha  occ. eigenvalues --   -0.83496  -0.80956  -0.80410  -0.78285  -0.67579
 Alpha  occ. eigenvalues --   -0.65884  -0.64083  -0.60746  -0.56331  -0.53095
 Alpha  occ. eigenvalues --   -0.50272  -0.49554  -0.46109  -0.44425  -0.41179
 Alpha  occ. eigenvalues --   -0.38860  -0.38081  -0.35129  -0.34102  -0.31772
 Alpha  occ. eigenvalues --   -0.30508  -0.29866  -0.29760  -0.28156  -0.27292
 Alpha  occ. eigenvalues --   -0.26883  -0.26509  -0.25388  -0.24966  -0.24836
 Alpha  occ. eigenvalues --   -0.22164  -0.21579  -0.20359  -0.16778  -0.14816
 Alpha  occ. eigenvalues --   -0.14465  -0.14384  -0.12647  -0.09026   0.04354
 Alpha virt. eigenvalues --    0.07274   0.09036   0.09036   0.09238   0.09729
 Alpha virt. eigenvalues --    0.10274   0.10899   0.11158   0.11936   0.12065
 Alpha virt. eigenvalues --    0.12524   0.12808   0.13367   0.13863   0.14664

  Beta  occ. eigenvalues --  -88.73551 -14.20756 -14.17635 -14.17629 -10.13519
  Beta  occ. eigenvalues --  -10.11018 -10.10091 -10.10061 -10.09620 -10.05861
  Beta  occ. eigenvalues --  -10.05851 -10.05721 -10.04576 -10.04348 -10.04277
  Beta  occ. eigenvalues --  -10.03103  -7.82235  -5.78568  -5.78214  -5.77673
  Beta  occ. eigenvalues --   -0.83309  -0.80895  -0.80309  -0.78230  -0.67354
  Beta  occ. eigenvalues --   -0.65380  -0.63779  -0.60471  -0.56038  -0.52976
  Beta  occ. eigenvalues --   -0.49863  -0.49408  -0.45806  -0.44018  -0.41055
  Beta  occ. eigenvalues --   -0.38686  -0.37919  -0.34949  -0.33928  -0.31642
  Beta  occ. eigenvalues --   -0.29997  -0.29788  -0.29611  -0.27942  -0.26861
  Beta  occ. eigenvalues --   -0.26762  -0.26451  -0.24869  -0.24802  -0.24647
  Beta  occ. eigenvalues --   -0.22026  -0.21334  -0.20032  -0.15964  -0.14424
  Beta  occ. eigenvalues --   -0.14115  -0.13278  -0.12677  -0.07109
  Beta virt. eigenvalues --    0.07236   0.09013   0.09089   0.09215   0.09775
  Beta virt. eigenvalues --    0.10185   0.10259   0.11140   0.11873   0.12085
  Beta virt. eigenvalues --    0.12103   0.12548   0.12802   0.13807   0.13946

 Mulliken charges and spin densities:
               1          2
     1  C   -0.379321   0.025738
     2  C   -0.379354   0.025739
     3  C    1.928813  -0.042004
     4  C   -0.823436  -0.002099
     5  N   -0.257451  -0.001910
     6  C   -0.323481   0.197338
     7  N    0.277184  -0.026225
     8  C   -0.993505  -0.016525
     9  C    0.194125   0.433077
    10  S   -0.717081   0.112098
    11  C    0.225514   0.050583
    12  C   -0.632974   0.143592
    13  N   -0.031485  -0.043353
    14  C   -0.340162   0.136081
    15  C   -0.514310   0.031668
    16  C    0.248609   0.026197
    17  H    0.156631   0.001320
    18  H    0.169584  -0.000120
    19  H    0.169565  -0.000115
    20  H    0.156636   0.001315
    21  H    0.248350  -0.026391
    22  H    0.133327  -0.013459
    23  H    0.128979  -0.010807
    24  H    0.133759  -0.003246
    25  H    0.221484   0.001509
 Sum of Mulliken charges =  -1.00000   1.00000

 Dipole moment (field-independent basis, Debye):
    X=             -5.8314    Y=             -1.3832    Z=             -0.0010  Tot=              5.9932
 Quadrupole moment (field-independent basis, Debye-Ang):
   XX=           -146.6403   YY=           -127.5549   ZZ=           -108.7243
   XY=             12.1472   XZ=              0.0003   YZ=             -0.0028

 Summary of Natural Population Analysis:

                                       Natural Population
                Natural  -----------------------------------------------
    Atom  No    Charge         Core      Valence    Rydberg      Total
 -----------------------------------------------------------------------
      C    1   -0.17142      0.99962     2.16538    0.00642     3.17142
      C    2   -0.17141      0.99962     2.16537    0.00642     3.17141
      C    3   -0.11510      0.99942     2.10220    0.01347     3.11510
      C    4    0.17781      0.99962     1.80335    0.01922     2.82219
      N    5   -0.18947      0.99979     2.67844    0.01124     3.68947
      C    6    0.07469      0.99956     1.90574    0.02002     2.92531
      N    7   -0.25055      0.99963     2.73934    0.01158     3.75055
      C    8    0.04718      0.99947     1.94034    0.01301     2.95282
      C    9   -0.08741      0.99949     2.07903    0.00889     3.08741
      S   10    0.17716      4.99946     2.80356    0.01983     7.82284
      C   11   -0.03043      0.99949     2.02155    0.00939     3.03043
      C   12    0.06409      0.99948     1.92177    0.01466     2.93591
      N   13   -0.25221      0.99971     2.74051    0.01200     3.75221
      C   14    0.01955      0.99966     1.95846    0.02233     2.98045
      C   15   -0.08042      0.99945     2.07385    0.00713     3.08042
      C   16   -0.09688      0.99959     2.08089    0.01641     3.09688
      H   17    0.11035      0.00000     0.38833    0.00132     0.38965
      H   18    0.10364      0.00000     0.39535    0.00101     0.39636
      H   19    0.10363      0.00000     0.39535    0.00101     0.39637
      H   20    0.11035      0.00000     0.38833    0.00132     0.38965
      H   21    0.09996      0.00000     0.39898    0.00105     0.40004
      H   22    0.08194      0.00000     0.41619    0.00187     0.41806
      H   23    0.07721      0.00000     0.42129    0.00149     0.42279
      H   24    0.08874      0.00000     0.40988    0.00139     0.41126
      H   25    0.10983      0.00000     0.38899    0.00118     0.39017
 =======================================================================
   * Total *    0.00082     19.99305    38.78247    0.22366    58.99918

 Normal termination of Gaussian 16 at Fri Dec 11 01:36:49 2020.
