 Gaussian 16, Revision A.03,

 -----------------------------------------------------------
 # opt freq B3LYP/6-31G(d) empiricaldispersion=gd3bj scf=xqc
 -----------------------------------------------------------

 ------------------------------
 CID_56833919_JID_4902_neutraal
 ------------------------------
 Symbolic Z-matrix:
 Charge =  0 Multiplicity = 1

 SCF Done:  E(RB3LYP) =  -633.328251079     A.U. after   15 cycles
 SCF Done:  E(RB3LYP) =  -633.332857356     A.U. after   15 cycles
 SCF Done:  E(RB3LYP) =  -633.330972248     A.U. after   13 cycles
 SCF Done:  E(RB3LYP) =  -633.334730494     A.U. after   12 cycles
 SCF Done:  E(RB3LYP) =  -633.333673109     A.U. after   13 cycles
 SCF Done:  E(RB3LYP) =  -633.335284945     A.U. after   13 cycles
 SCF Done:  E(RB3LYP) =  -633.335926356     A.U. after   12 cycles
 SCF Done:  E(RB3LYP) =  -633.335317613     A.U. after   12 cycles
 SCF Done:  E(RB3LYP) =  -633.336168400     A.U. after   12 cycles
 SCF Done:  E(RB3LYP) =  -633.336321213     A.U. after   12 cycles
 SCF Done:  E(RB3LYP) =  -633.336466094     A.U. after   10 cycles
 SCF Done:  E(RB3LYP) =  -633.336468695     A.U. after   10 cycles
 SCF Done:  E(RB3LYP) =  -633.336468956     A.U. after    8 cycles
 SCF Done:  E(RB3LYP) =  -633.336468997     A.U. after    7 cycles
 SCF Done:  E(RB3LYP) =  -633.336469005     A.U. after    6 cycles
 Optimization completed.
    -- Stationary point found.
 Normal termination of Gaussian 16 at Thu Dec 10 11:01:59 2020.

 --------------------------------------------------------------------
 #N Geom=AllCheck Guess=TCheck SCRF=Check GenChk RB3LYP/6-31G(d) Freq
 --------------------------------------------------------------------

 Structure from the checkpoint file:  "JID_4902.chk"
 ------------------------------
 CID_56833919_JID_4902_neutraal
 ------------------------------
 Charge =  0 Multiplicity = 1

 SCF Done:  E(RB3LYP) =  -633.336469005     A.U. after    1 cycles

  Exact polarizability: 160.111  17.346 149.532  -5.103   5.499  73.996
 Approx polarizability: 200.493  26.206 236.218  -9.209  16.123 113.901

                      1                      2                      3
                      A                      A                      A
 Frequencies --     22.4867                31.6934                42.8585
 Red. masses --      3.5981                 4.1578                 3.7040
 Frc consts  --      0.0011                 0.0025                 0.0040
 IR Inten    --      0.4840                 0.4217                 1.2363

                      4                      5                      6
                      A                      A                      A
 Frequencies --     47.4321                82.1760                98.9917
 Red. masses --      3.0736                 4.4825                 2.8638
 Frc consts  --      0.0041                 0.0178                 0.0165
 IR Inten    --      0.8277                 0.4546                 0.6405

                      7                      8                      9
                      A                      A                      A
 Frequencies --    112.0639               155.6447               184.3697
 Red. masses --      3.0061                 2.1028                 1.6358
 Frc consts  --      0.0222                 0.0300                 0.0328
 IR Inten    --      0.6126                 0.0983                 0.4435

                     10                     11                     12
                      A                      A                      A
 Frequencies --    192.2018               221.2903               234.4850
 Red. masses --      2.5278                 2.6170                 1.9867
 Frc consts  --      0.0550                 0.0755                 0.0644
 IR Inten    --      0.9745                 1.4636                 1.4464

                     13                     14                     15
                      A                      A                      A
 Frequencies --    282.8710               290.4364               322.7169
 Red. masses --      3.4873                 5.7975                 3.3229
 Frc consts  --      0.1644                 0.2881                 0.2039
 IR Inten    --      3.3659                 1.9098                 0.4654

                     16                     17                     18
                      A                      A                      A
 Frequencies --    350.4096               387.6796               419.1288
 Red. masses --      2.3879                 2.9550                 2.8086
 Frc consts  --      0.1728                 0.2617                 0.2907
 IR Inten    --      5.1562                 4.4997                 1.6571

                     19                     20                     21
                      A                      A                      A
 Frequencies --    465.6852               477.2677               549.1279
 Red. masses --      2.7870                 2.4973                 3.9148
 Frc consts  --      0.3561                 0.3352                 0.6955
 IR Inten    --     15.5980                 5.2757                 0.7034

                     22                     23                     24
                      A                      A                      A
 Frequencies --    569.9943               602.4215               628.3027
 Red. masses --      4.9703                 1.1989                 1.7021
 Frc consts  --      0.9514                 0.2564                 0.3959
 IR Inten    --      3.8840                47.2344                20.1953

                     25                     26                     27
                      A                      A                      A
 Frequencies --    644.5895               704.7482               737.0140
 Red. masses --      2.0470                 3.0660                 3.4190
 Frc consts  --      0.5011                 0.8972                 1.0942
 IR Inten    --     24.8769                 3.5165                 7.5338

                     28                     29                     30
                      A                      A                      A
 Frequencies --    772.1979               819.4697               833.3253
 Red. masses --      1.2826                 1.4857                 4.4414
 Frc consts  --      0.4506                 0.5878                 1.8172
 IR Inten    --      2.2561                79.7284                 9.9852

                     31                     32                     33
                      A                      A                      A
 Frequencies --    868.1661               888.6460               911.3312
 Red. masses --      2.6763                 1.7736                 1.3500
 Frc consts  --      1.1885                 0.8252                 0.6606
 IR Inten    --      8.0642                15.3257                52.3313

                     34                     35                     36
                      A                      A                      A
 Frequencies --    924.5460               930.4243               971.1141
 Red. masses --      2.0833                 3.5624                 2.3467
 Frc consts  --      1.0492                 1.8170                 1.3039
 IR Inten    --      6.2531                20.3759                 5.7636

                     37                     38                     39
                      A                      A                      A
 Frequencies --    990.0955               997.0022              1017.1235
 Red. masses --      1.3593                 2.0315                 1.2931
 Frc consts  --      0.7851                 1.1898                 0.7882
 IR Inten    --      1.3611                 5.6523                 8.5230

                     40                     41                     42
                      A                      A                      A
 Frequencies --   1034.8676              1104.1679              1116.8706
 Red. masses --      2.9262                 1.6173                 1.7130
 Frc consts  --      1.8464                 1.1617                 1.2590
 IR Inten    --     66.3549                56.3899                 6.4615

                     43                     44                     45
                      A                      A                      A
 Frequencies --   1120.8771              1138.3634              1208.5701
 Red. masses --      1.8599                 4.9026                 2.9682
 Frc consts  --      1.3767                 3.7432                 2.5544
 IR Inten    --     19.8922                52.1460                47.6151

                     46                     47                     48
                      A                      A                      A
 Frequencies --   1238.7133              1282.0082              1312.0734
 Red. masses --      1.1799                 3.2516                 1.9223
 Frc consts  --      1.0667                 3.1487                 1.9498
 IR Inten    --     27.6559               649.3264                22.7896

                     49                     50                     51
                      A                      A                      A
 Frequencies --   1331.5998              1377.3889              1388.7522
 Red. masses --      1.4702                 1.2819                 1.5365
 Frc consts  --      1.5360                 1.4329                 1.7460
 IR Inten    --      3.8916                11.5356                13.6241

                     52                     53                     54
                      A                      A                      A
 Frequencies --   1406.8009              1436.9676              1449.1116
 Red. masses --      1.3790                 1.2940                 1.2234
 Frc consts  --      1.6080                 1.5742                 1.5136
 IR Inten    --     11.3637                13.0516                14.1082

                     55                     56                     57
                      A                      A                      A
 Frequencies --   1450.1865              1492.6381              1504.5938
 Red. masses --      1.2099                 1.0713                 1.0514
 Frc consts  --      1.4991                 1.4063                 1.4024
 IR Inten    --     13.9171                 3.0528                11.5803

                     58                     59                     60
                      A                      A                      A
 Frequencies --   1511.3040              1513.0034              1515.6168
 Red. masses --      1.0664                 1.1796                 1.0798
 Frc consts  --      1.4350                 1.5910                 1.4614
 IR Inten    --      2.0791                25.5190                15.4669

                     61                     62                     63
                      A                      A                      A
 Frequencies --   1528.9397              1535.8057              1707.5170
 Red. masses --      1.0872                 1.0664                 6.4250
 Frc consts  --      1.4974                 1.4820                11.0371
 IR Inten    --      7.5420                 9.5732                63.3673

                     64                     65                     66
                      A                      A                      A
 Frequencies --   1729.3152              1798.7290              2230.0669
 Red. masses --      5.8265                11.2618                 5.9362
 Frc consts  --     10.2661                21.4679                17.3937
 IR Inten    --     30.3930               320.3763                 0.1303

                     67                     68                     69
                      A                      A                      A
 Frequencies --   3017.3500              3033.4604              3039.9877
 Red. masses --      1.0617                 1.0394                 1.0437
 Frc consts  --      5.6950                 5.6352                 5.6831
 IR Inten    --     33.2062                 9.1705                26.6815

                     70                     71                     72
                      A                      A                      A
 Frequencies --   3046.0728              3064.7441              3082.1019
 Red. masses --      1.0598                 1.1001                 1.0993
 Frc consts  --      5.7937                 6.0881                 6.1527
 IR Inten    --     23.9569                24.6544                14.4064

                     73                     74                     75
                      A                      A                      A
 Frequencies --   3084.0610              3093.6110              3137.2224
 Red. masses --      1.1032                 1.0949                 1.1002
 Frc consts  --      6.1821                 6.1739                 6.3801
 IR Inten    --     13.7111                33.9616                20.4388

                     76                     77                     78
                      A                      A                      A
 Frequencies --   3166.3231              3197.5213              3197.7268
 Red. masses --      1.0991                 1.0693                 1.0861
 Frc consts  --      6.4926                 6.4416                 6.5433
 IR Inten    --      9.0084                16.4266                 3.9681

                     79                     80                     81
                      A                      A                      A
 Frequencies --   3327.0934              3484.9111              3493.6149
 Red. masses --      1.1102                 1.0741                 1.1600
 Frc consts  --      7.2409                 7.6858                 8.3417
 IR Inten    --      2.6959                 0.3832                55.8031

 - Thermochemistry -
 -------------------
 Temperature   298.150 Kelvin.  Pressure   1.00000 Atm.
 Atom     1 has atomic number  6 and mass  12.00000

 Molecular mass:   193.11028 amu.
 Principal axes and moments of inertia in atomic units:
                           1         2         3
     Eigenvalues --  1703.205735112.827396626.78635
           X            0.99953   0.03065  -0.00044
           Y           -0.03065   0.99953   0.00068
           Z            0.00046  -0.00066   1.00000
 This molecule is an asymmetric top.
 Rotational symmetry number  1.
 Warning -- assumption of classical behavior for rotation
           may cause significant error
 Rotational temperatures (Kelvin)      0.05085     0.01694     0.01307
 Rotational constants (GHZ):           1.05961     0.35298     0.27234
 Zero-point vibrational energy     632299.2 (Joules/Mol)
                                  151.12315 (Kcal/Mol)
 Warning -- explicit consideration of  23 degrees of freedom as
           vibrations may cause significant error
 Vibrational temperatures:     32.35    45.60    61.66    68.24   118.23
          (Kelvin)            142.43   161.23   223.94   265.27   276.54
                              318.39   337.37   406.99   417.87   464.32
                              504.16   557.78   603.03   670.02   686.68
                              790.07   820.09   866.75   903.99   927.42
                             1013.98  1060.40  1111.02  1179.03  1198.97
                             1249.10  1278.56  1311.20  1330.22  1338.67
                             1397.22  1424.53  1434.46  1463.41  1488.94
                             1588.65  1606.93  1612.69  1637.85  1738.86
                             1782.23  1844.52  1887.78  1915.88  1981.76
                             1998.10  2024.07  2067.48  2084.95  2086.49
                             2147.57  2164.77  2174.43  2176.87  2180.63
                             2199.80  2209.68  2456.74  2488.10  2587.97
                             3208.57  4341.29  4364.47  4373.86  4382.62
                             4409.48  4434.46  4437.28  4451.02  4513.76
                             4555.63  4600.52  4600.82  4786.95  5014.01
                             5026.53

 Zero-point correction=                           0.240830 (Hartree/Particle)
 Thermal correction to Energy=                    0.256831
 Thermal correction to Enthalpy=                  0.257775
 Thermal correction to Gibbs Free Energy=         0.195202
 Sum of electronic and zero-point Energies=           -633.095639
 Sum of electronic and thermal Energies=              -633.079638
 Sum of electronic and thermal Enthalpies=            -633.078694
 Sum of electronic and thermal Free Energies=         -633.141267

                     E (Thermal)             CV                S
                      KCal/Mol        Cal/Mol-Kelvin    Cal/Mol-Kelvin
 Total                  161.164             57.184            131.697
 Electronic               0.000              0.000              0.000
 Translational            0.889              2.981             41.680
 Rotational               0.889              2.981             32.423
 Vibrational            159.386             51.222             57.594
 Vibration     1          0.593              1.985              6.402
 Vibration     2          0.594              1.983              5.721
 Vibration     3          0.595              1.980              5.122
 Vibration     4          0.595              1.979              4.922
 Vibration     5          0.600              1.961              3.838
 Vibration     6          0.604              1.950              3.474
 Vibration     7          0.607              1.939              3.233
 Vibration     8          0.620              1.896              2.602
 Vibration     9          0.631              1.861              2.284
 Vibration    10          0.634              1.851              2.206
 Vibration    11          0.648              1.809              1.949
 Vibration    12          0.654              1.788              1.844
 Vibration    13          0.682              1.705              1.516
 Vibration    14          0.686              1.692              1.471
 Vibration    15          0.708              1.630              1.296
 Vibration    16          0.727              1.574              1.164
 Vibration    17          0.756              1.496              1.009
 Vibration    18          0.782              1.429              0.895
 Vibration    19          0.823              1.326              0.750
 Vibration    20          0.834              1.300              0.717
 Vibration    21          0.904              1.142              0.546
 Vibration    22          0.926              1.096              0.504
 Vibration    23          0.961              1.027              0.446

                           ! Non-Optimized Parameters !
 Normal termination of Gaussian 16 at Thu Dec 10 11:09:47 2020.

 ----------------------------------------------------------------------
 # B3LYP/6-311++G(d,p) empiricaldispersion=gd3bj scf=xqc pop=npa geom=c
 heck
 ----------------------------------------------------------------------

 --------------------------------------
 CID_56833919_JID_4902_Energie_neutraal
 --------------------------------------
 Structure from the checkpoint file:  "JID_4902.chk"
 Charge =  0 Multiplicity = 1

 SCF Done:  E(RB3LYP) =  -633.524345479     A.U. after   15 cycles
 Normal termination of Gaussian 16 at Thu Dec 10 11:13:42 2020.

 ----------------------------------------------------------------------
 # B3LYP/6-311++G(d,p) empiricaldispersion=gd3bj scf=xqc pop=npa geom=c
 heck
 ----------------------------------------------------------------------

 ------------------------------------
 CID_56833919_JID_4902_Energie_kation
 ------------------------------------
 Structure from the checkpoint file:  "JID_4902.chk"
 Charge =  1 Multiplicity = 2

 SCF Done:  E(UB3LYP) =  -633.212381511     A.U. after   26 cycles
 Normal termination of Gaussian 16 at Thu Dec 10 11:23:05 2020.
 Gaussian 16:  ES64L-G16RevA.03 25-Dec-2016

 ----------------------------------------------------------------------
 # B3LYP/6-311++G(d,p) empiricaldispersion=gd3bj scf=xqc pop=npa geom=c
 heck
 ----------------------------------------------------------------------

 -----------------------------------
 CID_56833919_JID_4902_Energie_anion
 -----------------------------------
 Structure from the checkpoint file:  "JID_4902.chk"
 Charge = -1 Multiplicity = 2

                         Standard orientation:
 ---------------------------------------------------------------------
 Center     Atomic      Atomic             Coordinates (Angstroms)
 Number     Number       Type             X           Y           Z
 ---------------------------------------------------------------------
      1          6           0       -4.091345   -1.936130    0.020551
      2          6           0       -2.827813   -1.116029   -0.023191
      3          6           0       -2.914501    0.222840    0.117141
      4          6           0       -1.850213    1.238546    0.117636
      5          8           0       -2.022979    2.382835    0.483515
      6          8           0       -0.663154    0.752299   -0.361423
      7          6           0        0.543939    1.433450   -0.319918
      8          6           0        0.730923    2.733819   -0.084196
      9          6           0        1.657898    0.460678   -0.588336
     10          7           0        1.741075   -0.534534    0.487297
     11          6           0        2.772015   -1.550474    0.258147
     12          6           0        4.144342   -1.029318    0.134142
     13          6           0        5.246469   -0.542189    0.046687
     14          6           0       -1.568022   -1.916905   -0.237059
     15          1           0       -4.988200   -1.318131    0.115848
     16          1           0       -4.061813   -2.640909    0.862279
     17          1           0       -4.182241   -2.544460   -0.889522
     18          1           0       -3.888502    0.669804    0.294510
     19          1           0        1.748585    3.110330   -0.089495
     20          1           0       -0.078723    3.418358    0.112769
     21          1           0        1.448908   -0.083879   -1.518682
     22          1           0        2.594822    1.018147   -0.736022
     23          1           0        1.942317   -0.047840    1.360208
     24          1           0        2.725492   -2.272320    1.082347
     25          1           0        2.503964   -2.100542   -0.653256
     26          1           0        6.226453   -0.129106   -0.031439
     27          1           0       -1.703940   -2.935420    0.143948
     28          1           0       -1.362315   -2.002682   -1.313192
     29          1           0       -0.685428   -1.470417    0.222247
 ---------------------------------------------------------------------

 SCF Done:  E(UB3LYP) =  -633.520292988     A.U. after   33 cycles
 SCF Done:  E(UB3LYP) =  -633.520292988     a.u. after    1 cycles

 The electronic state is 2-A.
 Alpha  occ. eigenvalues --  -19.04186 -18.95673 -14.21270 -10.14768 -10.13083
 Alpha  occ. eigenvalues --  -10.12177 -10.09786 -10.08456 -10.07505 -10.05803
 Alpha  occ. eigenvalues --  -10.05127 -10.04152 -10.03959 -10.03127  -0.97500
 Alpha  occ. eigenvalues --   -0.88475  -0.82245  -0.69849  -0.68570  -0.66220
 Alpha  occ. eigenvalues --   -0.60784  -0.59051  -0.57615  -0.55713  -0.51801
 Alpha  occ. eigenvalues --   -0.44925  -0.44119  -0.41772  -0.38774  -0.38119
 Alpha  occ. eigenvalues --   -0.37161  -0.35492  -0.34391  -0.33219  -0.32848
 Alpha  occ. eigenvalues --   -0.31830  -0.31535  -0.30839  -0.29163  -0.27359
 Alpha  occ. eigenvalues --   -0.27289  -0.26494  -0.25585  -0.23910  -0.22188
 Alpha  occ. eigenvalues --   -0.21281  -0.19480  -0.18656  -0.14709  -0.14188
 Alpha  occ. eigenvalues --   -0.13602  -0.12696   0.04453
 Alpha virt. eigenvalues --    0.05758   0.07232   0.08031   0.08787   0.09259
 Alpha virt. eigenvalues --    0.10074   0.10417   0.10657   0.11282   0.11546
 Alpha virt. eigenvalues --    0.11803   0.12387   0.12693   0.12926   0.13762

  Beta  occ. eigenvalues --  -19.04195 -18.95371 -14.21265 -10.14556 -10.13069
  Beta  occ. eigenvalues --  -10.12155 -10.09780 -10.08458 -10.07472 -10.05833
  Beta  occ. eigenvalues --  -10.04710 -10.04075 -10.03984 -10.03147  -0.97344
  Beta  occ. eigenvalues --   -0.88034  -0.82232  -0.69544  -0.68316  -0.66127
  Beta  occ. eigenvalues --   -0.60713  -0.58811  -0.57546  -0.55639  -0.51652
  Beta  occ. eigenvalues --   -0.44861  -0.43689  -0.41646  -0.38722  -0.38020
  Beta  occ. eigenvalues --   -0.37066  -0.35296  -0.34276  -0.32954  -0.32494
  Beta  occ. eigenvalues --   -0.31566  -0.31241  -0.30670  -0.29015  -0.27213
  Beta  occ. eigenvalues --   -0.27148  -0.26397  -0.25501  -0.23702  -0.21589
  Beta  occ. eigenvalues --   -0.20820  -0.19439  -0.18630  -0.14675  -0.13668
  Beta  occ. eigenvalues --   -0.13192  -0.11636
  Beta virt. eigenvalues --    0.06729   0.07377   0.08218   0.08528   0.09250
  Beta virt. eigenvalues --    0.09600   0.10203   0.10347   0.10891   0.11302
  Beta virt. eigenvalues --    0.11718   0.11746   0.12464   0.12690   0.13145

 Mulliken charges and spin densities:
               1          2
     1  C   -0.536399  -0.156625
     2  C    0.897970   0.331939
     3  C   -0.277416  -0.016421
     4  C   -0.504247   0.204065
     5  O   -0.330923   0.091822
     6  O   -0.056975  -0.008732
     7  C    0.566482   0.168612
     8  C   -0.709138   0.027608
     9  C   -0.186730  -0.357536
    10  N   -0.092889   0.065961
    11  C   -1.455118   0.820369
    12  C    2.530788  -2.049712
    13  C   -0.387122  -0.042345
    14  C   -0.820585  -0.199388
    15  H    0.114870   0.020990
    16  H    0.140215  -0.005908
    17  H    0.021304   0.121695
    18  H    0.139571  -0.001616
    19  H    0.059196   0.064434
    20  H    0.212446  -0.010805
    21  H    0.013723   0.153045
    22  H    0.209835  -0.058213
    23  H    0.216546   0.004214
    24  H    0.102303   0.086190
    25  H    0.046653   0.105755
    26  H   -1.257595   1.440460
    27  H    0.095320   0.013633
    28  H   -0.007431   0.190482
    29  H    0.255343  -0.003972
 Sum of Mulliken charges =  -1.00000   1.00000

 Dipole moment (field-independent basis, Debye):
    X=             -3.3982    Y=             -2.3918    Z=              1.0591  Tot=              4.2884
 Quadrupole moment (field-independent basis, Debye-Ang):
   XX=           -180.6387   YY=           -114.8694   ZZ=           -101.3453
   XY=              6.0880   XZ=              2.5885   YZ=             -4.3479

 Summary of Natural Population Analysis:

                                       Natural Population
                Natural  -----------------------------------------------
    Atom  No    Charge         Core      Valence    Rydberg      Total
 -----------------------------------------------------------------------
      C    1   -0.29881      0.99964     2.29424    0.00493     3.29881
      C    2    0.10099      0.99954     1.89118    0.00829     2.89901
      C    3   -0.18149      0.99942     2.17105    0.01102     3.18149
      C    4    0.41534      0.99963     1.56211    0.02292     2.58466
      O    5   -0.28780      0.99987     3.28265    0.00528     4.28780
      O    6   -0.28775      0.99984     3.27698    0.01094     4.28775
      C    7    0.15691      0.99940     1.82951    0.01418     2.84309
      C    8   -0.21946      0.99951     2.21380    0.00615     3.21946
      C    9   -0.11022      0.99957     2.09940    0.01125     3.11022
      N   10   -0.32360      0.99976     2.81369    0.01014     3.82360
      C   11   -0.12771      0.99957     2.11649    0.01165     3.12771
      C   12   -0.01678      0.99937     2.01030    0.00711     3.01678
      C   13   -0.11799      0.99927     2.11468    0.00404     3.11799
      C   14   -0.31347      0.99962     2.30771    0.00614     3.31347
      H   15    0.09678      0.00000     0.40244    0.00078     0.40322
      H   16    0.09852      0.00000     0.40055    0.00093     0.40148
      H   17    0.10125      0.00000     0.39764    0.00111     0.39875
      H   18    0.09633      0.00000     0.40287    0.00080     0.40367
      H   19    0.09127      0.00000     0.40785    0.00088     0.40873
      H   20    0.11586      0.00000     0.38290    0.00124     0.38414
      H   21    0.09865      0.00000     0.39991    0.00144     0.40135
      H   22    0.09130      0.00000     0.40685    0.00185     0.40870
      H   23    0.17227      0.00000     0.32554    0.00220     0.32773
      H   24    0.10699      0.00000     0.39199    0.00102     0.39301
      H   25    0.10733      0.00000     0.39125    0.00142     0.39267
      H   26    0.11322      0.00000     0.38351    0.00327     0.38678
      H   27    0.09062      0.00000     0.40859    0.00078     0.40938
      H   28    0.10824      0.00000     0.39031    0.00145     0.39176
      H   29    0.12324      0.00000     0.37538    0.00137     0.37676
 =======================================================================
   * Total *    0.00000     13.99400    37.85138    0.15461    52.00000

 Normal termination of Gaussian 16 at Thu Dec 10 11:35:17 2020.
