 Gaussian 16, Revision A.03,

 -----------------------------------------------------------
 # opt freq B3LYP/6-31G(d) empiricaldispersion=gd3bj scf=xqc
 -----------------------------------------------------------

 -------------------------------
 CID_104259013_JID_8619_neutraal
 -------------------------------
 Symbolic Z-matrix:
 Charge =  0 Multiplicity = 1

 SCF Done:  E(RB3LYP) =  -832.534935107     A.U. after   15 cycles
 SCF Done:  E(RB3LYP) =  -832.541936003     A.U. after   12 cycles
 SCF Done:  E(RB3LYP) =  -832.543256614     A.U. after   12 cycles
 SCF Done:  E(RB3LYP) =  -832.543663495     A.U. after   12 cycles
 SCF Done:  E(RB3LYP) =  -832.543734858     A.U. after   12 cycles
 SCF Done:  E(RB3LYP) =  -832.543920203     A.U. after   11 cycles
 SCF Done:  E(RB3LYP) =  -832.543946158     A.U. after   11 cycles
 SCF Done:  E(RB3LYP) =  -832.543956357     A.U. after   10 cycles
 SCF Done:  E(RB3LYP) =  -832.543960409     A.U. after    9 cycles
 SCF Done:  E(RB3LYP) =  -832.543964620     A.U. after   10 cycles
 SCF Done:  E(RB3LYP) =  -832.544612286     A.U. after   11 cycles
 SCF Done:  E(RB3LYP) =  -832.544617872     A.U. after   10 cycles
 SCF Done:  E(RB3LYP) =  -832.544618823     A.U. after    8 cycles
 SCF Done:  E(RB3LYP) =  -832.544619231     A.U. after    8 cycles
 SCF Done:  E(RB3LYP) =  -832.544619318     A.U. after    7 cycles
 Optimization completed.
    -- Stationary point found.
 Normal termination of Gaussian 16 at Fri Dec 11 21:55:25 2020.

 --------------------------------------------------------------------
 #N Geom=AllCheck Guess=TCheck SCRF=Check GenChk RB3LYP/6-31G(d) Freq
 --------------------------------------------------------------------

 Structure from the checkpoint file:  "JID_8619.chk"
 -------------------------------
 CID_104259013_JID_8619_neutraal
 -------------------------------
 Charge =  0 Multiplicity = 1

 SCF Done:  E(RB3LYP) =  -832.544619318     A.U. after    1 cycles

  Exact polarizability: 225.129  -0.749 159.441   6.803  -8.808  89.270
 Approx polarizability: 296.887   1.006 282.042  15.405 -22.094 135.605

                      1                      2                      3
                      A                      A                      A
 Frequencies --     22.6009                33.3727                45.9383
 Red. masses --      4.3481                 7.0495                 4.9353
 Frc consts  --      0.0013                 0.0046                 0.0061
 IR Inten    --      0.2822                 5.0317                 0.2370

                      4                      5                      6
                      A                      A                      A
 Frequencies --     51.4592                96.2582               108.0803
 Red. masses --      4.6984                 3.9041                 3.2571
 Frc consts  --      0.0073                 0.0213                 0.0224
 IR Inten    --      0.3698                 0.3098                 0.0470

                      7                      8                      9
                      A                      A                      A
 Frequencies --    153.0374               179.0562               195.3342
 Red. masses --      3.9485                 2.9986                 1.9660
 Frc consts  --      0.0545                 0.0566                 0.0442
 IR Inten    --      1.3632                 0.7425                 1.1281

                     10                     11                     12
                      A                      A                      A
 Frequencies --    213.3420               236.0363               248.3987
 Red. masses --      1.7451                 2.3274                 1.6630
 Frc consts  --      0.0468                 0.0764                 0.0605
 IR Inten    --      1.0929                 3.0001                 0.7792

                     13                     14                     15
                      A                      A                      A
 Frequencies --    257.5879               274.2884               297.4421
 Red. masses --      3.3251                 2.7411                 3.3827
 Frc consts  --      0.1300                 0.1215                 0.1763
 IR Inten    --      0.3394                 0.6845                 7.8103

                     16                     17                     18
                      A                      A                      A
 Frequencies --    308.9903               339.5566               359.6983
 Red. masses --      1.2855                 3.2090                 3.8847
 Frc consts  --      0.0723                 0.2180                 0.2961
 IR Inten    --     17.5229                 1.6285                 1.2467

                     19                     20                     21
                      A                      A                      A
 Frequencies --    431.3425               456.1241               511.1122
 Red. masses --      3.7368                 3.9776                 3.2859
 Frc consts  --      0.4096                 0.4876                 0.5058
 IR Inten    --      7.8337                 9.4023                 2.5366

                     22                     23                     24
                      A                      A                      A
 Frequencies --    516.3079               544.1983               549.3126
 Red. masses --      5.2362                 4.0403                 1.6864
 Frc consts  --      0.8224                 0.7050                 0.2998
 IR Inten    --      0.6912                 5.1098                54.7795

                     25                     26                     27
                      A                      A                      A
 Frequencies --    575.6116               593.4289               597.0825
 Red. masses --      5.6735                 2.8040                 4.0320
 Frc consts  --      1.1075                 0.5818                 0.8469
 IR Inten    --      4.3473                37.5529                 6.6171

                     28                     29                     30
                      A                      A                      A
 Frequencies --    678.1294               705.3448               709.1180
 Red. masses --      1.7858                 2.6301                 4.2397
 Frc consts  --      0.4838                 0.7710                 1.2561
 IR Inten    --     76.6615                 9.1167                 3.9046

                     31                     32                     33
                      A                      A                      A
 Frequencies --    730.1261               753.0751               766.2917
 Red. masses --      2.6751                 1.6130                 5.2708
 Frc consts  --      0.8402                 0.5390                 1.8235
 IR Inten    --     38.3450                68.6351                11.9472

                     34                     35                     36
                      A                      A                      A
 Frequencies --    808.0839               823.9356               830.6912
 Red. masses --      2.2860                 1.6401                 1.8738
 Frc consts  --      0.8795                 0.6560                 0.7618
 IR Inten    --     62.7689                45.9205                26.0860

                     37                     38                     39
                      A                      A                      A
 Frequencies --    837.8133               875.0449               888.0635
 Red. masses --      1.4082                 1.6562                 2.5835
 Frc consts  --      0.5824                 0.7472                 1.2005
 IR Inten    --      3.2706               149.7506                 2.9504

                     40                     41                     42
                      A                      A                      A
 Frequencies --    920.7099               928.7921               993.1730
 Red. masses --      1.2158                 2.3570                 2.7068
 Frc consts  --      0.6073                 1.1980                 1.5731
 IR Inten    --      4.2405                 3.3450                 5.6245

                     43                     44                     45
                      A                      A                      A
 Frequencies --   1045.4555              1060.4975              1091.2493
 Red. masses --      4.2947                 5.3169                 2.9951
 Frc consts  --      2.7656                 3.5231                 2.1014
 IR Inten    --     16.1854                38.7496                22.2619

                     46                     47                     48
                      A                      A                      A
 Frequencies --   1103.8568              1118.5381              1124.1586
 Red. masses --      1.8382                 2.3637                 4.5026
 Frc consts  --      1.3197                 1.7424                 3.3525
 IR Inten    --      7.4800                11.7654                 4.8601

                     49                     50                     51
                      A                      A                      A
 Frequencies --   1126.7985              1139.5264              1178.3370
 Red. masses --      1.9104                 2.2370                 2.2884
 Frc consts  --      1.4291                 1.7115                 1.8720
 IR Inten    --      8.2812                72.2993                 3.8587

                     52                     53                     54
                      A                      A                      A
 Frequencies --   1194.0915              1200.5316              1205.4849
 Red. masses --      1.7303                 2.2773                 1.6197
 Frc consts  --      1.4536                 1.9338                 1.3868
 IR Inten    --     31.4018                75.2691                31.7319

                     55                     56                     57
                      A                      A                      A
 Frequencies --   1236.3758              1266.3603              1277.8957
 Red. masses --      2.3262                 3.2989                10.2630
 Frc consts  --      2.0951                 3.1170                 9.8745
 IR Inten    --    311.5914                18.9032                 3.0064

                     58                     59                     60
                      A                      A                      A
 Frequencies --   1302.4195              1314.3958              1338.7261
 Red. masses --      1.8149                 1.9365                 1.1817
 Frc consts  --      1.8138                 1.9711                 1.2478
 IR Inten    --     24.5161                25.5125                38.7752

                     61                     62                     63
                      A                      A                      A
 Frequencies --   1359.8723              1369.0930              1392.6062
 Red. masses --      2.3917                 1.3406                 2.1220
 Frc consts  --      2.6059                 1.4805                 2.4247
 IR Inten    --     38.1585                36.1780                 3.6283

                     64                     65                     66
                      A                      A                      A
 Frequencies --   1409.0091              1421.0372              1429.5803
 Red. masses --      3.2973                 1.3165                 1.2547
 Frc consts  --      3.8569                 1.5663                 1.5108
 IR Inten    --     62.2109                 0.5205                12.9458

                     67                     68                     69
                      A                      A                      A
 Frequencies --   1442.8362              1482.5990              1506.0750
 Red. masses --      1.3073                 2.2426                 1.4661
 Frc consts  --      1.6035                 2.9043                 1.9594
 IR Inten    --     27.7379                23.9907                53.6329

                     70                     71                     72
                      A                      A                      A
 Frequencies --   1515.7822              1523.4640              1528.1504
 Red. masses --      1.0465                 1.3069                 1.3689
 Frc consts  --      1.4166                 1.7871                 1.8834
 IR Inten    --      4.1094                21.2570                44.2481

                     73                     74                     75
                      A                      A                      A
 Frequencies --   1532.0078              1534.4645              1548.3378
 Red. masses --      1.1408                 1.8108                 1.1164
 Frc consts  --      1.5775                 2.5120                 1.5769
 IR Inten    --      7.8693                52.4985                12.2713

                     76                     77                     78
                      A                      A                      A
 Frequencies --   1552.1414              1572.0324              1639.2431
 Red. masses --      3.6682                 2.2733                 2.8073
 Frc consts  --      5.2067                 3.3100                 4.4446
 IR Inten    --     78.6176                33.2560                19.3864

                     79                     80                     81
                      A                      A                      A
 Frequencies --   1663.1315              1686.6080              2974.0836
 Red. masses --      3.3194                 1.7613                 1.0812
 Frc consts  --      5.4096                 2.9520                 5.6348
 IR Inten    --    167.8273                82.6274                30.3836

                     82                     83                     84
                      A                      A                      A
 Frequencies --   3050.0489              3060.2776              3071.6190
 Red. masses --      1.0666                 1.0365                 1.0341
 Frc consts  --      5.8458                 5.7191                 5.7487
 IR Inten    --     46.2208                18.8306                14.1045

                     85                     86                     87
                      A                      A                      A
 Frequencies --   3109.0396              3128.4645              3146.7320
 Red. masses --      1.0989                 1.1017                 1.1028
 Frc consts  --      6.2582                 6.3532                 6.4338
 IR Inten    --     21.9164                31.0924                35.6271

                     88                     89                     90
                      A                      A                      A
 Frequencies --   3147.5056              3155.7287              3193.0024
 Red. masses --      1.1035                 1.1037                 1.0873
 Frc consts  --      6.4410                 6.4759                 6.5313
 IR Inten    --     15.4695                23.2678                11.5003

                     91                     92                     93
                      A                      A                      A
 Frequencies --   3222.3612              3230.3069              3488.2759
 Red. masses --      1.0904                 1.0928                 1.0518
 Frc consts  --      6.6707                 6.7184                 7.5408
 IR Inten    --     23.4988                10.8642                 2.4591

                     94                     95                     96
                      A                      A                      A
 Frequencies --   3524.2538              3606.9096              3649.3882
 Red. masses --      1.0753                 1.0916                 1.0833
 Frc consts  --      7.8686                 8.3672                 8.5005
 IR Inten    --     33.9187                22.0474               106.7703

 - Thermochemistry -
 -------------------
 Temperature   298.150 Kelvin.  Pressure   1.00000 Atm.
 Atom     1 has atomic number  6 and mass  12.00000

 Molecular mass:   248.13856 amu.
 Principal axes and moments of inertia in atomic units:
                           1         2         3
     Eigenvalues --  1563.50367********************
           X            0.99999   0.00404  -0.00005
           Y           -0.00404   0.99999   0.00118
           Z            0.00005  -0.00118   1.00000
 This molecule is an asymmetric top.
 Rotational symmetry number  1.
 Warning -- assumption of classical behavior for rotation
           may cause significant error
 Rotational temperatures (Kelvin)      0.05540     0.00844     0.00768
 Rotational constants (GHZ):           1.15429     0.17591     0.15997
 Zero-point vibrational energy     739496.5 (Joules/Mol)
                                  176.74390 (Kcal/Mol)
 Warning -- explicit consideration of  27 degrees of freedom as
           vibrations may cause significant error
 Vibrational temperatures:     32.52    48.02    66.10    74.04   138.49
          (Kelvin)            155.50   220.19   257.62   281.04   306.95
                              339.60   357.39   370.61   394.64   427.95
                              444.57   488.55   517.53   620.61   656.26
                              735.38   742.85   782.98   790.34   828.18
                              853.81   859.07   975.68  1014.83  1020.26
                             1050.49  1083.51  1102.52  1162.65  1185.46
                             1195.18  1205.43  1258.99  1277.73  1324.70
                             1336.32  1428.95  1504.18  1525.82  1570.06
                             1588.20  1609.33  1617.41  1621.21  1639.52
                             1695.36  1718.03  1727.30  1734.42  1778.87
                             1822.01  1838.61  1873.89  1891.12  1926.13
                             1956.55  1969.82  2003.65  2027.25  2044.56
                             2056.85  2075.92  2133.13  2166.91  2180.87
                             2191.92  2198.67  2204.22  2207.75  2227.71
                             2233.19  2261.80  2358.51  2392.88  2426.65
                             4279.04  4388.34  4403.06  4419.37  4473.21
                             4501.16  4527.45  4528.56  4540.39  4594.02
                             4636.26  4647.69  5018.85  5070.62  5189.54
                             5250.66

 Zero-point correction=                           0.281659 (Hartree/Particle)
 Thermal correction to Energy=                    0.298667
 Thermal correction to Enthalpy=                  0.299611
 Thermal correction to Gibbs Free Energy=         0.235343
 Sum of electronic and zero-point Energies=           -832.262960
 Sum of electronic and thermal Energies=              -832.245952
 Sum of electronic and thermal Enthalpies=            -832.245008
 Sum of electronic and thermal Free Energies=         -832.309277

                     E (Thermal)             CV                S
                      KCal/Mol        Cal/Mol-Kelvin    Cal/Mol-Kelvin
 Total                  187.416             64.439            135.264
 Electronic               0.000              0.000              0.000
 Translational            0.889              2.981             42.427
 Rotational               0.889              2.981             33.559
 Vibrational            185.639             58.478             59.279
 Vibration     1          0.593              1.985              6.391
 Vibration     2          0.594              1.983              5.618
 Vibration     3          0.595              1.979              4.985
 Vibration     4          0.596              1.977              4.761
 Vibration     5          0.603              1.952              3.529
 Vibration     6          0.606              1.943              3.303
 Vibration     7          0.619              1.899              2.634
 Vibration     8          0.629              1.868              2.338
 Vibration     9          0.636              1.846              2.177
 Vibration    10          0.644              1.821              2.015
 Vibration    11          0.655              1.786              1.833
 Vibration    12          0.662              1.765              1.742
 Vibration    13          0.667              1.750              1.678
 Vibration    14          0.677              1.721              1.569
 Vibration    15          0.691              1.678              1.431
 Vibration    16          0.698              1.657              1.368
 Vibration    17          0.719              1.596              1.214
 Vibration    18          0.734              1.555              1.123
 Vibration    19          0.792              1.402              0.854
 Vibration    20          0.814              1.347              0.777
 Vibration    21          0.866              1.225              0.631
 Vibration    22          0.871              1.214              0.619
 Vibration    23          0.899              1.152              0.556
 Vibration    24          0.905              1.141              0.546
 Vibration    25          0.932              1.084              0.494
 Vibration    26          0.951              1.046              0.461
 Vibration    27          0.955              1.038              0.455

                           ! Non-Optimized Parameters !
 Normal termination of Gaussian 16 at Fri Dec 11 22:08:03 2020.

 ----------------------------------------------------------------------
 # B3LYP/6-311++G(d,p) empiricaldispersion=gd3bj scf=xqc pop=npa geom=c
 heck
 ----------------------------------------------------------------------

 ---------------------------------------
 CID_104259013_JID_8619_Energie_neutraal
 ---------------------------------------
 Structure from the checkpoint file:  "JID_8619.chk"
 Charge =  0 Multiplicity = 1

 SCF Done:  E(RB3LYP) =  -832.781400393     A.U. after   16 cycles
 Normal termination of Gaussian 16 at Fri Dec 11 22:13:28 2020.

 ----------------------------------------------------------------------
 # B3LYP/6-311++G(d,p) empiricaldispersion=gd3bj scf=xqc pop=npa geom=c
 heck
 ----------------------------------------------------------------------

 -------------------------------------
 CID_104259013_JID_8619_Energie_kation
 -------------------------------------
 Structure from the checkpoint file:  "JID_8619.chk"
 Charge =  1 Multiplicity = 2

 SCF Done:  E(UB3LYP) =  -832.524091768     A.U. after   21 cycles
 Normal termination of Gaussian 16 at Fri Dec 11 22:23:04 2020.
 Gaussian 16:  ES64L-G16RevA.03 25-Dec-2016

 ----------------------------------------------------------------------
 # B3LYP/6-311++G(d,p) empiricaldispersion=gd3bj scf=xqc pop=npa geom=c
 heck
 ----------------------------------------------------------------------

 ------------------------------------
 CID_104259013_JID_8619_Energie_anion
 ------------------------------------
 Structure from the checkpoint file:  "JID_8619.chk"
 Charge = -1 Multiplicity = 2

                         Standard orientation:
 ---------------------------------------------------------------------
 Center     Atomic      Atomic             Coordinates (Angstroms)
 Number     Number       Type             X           Y           Z
 ---------------------------------------------------------------------
      1          6           0       -5.519070   -0.263077    0.930245
      2          6           0       -4.965989   -0.905910   -0.336139
      3          8           0       -3.571204   -1.190562   -0.240770
      4          6           0       -2.668295   -0.152938   -0.310469
      5          6           0       -2.972558    1.159150   -0.686935
      6          6           0       -1.951578    2.108132   -0.720071
      7          6           0       -0.637297    1.764717   -0.408204
      8          6           0       -0.326698    0.446503   -0.046442
      9          6           0       -1.355937   -0.514297    0.022043
     10          7           0       -1.027717   -1.841087    0.371548
     11          7           0        0.956134   -0.009229    0.285503
     12          6           0        2.111711    0.857511    0.121524
     13          6           0        2.288002    1.796493    1.326971
     14          6           0        3.340075    0.014460   -0.062223
     15          7           0        3.337969   -1.313829   -0.140378
     16          7           0        4.635117   -1.562565   -0.305092
     17          7           0        5.408849   -0.483546   -0.328873
     18          7           0        4.595311    0.531440   -0.173806
     19          1           0       -5.336565   -0.911556    1.793128
     20          1           0       -6.599873   -0.108550    0.834582
     21          1           0       -5.047681    0.704503    1.123798
     22          1           0       -5.430167   -1.881602   -0.505546
     23          1           0       -5.165446   -0.289514   -1.221835
     24          1           0       -3.986007    1.447192   -0.937563
     25          1           0       -2.183610    3.130680   -1.002680
     26          1           0        0.138283    2.519901   -0.456032
     27          1           0       -1.865759   -2.401554    0.485103
     28          1           0       -0.463276   -1.875894    1.217908
     29          1           0        1.111989   -0.962243   -0.031947
     30          1           0        2.015634    1.474148   -0.788401
     31          1           0        2.432259    1.205029    2.235918
     32          1           0        3.155030    2.446851    1.181375
     33          1           0        1.394973    2.412825    1.457028
     34          1           0        5.006022   -2.498472   -0.402791
 ---------------------------------------------------------------------

 SCF Done:  E(UB3LYP) =  -832.774064463     A.U. after   33 cycles
 SCF Done:  E(UB3LYP) =  -832.774065277     a.u. after    4 cycles

 The electronic state is 2-A.
 Alpha  occ. eigenvalues --  -19.05604 -14.30722 -14.25815 -14.24048 -14.22605
 Alpha  occ. eigenvalues --  -14.22487 -14.22059 -10.13350 -10.13029 -10.12890
 Alpha  occ. eigenvalues --  -10.12580 -10.11384 -10.10614 -10.07569 -10.07263
 Alpha  occ. eigenvalues --  -10.06969 -10.06952 -10.06701  -1.03152  -0.97019
 Alpha  occ. eigenvalues --   -0.85528  -0.83393  -0.81130  -0.77231  -0.73953
 Alpha  occ. eigenvalues --   -0.68026  -0.67166  -0.63187  -0.62246  -0.57257
 Alpha  occ. eigenvalues --   -0.56789  -0.55241  -0.51310  -0.50712  -0.47361
 Alpha  occ. eigenvalues --   -0.46406  -0.43835  -0.43251  -0.40378  -0.39943
 Alpha  occ. eigenvalues --   -0.39019  -0.38174  -0.37103  -0.35868  -0.35466
 Alpha  occ. eigenvalues --   -0.34750  -0.32841  -0.31847  -0.30023  -0.29874
 Alpha  occ. eigenvalues --   -0.29243  -0.29132  -0.27801  -0.27173  -0.27024
 Alpha  occ. eigenvalues --   -0.26127  -0.23711  -0.23089  -0.21934  -0.21652
 Alpha  occ. eigenvalues --   -0.20829  -0.19486  -0.18317  -0.18122  -0.11967
 Alpha  occ. eigenvalues --   -0.10050   0.04331
 Alpha virt. eigenvalues --    0.05382   0.06667   0.07019   0.07604   0.08227
 Alpha virt. eigenvalues --    0.08704   0.09142   0.09632   0.10083   0.10643
 Alpha virt. eigenvalues --    0.11033   0.11577   0.11790   0.12081   0.12740

  Beta  occ. eigenvalues --  -19.05600 -14.30420 -14.25347 -14.23809 -14.22546
  Beta  occ. eigenvalues --  -14.22489 -14.22054 -10.13348 -10.13002 -10.12889
  Beta  occ. eigenvalues --  -10.12618 -10.11381 -10.10614 -10.07567 -10.07261
  Beta  occ. eigenvalues --  -10.06957 -10.06948 -10.06659  -1.02672  -0.97008
  Beta  occ. eigenvalues --   -0.85512  -0.82897  -0.81101  -0.76894  -0.73920
  Beta  occ. eigenvalues --   -0.67976  -0.67124  -0.63164  -0.62223  -0.56956
  Beta  occ. eigenvalues --   -0.56599  -0.55154  -0.51287  -0.50618  -0.47306
  Beta  occ. eigenvalues --   -0.46225  -0.43797  -0.43183  -0.40352  -0.39650
  Beta  occ. eigenvalues --   -0.38885  -0.37467  -0.37065  -0.35772  -0.35283
  Beta  occ. eigenvalues --   -0.34718  -0.32807  -0.31824  -0.29964  -0.29856
  Beta  occ. eigenvalues --   -0.29162  -0.29087  -0.27655  -0.27137  -0.26900
  Beta  occ. eigenvalues --   -0.26028  -0.23664  -0.23054  -0.21643  -0.20542
  Beta  occ. eigenvalues --   -0.20410  -0.19102  -0.17977  -0.17218  -0.11951
  Beta  occ. eigenvalues --   -0.10042
  Beta virt. eigenvalues --    0.06522   0.06783   0.07248   0.07812   0.08654
  Beta virt. eigenvalues --    0.08918   0.09324   0.09439   0.09702   0.10298
  Beta virt. eigenvalues --    0.10752   0.11461   0.11605   0.11821   0.12224

 Mulliken charges and spin densities:
               1          2
     1  C    1.195341  -1.607592
     2  C   -0.110633  -0.075849
     3  O   -0.163698   0.008383
     4  C   -0.535574   0.471886
     5  C    1.381826  -1.188352
     6  C   -0.329007  -0.325803
     7  C    1.217333  -1.034595
     8  C   -0.246221   0.098849
     9  C   -1.859858   1.446840
    10  N   -0.446148  -0.017864
    11  N    0.048526   0.007029
    12  C   -0.173214   0.082708
    13  C   -0.288292  -0.052293
    14  C   -0.299787  -0.156264
    15  N   -0.242855   0.089286
    16  N    0.035388   0.116395
    17  N   -0.015577   0.194662
    18  N   -0.228356   0.032426
    19  H   -0.105955   0.254516
    20  H   -0.552810   0.693205
    21  H   -0.120291   0.255170
    22  H   -0.725890   0.916797
    23  H   -0.061043   0.194163
    24  H   -0.046363   0.200980
    25  H   -0.076306   0.242167
    26  H    0.222955  -0.091731
    27  H    0.233449   0.065813
    28  H    0.216140   0.025009
    29  H    0.273889   0.026626
    30  H    0.153865   0.027849
    31  H    0.131905   0.014860
    32  H    0.150446  -0.002587
    33  H    0.090834   0.052524
    34  H    0.275982   0.034788
 Sum of Mulliken charges =  -1.00000   1.00000

 Dipole moment (field-independent basis, Debye):
    X=              6.2246    Y=              0.3787    Z=              0.4556  Tot=              6.2528
 Quadrupole moment (field-independent basis, Debye-Ang):
   XX=           -260.6887   YY=           -128.4486   ZZ=           -126.2241
   XY=            -17.1208   XZ=              4.6255   YZ=             -0.8574

 Summary of Natural Population Analysis:

                                       Natural Population
                Natural  -----------------------------------------------
    Atom  No    Charge         Core      Valence    Rydberg      Total
 -----------------------------------------------------------------------
      C    1   -0.30079      0.99966     2.29602    0.00511     3.30079
      C    2   -0.00978      0.99958     1.99760    0.01259     3.00978
      O    3   -0.28760      0.99986     3.27721    0.01053     4.28760
      C    4    0.13091      0.99937     1.85053    0.01918     2.86909
      C    5   -0.15522      0.99953     2.14680    0.00889     3.15522
      C    6   -0.09943      0.99958     2.09025    0.00959     3.09943
      C    7   -0.14398      0.99954     2.13650    0.00794     3.14398
      C    8    0.06790      0.99951     1.91894    0.01366     2.93210
      C    9    0.08697      0.99945     1.90550    0.00808     2.91303
      N   10   -0.41176      0.99974     2.90285    0.00916     3.91176
      N   11   -0.32835      0.99967     2.81685    0.01183     3.82835
      C   12   -0.02775      0.99957     2.01716    0.01101     3.02775
      C   13   -0.28359      0.99965     2.27891    0.00503     3.28359
      C   14    0.14160      0.99964     1.83689    0.02186     2.85840
      N   15   -0.13914      0.99968     2.62745    0.01200     3.63914
      N   16   -0.05019      0.99975     2.53369    0.01674     3.55019
      N   17    0.02027      0.99980     2.46246    0.01748     3.47973
      N   18   -0.16133      0.99971     2.64792    0.01370     3.66133
      H   19    0.10054      0.00000     0.39818    0.00128     0.39946
      H   20    0.10563      0.00000     0.39162    0.00275     0.39437
      H   21    0.10145      0.00000     0.39717    0.00139     0.39855
      H   22    0.09341      0.00000     0.40469    0.00191     0.40659
      H   23    0.08240      0.00000     0.41589    0.00171     0.41760
      H   24    0.10489      0.00000     0.39391    0.00120     0.39511
      H   25    0.09783      0.00000     0.40134    0.00083     0.40217
      H   26    0.09969      0.00000     0.39885    0.00146     0.40031
      H   27    0.19130      0.00000     0.30648    0.00221     0.30870
      H   28    0.18159      0.00000     0.31558    0.00284     0.31841
      H   29    0.20183      0.00000     0.29362    0.00456     0.29817
      H   30    0.09384      0.00000     0.40343    0.00272     0.40616
      H   31    0.10047      0.00000     0.39819    0.00134     0.39953
      H   32    0.10506      0.00000     0.39355    0.00139     0.39494
      H   33    0.09958      0.00000     0.39928    0.00114     0.40042
      H   34    0.19213      0.00000     0.30567    0.00220     0.30787
 =======================================================================
   * Total *    0.00039     17.99331    47.76098    0.24532    65.99961

 Normal termination of Gaussian 16 at Fri Dec 11 23:52:28 2020.
