 Gaussian 16, Revision A.03,

 -----------------------------------------------------------
 # opt freq B3LYP/6-31G(d) empiricaldispersion=gd3bj scf=xqc
 -----------------------------------------------------------

 -------------------------------
 CID_102345284_JID_7886_neutraal
 -------------------------------
 Symbolic Z-matrix:
 Charge =  0 Multiplicity = 1

 SCF Done:  E(RB3LYP) =  -709.231069640     A.U. after   15 cycles
 SCF Done:  E(RB3LYP) =  -709.232730742     A.U. after   12 cycles
 SCF Done:  E(RB3LYP) =  -709.233981296     A.U. after   14 cycles
 SCF Done:  E(RB3LYP) =  -709.234647405     A.U. after   12 cycles
 SCF Done:  E(RB3LYP) =  -709.235355224     A.U. after   12 cycles
 SCF Done:  E(RB3LYP) =  -709.235348010     A.U. after   14 cycles
 SCF Done:  E(RB3LYP) =  -709.235846388     A.U. after   12 cycles
 SCF Done:  E(RB3LYP) =  -709.235979197     A.U. after   11 cycles
 SCF Done:  E(RB3LYP) =  -709.236006361     A.U. after   11 cycles
 SCF Done:  E(RB3LYP) =  -709.236030057     A.U. after   10 cycles
 SCF Done:  E(RB3LYP) =  -709.236299293     A.U. after   11 cycles
 SCF Done:  E(RB3LYP) =  -709.236300207     A.U. after   10 cycles
 SCF Done:  E(RB3LYP) =  -709.236302495     A.U. after    9 cycles
 SCF Done:  E(RB3LYP) =  -709.236302531     A.U. after    7 cycles
 SCF Done:  E(RB3LYP) =  -709.236302546     A.U. after    7 cycles
 Optimization completed.
    -- Stationary point found.
 Normal termination of Gaussian 16 at Mon Dec 14 17:14:33 2020.

 --------------------------------------------------------------------
 #N Geom=AllCheck Guess=TCheck SCRF=Check GenChk RB3LYP/6-31G(d) Freq
 --------------------------------------------------------------------

 Structure from the checkpoint file:  "JID_7886.chk"
 -------------------------------
 CID_102345284_JID_7886_neutraal
 -------------------------------
 Charge =  0 Multiplicity = 1

 SCF Done:  E(RB3LYP) =  -709.236302546     A.U. after    1 cycles

  Exact polarizability: 142.532  18.068 188.414 -13.169   2.687 137.270
 Approx polarizability: 194.683  35.402 297.218 -29.470   5.986 241.155

                      1                      2                      3
                      A                      A                      A
 Frequencies --     30.4206                35.9514                49.3056
 Red. masses --      3.6850                 3.3295                 3.5704
 Frc consts  --      0.0020                 0.0025                 0.0051
 IR Inten    --      0.4253                 0.1827                 0.0389

                      4                      5                      6
                      A                      A                      A
 Frequencies --     65.4952                82.9159               101.5511
 Red. masses --      3.4176                 3.4397                 4.1020
 Frc consts  --      0.0086                 0.0139                 0.0249
 IR Inten    --      0.2897                 0.4469                 0.4638

                      7                      8                      9
                      A                      A                      A
 Frequencies --    116.6011               133.9390               178.0438
 Red. masses --      5.6619                 2.6088                 3.3047
 Frc consts  --      0.0454                 0.0276                 0.0617
 IR Inten    --      2.3986                 0.6514                 0.1947

                     10                     11                     12
                      A                      A                      A
 Frequencies --    215.8123               269.0272               294.8548
 Red. masses --      1.5996                 2.4356                 2.0001
 Frc consts  --      0.0439                 0.1039                 0.1025
 IR Inten    --      0.7674                 1.9656                 0.5759

                     13                     14                     15
                      A                      A                      A
 Frequencies --    307.6319               339.5995               373.2234
 Red. masses --      2.5088                 4.1567                 2.6249
 Frc consts  --      0.1399                 0.2824                 0.2154
 IR Inten    --      2.1779                 0.3039                 2.4031

                     16                     17                     18
                      A                      A                      A
 Frequencies --    401.1150               417.6634               441.8467
 Red. masses --      2.1295                 3.0403                 3.7723
 Frc consts  --      0.2019                 0.3125                 0.4339
 IR Inten    --      0.4878                 0.0534                 1.3375

                     19                     20                     21
                      A                      A                      A
 Frequencies --    457.5214               515.2872               557.8487
 Red. masses --      2.3634                 2.4269                 3.4810
 Frc consts  --      0.2915                 0.3797                 0.6382
 IR Inten    --      1.5854                 3.0831                 5.5109

                     22                     23                     24
                      A                      A                      A
 Frequencies --    633.2362               669.4004               703.1776
 Red. masses --      6.3670                 2.9563                 4.1207
 Frc consts  --      1.5042                 0.7805                 1.2005
 IR Inten    --      0.1086                 5.1353                 9.1527

                     25                     26                     27
                      A                      A                      A
 Frequencies --    711.5674               713.4845               716.4673
 Red. masses --      3.4360                 6.4917                 2.2434
 Frc consts  --      1.0250                 1.9470                 0.6785
 IR Inten    --      1.0645                 1.7623                24.0504

                     28                     29                     30
                      A                      A                      A
 Frequencies --    737.9595               770.4314               781.5253
 Red. masses --      1.4589                 2.0156                 1.9920
 Frc consts  --      0.4681                 0.7049                 0.7168
 IR Inten    --      5.1279                 2.9181                38.9065

                     31                     32                     33
                      A                      A                      A
 Frequencies --    831.2883               832.6751               864.1433
 Red. masses --      1.5327                 1.4156                 1.2925
 Frc consts  --      0.6240                 0.5783                 0.5687
 IR Inten    --      3.6083                10.7639                 0.5431

                     34                     35                     36
                      A                      A                      A
 Frequencies --    867.5242               919.1824               934.6176
 Red. masses --      1.9082                 1.6191                 1.3873
 Frc consts  --      0.8462                 0.8060                 0.7140
 IR Inten    --      5.4271                 1.3767                 4.9520

                     37                     38                     39
                      A                      A                      A
 Frequencies --    946.7963               973.9289               989.6406
 Red. masses --      1.9109                 1.3458                 4.7313
 Frc consts  --      1.0093                 0.7521                 2.7301
 IR Inten    --      2.0590                 0.1404                12.8132

                     40                     41                     42
                      A                      A                      A
 Frequencies --    996.8982               999.9353              1021.9992
 Red. masses --      1.9194                 1.2615                 6.1645
 Frc consts  --      1.1239                 0.7432                 3.7936
 IR Inten    --      0.8511                 0.2612                 0.9565

                     43                     44                     45
                      A                      A                      A
 Frequencies --   1028.4035              1040.2293              1055.9757
 Red. masses --      1.9193                 3.8576                 1.6383
 Frc consts  --      1.1959                 2.4594                 1.0763
 IR Inten    --      8.2241                 4.8327                 1.4972

                     46                     47                     48
                      A                      A                      A
 Frequencies --   1067.5851              1099.1548              1110.6826
 Red. masses --      1.9498                 2.2142                 1.8588
 Frc consts  --      1.3093                 1.5761                 1.3510
 IR Inten    --      1.9069                 1.0838                 3.8665

                     49                     50                     51
                      A                      A                      A
 Frequencies --   1111.8729              1145.4420              1151.7226
 Red. masses --      1.5899                 2.0357                 1.9604
 Frc consts  --      1.1580                 1.5737                 1.5321
 IR Inten    --      3.0952                 1.2850                 9.6762

                     52                     53                     54
                      A                      A                      A
 Frequencies --   1180.1130              1195.8465              1215.0323
 Red. masses --      2.2983                 1.0975                 1.1340
 Frc consts  --      1.8858                 0.9247                 0.9864
 IR Inten    --      9.2840                 0.0078                 0.3746

                     55                     56                     57
                      A                      A                      A
 Frequencies --   1220.3353              1254.7912              1272.4974
 Red. masses --      1.3271                 2.2169                 2.9133
 Frc consts  --      1.1644                 2.0565                 2.7794
 IR Inten    --      2.0783                 4.3103                12.2585

                     58                     59                     60
                      A                      A                      A
 Frequencies --   1288.7304              1315.4146              1329.4486
 Red. masses --      2.2910                 1.2794                 2.6069
 Frc consts  --      2.2418                 1.3043                 2.7147
 IR Inten    --     23.6874                 3.2725                 2.3965

                     61                     62                     63
                      A                      A                      A
 Frequencies --   1344.9513              1358.2260              1366.5260
 Red. masses --      1.5117                 1.4631                 2.4199
 Frc consts  --      1.6112                 1.5903                 2.6625
 IR Inten    --      3.7940                 1.6789                 2.8710

                     64                     65                     66
                      A                      A                      A
 Frequencies --   1367.8138              1382.0807              1396.6047
 Red. masses --      2.2663                 1.3631                 1.5164
 Frc consts  --      2.4982                 1.5341                 1.7426
 IR Inten    --      2.2728                13.4215                 3.8057

                     67                     68                     69
                      A                      A                      A
 Frequencies --   1408.6332              1422.4669              1424.7978
 Red. masses --      1.3195                 1.4628                 1.3696
 Frc consts  --      1.5426                 1.7439                 1.6382
 IR Inten    --      0.6077                 2.3214                 1.4810

                     70                     71                     72
                      A                      A                      A
 Frequencies --   1444.3756              1454.7376              1497.5324
 Red. masses --      1.2732                 4.1266                 2.1040
 Frc consts  --      1.5650                 5.1453                 2.7800
 IR Inten    --      4.3413                14.4897                 6.6388

                     73                     74                     75
                      A                      A                      A
 Frequencies --   1506.1508              1510.8311              1519.5974
 Red. masses --      1.1453                 1.1005                 1.0969
 Frc consts  --      1.5308                 1.4800                 1.4923
 IR Inten    --      3.0427                 4.8335                14.2660

                     76                     77                     78
                      A                      A                      A
 Frequencies --   1527.8020              1529.3675              1534.6577
 Red. masses --      1.0591                 1.0938                 2.0707
 Frc consts  --      1.4565                 1.5073                 2.8734
 IR Inten    --      3.6344                 2.5659                13.7355

                     79                     80                     81
                      A                      A                      A
 Frequencies --   1536.0225              1543.2393              1604.9690
 Red. masses --      1.0991                 1.0760                 5.7238
 Frc consts  --      1.5278                 1.5098                 8.6870
 IR Inten    --      3.1412                 3.8296                 1.6217

                     82                     83                     84
                      A                      A                      A
 Frequencies --   1638.3750              1670.2166              3031.8087
 Red. masses --      5.5023                 5.7746                 1.0656
 Frc consts  --      8.7021                 9.4911                 5.7710
 IR Inten    --      1.7275                 4.7297                19.7864

                     85                     86                     87
                      A                      A                      A
 Frequencies --   3038.0899              3044.5415              3051.9063
 Red. masses --      1.0672                 1.0383                 1.0629
 Frc consts  --      5.8033                 5.6705                 5.8332
 IR Inten    --     11.2730                20.0964                26.1724

                     88                     89                     90
                      A                      A                      A
 Frequencies --   3057.0213              3065.4556              3080.3183
 Red. masses --      1.0666                 1.0940                 1.0977
 Frc consts  --      5.8728                 6.0568                 6.1365
 IR Inten    --      6.1452                37.0193                31.9931

                     91                     92                     93
                      A                      A                      A
 Frequencies --   3098.8639              3101.5905              3108.6830
 Red. masses --      1.0881                 1.0959                 1.0798
 Frc consts  --      6.1562                 6.2116                 6.1482
 IR Inten    --     10.8232                47.7824                12.7985

                     94                     95                     96
                      A                      A                      A
 Frequencies --   3110.1126              3116.0437              3161.6155
 Red. masses --      1.0948                 1.1019                 1.1036
 Frc consts  --      6.2394                 6.3035                 6.4993
 IR Inten    --     66.0334                42.5723                12.7144

                     97                     98                     99
                      A                      A                      A
 Frequencies --   3187.5944              3194.0527              3202.6375
 Red. masses --      1.0852                 1.0877                 1.0914
 Frc consts  --      6.4966                 6.5380                 6.5954
 IR Inten    --      1.7443                 1.0750                14.6004

                    100                    101                    102
                      A                      A                      A
 Frequencies --   3209.3369              3217.0563              3281.2122
 Red. masses --      1.0946                 1.0982                 1.0979
 Frc consts  --      6.6424                 6.6965                 6.9646
 IR Inten    --     23.2519                12.5565                 1.8732

 - Thermochemistry -
 -------------------
 Temperature   298.150 Kelvin.  Pressure   1.00000 Atm.
 Atom     1 has atomic number  6 and mass  12.00000

 Molecular mass:   229.15790 amu.
 Principal axes and moments of inertia in atomic units:
                           1         2         3
     Eigenvalues --  3555.438164177.427056621.67724
           X            0.99377  -0.11143   0.00100
           Y            0.11143   0.99377   0.00208
           Z           -0.00122  -0.00195   1.00000
 This molecule is an asymmetric top.
 Rotational symmetry number  1.
 Warning -- assumption of classical behavior for rotation
           may cause significant error
 Rotational temperatures (Kelvin)      0.02436     0.02073     0.01308
 Rotational constants (GHZ):           0.50760     0.43202     0.27255
 Zero-point vibrational energy     822030.3 (Joules/Mol)
                                  196.46995 (Kcal/Mol)
 Warning -- explicit consideration of  21 degrees of freedom as
           vibrations may cause significant error
 Vibrational temperatures:     43.77    51.73    70.94    94.23   119.30
          (Kelvin)            146.11   167.76   192.71   256.17   310.51
                              387.07   424.23   442.61   488.61   536.99
                              577.11   600.92   635.72   658.27   741.38
                              802.62   911.09   963.12  1011.72  1023.79
                             1026.55  1030.84  1061.76  1108.48  1124.44
                             1196.04  1198.03  1243.31  1248.17  1322.50
                             1344.71  1362.23  1401.27  1423.87  1434.31
                             1438.68  1470.43  1479.64  1496.66  1519.31
                             1536.02  1581.44  1598.02  1599.74  1648.04
                             1657.07  1697.92  1720.56  1748.16  1755.79
                             1805.36  1830.84  1854.20  1892.59  1912.78
                             1935.08  1954.18  1966.13  1967.98  1988.51
                             2009.40  2026.71  2046.61  2049.97  2078.13
                             2093.04  2154.62  2167.02  2173.75  2186.36
                             2198.17  2200.42  2208.03  2209.99  2220.38
                             2309.19  2357.26  2403.07  4362.10  4371.13
                             4380.42  4391.01  4398.37  4410.51  4431.89
                             4458.57  4462.50  4472.70  4474.76  4483.29
                             4548.86  4586.24  4595.53  4607.88  4617.52
                             4628.63  4720.93

 Zero-point correction=                           0.313095 (Hartree/Particle)
 Thermal correction to Energy=                    0.328904
 Thermal correction to Enthalpy=                  0.329848
 Thermal correction to Gibbs Free Energy=         0.268148
 Sum of electronic and zero-point Energies=           -708.923208
 Sum of electronic and thermal Energies=              -708.907398
 Sum of electronic and thermal Enthalpies=            -708.906454
 Sum of electronic and thermal Free Energies=         -708.968155

                     E (Thermal)             CV                S
                      KCal/Mol        Cal/Mol-Kelvin    Cal/Mol-Kelvin
 Total                  206.390             60.414            129.859
 Electronic               0.000              0.000              0.000
 Translational            0.889              2.981             42.190
 Rotational               0.889              2.981             32.953
 Vibrational            204.613             54.452             54.717
 Vibration     1          0.594              1.984              5.802
 Vibration     2          0.594              1.982              5.471
 Vibration     3          0.595              1.978              4.845
 Vibration     4          0.597              1.971              4.284
 Vibration     5          0.600              1.961              3.821
 Vibration     6          0.604              1.948              3.424
 Vibration     7          0.608              1.936              3.156
 Vibration     8          0.613              1.919              2.889
 Vibration     9          0.628              1.869              2.349
 Vibration    10          0.645              1.817              1.994
 Vibration    11          0.673              1.730              1.602
 Vibration    12          0.689              1.683              1.446
 Vibration    13          0.697              1.659              1.375
 Vibration    14          0.720              1.596              1.214
 Vibration    15          0.745              1.527              1.067
 Vibration    16          0.767              1.468              0.959
 Vibration    17          0.781              1.432              0.900
 Vibration    18          0.802              1.379              0.821
 Vibration    19          0.816              1.344              0.773
 Vibration    20          0.870              1.216              0.621
 Vibration    21          0.913              1.123              0.528

 Optimization completed.
    -- Stationary point found.
 Normal termination of Gaussian 16 at Mon Dec 14 17:31:15 2020.

 ----------------------------------------------------------------------
 # B3LYP/6-311++G(d,p) empiricaldispersion=gd3bj scf=xqc pop=npa geom=c
 heck
 ----------------------------------------------------------------------

 ---------------------------------------
 CID_102345284_JID_7886_Energie_neutraal
 ---------------------------------------
 Structure from the checkpoint file:  "JID_7886.chk"
 Charge =  0 Multiplicity = 1

 SCF Done:  E(RB3LYP) =  -709.420446111     A.U. after   15 cycles
 Normal termination of Gaussian 16 at Mon Dec 14 17:39:22 2020.

 ----------------------------------------------------------------------
 # B3LYP/6-311++G(d,p) empiricaldispersion=gd3bj scf=xqc pop=npa geom=c
 heck
 ----------------------------------------------------------------------

 -------------------------------------
 CID_102345284_JID_7886_Energie_kation
 -------------------------------------
 Structure from the checkpoint file:  "JID_7886.chk"
 Charge =  1 Multiplicity = 2

 SCF Done:  E(UB3LYP) =  -709.109319165     A.U. after   27 cycles
 Normal termination of Gaussian 16 at Mon Dec 14 17:59:46 2020.
 Gaussian 16:  ES64L-G16RevA.03 25-Dec-2016

 ----------------------------------------------------------------------
 # B3LYP/6-311++G(d,p) empiricaldispersion=gd3bj scf=xqc pop=npa geom=c
 heck
 ----------------------------------------------------------------------

 ------------------------------------
 CID_102345284_JID_7886_Energie_anion
 ------------------------------------
 Structure from the checkpoint file:  "JID_7886.chk"
 Charge = -1 Multiplicity = 2

                         Standard orientation:
 ---------------------------------------------------------------------
 Center     Atomic      Atomic             Coordinates (Angstroms)
 Number     Number       Type             X           Y           Z
 ---------------------------------------------------------------------
      1          6           0       -4.583772    0.470972   -0.337865
      2          6           0       -3.416253   -0.227837    0.364724
      3          6           0       -2.128872   -0.292895   -0.470726
      4          6           0       -1.565220    1.067140   -0.916144
      5          6           0       -1.260188    2.056359    0.217037
      6          6           0       -0.151430    1.610226    1.177751
      7          7           0        1.151705    1.545720    0.518817
      8          6           0        1.795922    0.489314   -0.063324
      9          6           0        2.870579    1.082112   -0.702328
     10          7           0        2.835193    2.424674   -0.488861
     11          7           0        1.789040    2.708169    0.240319
     12          6           0        1.372201   -0.912659    0.023987
     13          6           0        1.223738   -1.665400   -1.150115
     14          6           0        0.802087   -2.992100   -1.090210
     15          6           0        0.521019   -3.584019    0.142122
     16          6           0        0.680340   -2.847210    1.317180
     17          6           0        1.109757   -1.522779    1.260585
     18          1           0       -4.370891    1.529433   -0.525099
     19          1           0       -5.496843    0.420891    0.265584
     20          1           0       -4.796385    0.001319   -1.306261
     21          1           0       -3.215986    0.272120    1.322398
     22          1           0       -3.711072   -1.253541    0.621994
     23          1           0       -1.369201   -0.845052    0.093079
     24          1           0       -2.320165   -0.892226   -1.371313
     25          1           0       -0.652247    0.897213   -1.500643
     26          1           0       -2.272326    1.547368   -1.603388
     27          1           0       -0.964750    3.022381   -0.206754
     28          1           0       -2.161758    2.236967    0.815545
     29          1           0       -0.048481    2.323913    1.998588
     30          1           0       -0.361854    0.627784    1.602174
     31          1           0        3.664624    0.611227   -1.263364
     32          1           0        1.420814   -1.193622   -2.107914
     33          1           0        0.683413   -3.561078   -2.007730
     34          1           0        0.184452   -4.615584    0.187482
     35          1           0        0.478292   -3.306749    2.280375
     36          1           0        1.259348   -0.960051    2.177275
 ---------------------------------------------------------------------

 SCF Done:  E(UB3LYP) =  -709.415529696     A.U. after   33 cycles
 SCF Done:  E(UB3LYP) =  -709.415529696     a.u. after    1 cycles

 The electronic state is 2-A.
 Alpha  occ. eigenvalues --  -14.27505 -14.24021 -14.21444 -10.10732 -10.09845
 Alpha  occ. eigenvalues --  -10.07281 -10.06865 -10.06616 -10.06406 -10.06280
 Alpha  occ. eigenvalues --  -10.06266 -10.06252 -10.06207 -10.06196 -10.06095
 Alpha  occ. eigenvalues --  -10.05562 -10.05258  -0.97421  -0.80080  -0.74883
 Alpha  occ. eigenvalues --   -0.70773  -0.69461  -0.66488  -0.63679  -0.63177
 Alpha  occ. eigenvalues --   -0.61496  -0.56724  -0.52173  -0.51913  -0.50233
 Alpha  occ. eigenvalues --   -0.48731  -0.46379  -0.44457  -0.41755  -0.39355
 Alpha  occ. eigenvalues --   -0.37987  -0.37357  -0.35557  -0.35370  -0.33799
 Alpha  occ. eigenvalues --   -0.33442  -0.32351  -0.31550  -0.31370  -0.30512
 Alpha  occ. eigenvalues --   -0.30134  -0.28998  -0.26837  -0.26460  -0.25660
 Alpha  occ. eigenvalues --   -0.25029  -0.24523  -0.23723  -0.22042  -0.21650
 Alpha  occ. eigenvalues --   -0.21526  -0.21211  -0.18190  -0.16383  -0.15252
 Alpha  occ. eigenvalues --   -0.14889  -0.12599   0.04472
 Alpha virt. eigenvalues --    0.06414   0.07133   0.07575   0.08386   0.09078
 Alpha virt. eigenvalues --    0.09220   0.09302   0.09733   0.10236   0.10505
 Alpha virt. eigenvalues --    0.11205   0.11739   0.12022   0.12071   0.12979

  Beta  occ. eigenvalues --  -14.27378 -14.23876 -14.21471 -10.10725 -10.09801
  Beta  occ. eigenvalues --  -10.07248 -10.06852 -10.06435 -10.06410 -10.06264
  Beta  occ. eigenvalues --  -10.06261 -10.06231 -10.06187 -10.06165 -10.06014
  Beta  occ. eigenvalues --  -10.05555 -10.05013  -0.97246  -0.79935  -0.74610
  Beta  occ. eigenvalues --   -0.70738  -0.69242  -0.66445  -0.63498  -0.62828
  Beta  occ. eigenvalues --   -0.61452  -0.56675  -0.51952  -0.51804  -0.50039
  Beta  occ. eigenvalues --   -0.48589  -0.46267  -0.44358  -0.41661  -0.39206
  Beta  occ. eigenvalues --   -0.37843  -0.37328  -0.35401  -0.35208  -0.33692
  Beta  occ. eigenvalues --   -0.33322  -0.32220  -0.31417  -0.31322  -0.30419
  Beta  occ. eigenvalues --   -0.30075  -0.28962  -0.26640  -0.26382  -0.25247
  Beta  occ. eigenvalues --   -0.24984  -0.24396  -0.23617  -0.21998  -0.21611
  Beta  occ. eigenvalues --   -0.21478  -0.21113  -0.17620  -0.15955  -0.14860
  Beta  occ. eigenvalues --   -0.14417  -0.11759
  Beta virt. eigenvalues --    0.06600   0.07281   0.07884   0.08417   0.08776
  Beta virt. eigenvalues --    0.09225   0.09331   0.09471   0.09884   0.10320
  Beta virt. eigenvalues --    0.10617   0.11692   0.12051   0.12139   0.12321

 Mulliken charges and spin densities:
               1          2
     1  C    0.232671  -0.885108
     2  C   -0.272786  -0.007234
     3  C   -0.197906   0.056404
     4  C   -0.201172   0.038514
     5  C   -0.111360  -0.405321
     6  C   -0.047062  -0.185204
     7  N    0.245599   0.087211
     8  C   -0.033707  -0.489638
     9  C    0.041912  -0.029552
    10  N   -0.064267  -0.010827
    11  N   -0.144767   0.047483
    12  C    0.609290  -0.003441
    13  C   -0.438778   0.393972
    14  C   -0.522495  -0.069893
    15  C    0.195026  -0.138881
    16  C   -0.367682  -0.089961
    17  C   -0.627022   0.349544
    18  H    0.001399   0.131598
    19  H   -0.214482   0.348314
    20  H   -0.006074   0.138710
    21  H   -0.153670   0.307740
    22  H   -0.120823   0.260042
    23  H    0.698044  -0.344363
    24  H    0.002471   0.122609
    25  H    0.144646   0.039413
    26  H    0.131077   0.038639
    27  H    0.225642  -0.068919
    28  H   -0.084934   0.234822
    29  H   -0.079698   0.311310
    30  H   -0.046811   0.143102
    31  H    0.149579  -0.006020
    32  H    0.107327   0.050470
    33  H    0.010912   0.122684
    34  H   -0.001416   0.131657
    35  H   -0.125755   0.272815
    36  H    0.067070   0.107307
 Sum of Mulliken charges =  -1.00000   1.00000

 Dipole moment (field-independent basis, Debye):
    X=              0.4326    Y=             -1.5918    Z=             -1.9802  Tot=              2.5773
 Quadrupole moment (field-independent basis, Debye-Ang):
   XX=           -163.8257   YY=           -155.5664   ZZ=           -125.7745
   XY=             -9.2309   XZ=              5.3082   YZ=              0.0844

 Summary of Natural Population Analysis:

                                       Natural Population
                Natural  -----------------------------------------------
    Atom  No    Charge         Core      Valence    Rydberg      Total
 -----------------------------------------------------------------------
      C    1   -0.28609      0.99967     2.28214    0.00428     3.28609
      C    2   -0.19201      0.99964     2.18413    0.00824     3.19201
      C    3   -0.19575      0.99962     2.18706    0.00906     3.19575
      C    4   -0.19331      0.99962     2.18665    0.00704     3.19331
      C    5   -0.19558      0.99962     2.18774    0.00823     3.19558
      C    6   -0.08982      0.99960     2.07781    0.01240     3.08982
      N    7   -0.09274      0.99962     2.57970    0.01342     3.59274
      C    8    0.07331      0.99950     1.91364    0.01355     2.92669
      C    9   -0.04099      0.99954     2.02967    0.01177     3.04099
      N   10   -0.15052      0.99976     2.63639    0.01437     3.65052
      N   11   -0.03975      0.99978     2.52126    0.01871     3.53975
      C   12   -0.01889      0.99949     2.00989    0.00950     3.01889
      C   13   -0.08582      0.99953     2.07672    0.00957     3.08582
      C   14   -0.10404      0.99957     2.09506    0.00942     3.10404
      C   15   -0.06512      0.99957     2.05495    0.01061     3.06512
      C   16   -0.11090      0.99957     2.10122    0.01012     3.11090
      C   17   -0.08393      0.99953     2.07538    0.00902     3.08393
      H   18    0.09467      0.00000     0.40426    0.00107     0.40533
      H   19    0.09796      0.00000     0.40099    0.00104     0.40204
      H   20    0.09327      0.00000     0.40566    0.00108     0.40673
      H   21    0.09371      0.00000     0.40485    0.00144     0.40629
      H   22    0.09619      0.00000     0.40274    0.00108     0.40381
      H   23    0.10677      0.00000     0.39084    0.00240     0.39323
      H   24    0.09474      0.00000     0.40421    0.00105     0.40526
      H   25    0.10208      0.00000     0.39658    0.00134     0.39792
      H   26    0.09422      0.00000     0.40479    0.00099     0.40578
      H   27    0.10336      0.00000     0.39547    0.00117     0.39664
      H   28    0.09899      0.00000     0.39996    0.00105     0.40101
      H   29    0.10594      0.00000     0.39259    0.00148     0.39406
      H   30    0.10822      0.00000     0.39015    0.00163     0.39178
      H   31    0.09778      0.00000     0.40130    0.00092     0.40222
      H   32    0.09840      0.00000     0.40064    0.00096     0.40160
      H   33    0.09596      0.00000     0.40321    0.00083     0.40404
      H   34    0.09342      0.00000     0.40581    0.00076     0.40658
      H   35    0.09779      0.00000     0.40142    0.00079     0.40221
      H   36    0.09849      0.00000     0.40022    0.00129     0.40151
 =======================================================================
   * Total *    0.00000     16.99321    44.80510    0.20168    62.00000

 Normal termination of Gaussian 16 at Mon Dec 14 18:25:01 2020.
