 Gaussian 16, Revision A.03,

 -----------------------------------------------------------
 # opt freq B3LYP/6-31G(d) empiricaldispersion=gd3bj scf=xqc
 -----------------------------------------------------------

 -------------------------------
 CID_154522087_JID_8035_neutraal
 -------------------------------
 Symbolic Z-matrix:
 Charge =  0 Multiplicity = 1

 SCF Done:  E(RB3LYP) =  -1106.42901548     A.U. after   15 cycles
 SCF Done:  E(RB3LYP) =  -1106.43931339     A.U. after   14 cycles
 SCF Done:  E(RB3LYP) =  -1106.44017812     A.U. after   15 cycles
 SCF Done:  E(RB3LYP) =  -1106.44277850     A.U. after   13 cycles
 SCF Done:  E(RB3LYP) =  -1106.44350694     A.U. after   13 cycles
 SCF Done:  E(RB3LYP) =  -1106.44301482     A.U. after   13 cycles
 SCF Done:  E(RB3LYP) =  -1106.44396496     A.U. after   13 cycles
 SCF Done:  E(RB3LYP) =  -1106.44417898     A.U. after   12 cycles
 SCF Done:  E(RB3LYP) =  -1106.44421875     A.U. after   11 cycles
 SCF Done:  E(RB3LYP) =  -1106.44426316     A.U. after   12 cycles
 SCF Done:  E(RB3LYP) =  -1106.44426982     A.U. after   10 cycles
 SCF Done:  E(RB3LYP) =  -1106.44427113     A.U. after    9 cycles
 SCF Done:  E(RB3LYP) =  -1106.44427144     A.U. after    9 cycles
 SCF Done:  E(RB3LYP) =  -1106.44427146     A.U. after    7 cycles
 Optimization completed.
    -- Stationary point found.
 Normal termination of Gaussian 16 at Fri Dec 11 18:41:28 2020.

 --------------------------------------------------------------------
 #N Geom=AllCheck Guess=TCheck SCRF=Check GenChk RB3LYP/6-31G(d) Freq
 --------------------------------------------------------------------

 Structure from the checkpoint file:  "JID_8035.chk"
 -------------------------------
 CID_154522087_JID_8035_neutraal
 -------------------------------
 Charge =  0 Multiplicity = 1

 SCF Done:  E(RB3LYP) =  -1106.44427146     A.U. after    1 cycles

  Exact polarizability: 211.921  25.174 189.974 -18.773 -26.145 129.602
 Approx polarizability: 312.507  64.488 308.020 -57.599 -75.286 249.867

                      1                      2                      3
                      A                      A                      A
 Frequencies --     25.7486                27.9266                31.9114
 Red. masses --      9.8393                 4.8822                 4.5553
 Frc consts  --      0.0038                 0.0022                 0.0027
 IR Inten    --      0.2330                 0.1538                 0.3601

                      4                      5                      6
                      A                      A                      A
 Frequencies --     51.9633                63.4397               103.3737
 Red. masses --      5.6407                 6.2244                 8.1221
 Frc consts  --      0.0090                 0.0148                 0.0511
 IR Inten    --      0.2369                 0.5586                 0.8919

                      7                      8                      9
                      A                      A                      A
 Frequencies --    151.1142               157.4960               194.3087
 Red. masses --      5.7768                 6.0044                 5.5261
 Frc consts  --      0.0777                 0.0878                 0.1229
 IR Inten    --      1.0248                 0.9455                 2.0318

                     10                     11                     12
                      A                      A                      A
 Frequencies --    254.5429               292.5987               330.4498
 Red. masses --      4.7349                 7.7307                 7.2393
 Frc consts  --      0.1808                 0.3900                 0.4658
 IR Inten    --      6.9076                 4.5069                 0.3676

                     13                     14                     15
                      A                      A                      A
 Frequencies --    362.6586               411.1404               416.4670
 Red. masses --      9.0922                 2.9462                 3.0047
 Frc consts  --      0.7046                 0.2934                 0.3071
 IR Inten    --     15.3081                 0.1974                 0.0494

                     16                     17                     18
                      A                      A                      A
 Frequencies --    434.5940               458.0958               483.2397
 Red. masses --      4.2535                10.0759                 7.0149
 Frc consts  --      0.4733                 1.2458                 0.9651
 IR Inten    --      0.7135                 3.9488                 1.3331

                     19                     20                     21
                      A                      A                      A
 Frequencies --    496.5689               530.3113               604.6165
 Red. masses --      5.4694                 5.8375                 5.8244
 Frc consts  --      0.7946                 0.9673                 1.2545
 IR Inten    --      8.4503                17.7768                41.5437

                     22                     23                     24
                      A                      A                      A
 Frequencies --    632.3649               634.7702               678.3253
 Red. masses --      6.3969                 6.4268                 6.4632
 Frc consts  --      1.5071                 1.5257                 1.7522
 IR Inten    --      0.2680                 0.4063                23.9558

                     25                     26                     27
                      A                      A                      A
 Frequencies --    698.3857               709.8922               716.0444
 Red. masses --      2.8066                 2.4282                 1.8692
 Frc consts  --      0.8065                 0.7210                 0.5647
 IR Inten    --     16.2997                28.1247                41.0206

                     28                     29                     30
                      A                      A                      A
 Frequencies --    747.6494               779.3341               801.7061
 Red. masses --      2.6770                 2.2135                 3.2951
 Frc consts  --      0.8816                 0.7921                 1.2478
 IR Inten    --     67.8223                15.2007                29.2775

                     31                     32                     33
                      A                      A                      A
 Frequencies --    858.8198               860.8135               862.5484
 Red. masses --      1.8972                 1.9681                 1.3731
 Frc consts  --      0.8245                 0.8592                 0.6019
 IR Inten    --      9.5106                 9.0249                 1.1797

                     34                     35                     36
                      A                      A                      A
 Frequencies --    869.1858               936.7080               948.9531
 Red. masses --      3.5674                 1.4502                 1.4255
 Frc consts  --      1.5879                 0.7497                 0.7563
 IR Inten    --      5.6954                 0.8854                 2.7534

                     37                     38                     39
                      A                      A                      A
 Frequencies --    975.2711               984.0716               995.3377
 Red. masses --      1.3558                 1.3675                 3.5681
 Frc consts  --      0.7598                 0.7802                 2.0827
 IR Inten    --      0.1820                 1.2523                50.3901

                     40                     41                     42
                      A                      A                      A
 Frequencies --   1003.0022              1011.7761              1023.3971
 Red. masses --      1.3804                 1.3085                 6.0315
 Frc consts  --      0.8182                 0.7892                 3.7219
 IR Inten    --      8.2091                 2.3124                 0.1708

                     43                     44                     45
                      A                      A                      A
 Frequencies --   1023.9015              1060.4087              1061.5713
 Red. masses --      6.1528                 2.2448                 2.1086
 Frc consts  --      3.8005                 1.4872                 1.4001
 IR Inten    --      2.1568                 1.8048                 0.9295

                     46                     47                     48
                      A                      A                      A
 Frequencies --   1115.6638              1121.2859              1164.2347
 Red. masses --      1.6380                 1.5675                 6.6118
 Frc consts  --      1.2013                 1.1611                 5.2802
 IR Inten    --      2.3596                 3.8044                12.7815

                     49                     50                     51
                      A                      A                      A
 Frequencies --   1196.1201              1196.7202              1208.1712
 Red. masses --      1.1044                 1.1062                 2.0114
 Frc consts  --      0.9309                 0.9334                 1.7298
 IR Inten    --      0.0744                 3.1944                33.4292

                     52                     53                     54
                      A                      A                      A
 Frequencies --   1217.5552              1221.6906              1243.9312
 Red. masses --      1.1463                 1.2746                 2.3870
 Frc consts  --      1.0012                 1.1209                 2.1762
 IR Inten    --      8.0581                 3.9943                43.1368

                     55                     56                     57
                      A                      A                      A
 Frequencies --   1282.0719              1352.8638              1364.3484
 Red. masses --      2.4493                 1.8139                 3.3872
 Frc consts  --      2.3720                 1.9560                 3.7148
 IR Inten    --    137.4964                 3.0097                13.7958

                     58                     59                     60
                      A                      A                      A
 Frequencies --   1373.1934              1374.8879              1400.9827
 Red. masses --      1.9312                 2.0182                 1.2617
 Frc consts  --      2.1455                 2.2478                 1.4590
 IR Inten    --      4.8718                 4.4003                15.5898

                     61                     62                     63
                      A                      A                      A
 Frequencies --   1497.8429              1506.6045              1543.9870
 Red. masses --      2.2688                 2.1989                 2.1549
 Frc consts  --      2.9991                 2.9407                 3.0267
 IR Inten    --     18.6954                12.5979                 1.2413

                     64                     65                     66
                      A                      A                      A
 Frequencies --   1546.3234              1640.8182              1649.5973
 Red. masses --      2.1751                 5.3917                 5.5802
 Frc consts  --      3.0644                 8.5525                 8.9465
 IR Inten    --      6.9606                12.7861                 0.7648

                     67                     68                     69
                      A                      A                      A
 Frequencies --   1661.5738              1663.8032              1780.9358
 Red. masses --      5.4318                 5.4657                12.0626
 Frc consts  --      8.8355                 8.9145                22.5418
 IR Inten    --     21.6001                 1.5354                63.9950

                     70                     71                     72
                      A                      A                      A
 Frequencies --   2108.9925              3094.7634              3177.9529
 Red. masses --     12.4313                 1.0840                 1.0877
 Frc consts  --     32.5774                 6.1171                 6.4724
 IR Inten    --   1307.8626                27.5101                 8.0703

                     73                     74                     75
                      A                      A                      A
 Frequencies --   3191.2749              3191.3617              3200.3007
 Red. masses --      1.0862                 1.0865                 1.0903
 Frc consts  --      6.5176                 6.5197                 6.5792
 IR Inten    --      0.3753                 0.5302                13.3530

                     76                     77                     78
                      A                      A                      A
 Frequencies --   3202.8033              3208.6598              3213.1653
 Red. masses --      1.0900                 1.0940                 1.0949
 Frc consts  --      6.5878                 6.6361                 6.6604
 IR Inten    --     12.4809                18.4707                24.9247

                     79                     80                     81
                      A                      A                      A
 Frequencies --   3216.8851              3230.9852              3236.2365
 Red. masses --      1.0979                 1.0929                 1.0918
 Frc consts  --      6.6942                 6.7223                 6.7371
 IR Inten    --     15.6766                 6.8264                 5.7857

 - Thermochemistry -
 -------------------
 Temperature   298.150 Kelvin.  Pressure   1.00000 Atm.
 Atom     1 has atomic number  6 and mass  12.00000

 Molecular mass:   253.05614 amu.
 Principal axes and moments of inertia in atomic units:
                           1         2         3
     Eigenvalues --  3878.555276147.671598834.52760
           X            0.99933  -0.03629  -0.00354
           Y            0.03627   0.99932  -0.00636
           Z            0.00377   0.00623   0.99997
 This molecule is an asymmetric top.
 Rotational symmetry number  1.
 Warning -- assumption of classical behavior for rotation
           may cause significant error
 Rotational temperatures (Kelvin)      0.02233     0.01409     0.00980
 Rotational constants (GHZ):           0.46531     0.29356     0.20428
 Zero-point vibrational energy     582314.6 (Joules/Mol)
                                  139.17652 (Kcal/Mol)
 Warning -- explicit consideration of  21 degrees of freedom as
           vibrations may cause significant error
 Vibrational temperatures:     37.05    40.18    45.91    74.76    91.28
          (Kelvin)            148.73   217.42   226.60   279.57   366.23
                              420.98   475.44   521.78   591.54   599.20
                              625.28   659.10   695.27   714.45   763.00
                              869.91   909.83   913.29   975.96  1004.82
                             1021.38  1030.23  1075.70  1121.29  1153.48
                             1235.65  1238.52  1241.01  1250.56  1347.71
                             1365.33  1403.20  1415.86  1432.07  1443.10
                             1455.72  1472.44  1473.17  1525.69  1527.36
                             1605.19  1613.28  1675.07  1720.95  1721.81
                             1738.29  1751.79  1757.74  1789.74  1844.62
                             1946.47  1962.99  1975.72  1978.16  2015.70
                             2155.06  2167.67  2221.45  2224.81  2360.77
                             2373.40  2390.63  2393.84  2562.37  3034.37
                             4452.67  4572.37  4591.53  4591.66  4604.52
                             4608.12  4616.55  4623.03  4628.38  4648.67
                             4656.22

 Zero-point correction=                           0.221792 (Hartree/Particle)
 Thermal correction to Energy=                    0.236956
 Thermal correction to Enthalpy=                  0.237900
 Thermal correction to Gibbs Free Energy=         0.176014
 Sum of electronic and zero-point Energies=          -1106.222480
 Sum of electronic and thermal Energies=             -1106.207315
 Sum of electronic and thermal Enthalpies=           -1106.206371
 Sum of electronic and thermal Free Energies=        -1106.268258

                     E (Thermal)             CV                S
                      KCal/Mol        Cal/Mol-Kelvin    Cal/Mol-Kelvin
 Total                  148.692             57.250            130.251
 Electronic               0.000              0.000              0.000
 Translational            0.889              2.981             42.486
 Rotational               0.889              2.981             33.710
 Vibrational            146.915             51.288             54.056
 Vibration     1          0.593              1.985              6.133
 Vibration     2          0.593              1.984              5.972
 Vibration     3          0.594              1.983              5.707
 Vibration     4          0.596              1.977              4.741
 Vibration     5          0.597              1.972              4.347
 Vibration     6          0.605              1.947              3.390
 Vibration     7          0.619              1.901              2.658
 Vibration     8          0.621              1.894              2.580
 Vibration     9          0.635              1.848              2.186
 Vibration    10          0.665              1.755              1.699
 Vibration    11          0.688              1.688              1.459
 Vibration    12          0.713              1.615              1.258
 Vibration    13          0.737              1.549              1.111
 Vibration    14          0.775              1.446              0.923
 Vibration    15          0.780              1.434              0.904
 Vibration    16          0.795              1.395              0.844
 Vibration    17          0.816              1.343              0.772
 Vibration    18          0.839              1.287              0.701
 Vibration    19          0.852              1.258              0.667
 Vibration    20          0.885              1.183              0.587
 Vibration    21          0.963              1.022              0.442

                           ! Non-Optimized Parameters !
 Normal termination of Gaussian 16 at Fri Dec 11 18:52:49 2020.

 ----------------------------------------------------------------------
 # B3LYP/6-311++G(d,p) empiricaldispersion=gd3bj scf=xqc pop=npa geom=c
 heck
 ----------------------------------------------------------------------

 ---------------------------------------
 CID_154522087_JID_8035_Energie_neutraal
 ---------------------------------------
 Structure from the checkpoint file:  "JID_8035.chk"
 Charge =  0 Multiplicity = 1

 SCF Done:  E(RB3LYP) =  -1106.65265552     A.U. after   17 cycles
 Normal termination of Gaussian 16 at Fri Dec 11 18:57:41 2020.

 ----------------------------------------------------------------------
 # B3LYP/6-311++G(d,p) empiricaldispersion=gd3bj scf=xqc pop=npa geom=c
 heck
 ----------------------------------------------------------------------

 -------------------------------------
 CID_154522087_JID_8035_Energie_kation
 -------------------------------------
 Structure from the checkpoint file:  "JID_8035.chk"
 Charge =  1 Multiplicity = 2

 SCF Done:  E(UB3LYP) =  -1106.34317863     A.U. after   33 cycles
 SCF Done:  E(UB3LYP) =  -1106.34317903     a.u. after    3 cycles
 Normal termination of Gaussian 16 at Fri Dec 11 19:38:43 2020.
 Gaussian 16:  ES64L-G16RevA.03 25-Dec-2016

 ----------------------------------------------------------------------
 # B3LYP/6-311++G(d,p) empiricaldispersion=gd3bj scf=xqc pop=npa geom=c
 heck
 ----------------------------------------------------------------------

 ------------------------------------
 CID_154522087_JID_8035_Energie_anion
 ------------------------------------
 Structure from the checkpoint file:  "JID_8035.chk"
 Charge = -1 Multiplicity = 2

                         Standard orientation:
 ---------------------------------------------------------------------
 Center     Atomic      Atomic             Coordinates (Angstroms)
 Number     Number       Type             X           Y           Z
 ---------------------------------------------------------------------
      1          6           0       -1.115528    3.686801    0.849814
      2          6           0       -1.349899    2.528190    1.593677
      3          6           0       -1.174708    1.274564    1.011660
      4          6           0       -0.763817    1.172677   -0.321809
      5          6           0       -0.537598    2.332852   -1.065542
      6          6           0       -0.710767    3.587863   -0.481544
      7          6           0       -0.587298   -0.202466   -0.957694
      8          6           0        0.310982   -1.082692   -0.048165
      9          8           0       -0.200110   -1.932207    0.658253
     10          6           0        1.779080   -0.832095   -0.040008
     11          6           0        2.572602   -1.672560    0.757069
     12          6           0        3.951019   -1.500103    0.806061
     13          6           0        4.553655   -0.481785    0.062343
     14          6           0        3.772336    0.361908   -0.728671
     15          6           0        2.391280    0.188242   -0.782879
     16          7           0       -1.854530   -0.838743   -1.173313
     17          6           0       -2.650694   -1.494540   -0.551588
     18         16           0       -3.825994   -2.326917    0.109597
     19          1           0       -1.251359    4.663052    1.305995
     20          1           0       -1.668367    2.600664    2.629409
     21          1           0       -1.357735    0.372683    1.588433
     22          1           0       -0.234611    2.254416   -2.107019
     23          1           0       -0.534865    4.485321   -1.067514
     24          1           0       -0.105694   -0.083692   -1.932142
     25          1           0        2.081762   -2.454437    1.326116
     26          1           0        4.557739   -2.156599    1.422697
     27          1           0        5.630636   -0.345165    0.100807
     28          1           0        4.238167    1.157505   -1.302374
     29          1           0        1.798946    0.864644   -1.387148
 ---------------------------------------------------------------------

 SCF Done:  E(UB3LYP) =  -1106.68347417     A.U. after   26 cycles

 The electronic state is 2-A.
 Alpha  occ. eigenvalues --  -88.72074 -18.94265 -14.22176 -10.15049 -10.11126
 Alpha  occ. eigenvalues --  -10.08594 -10.07844 -10.07788 -10.07411 -10.07307
 Alpha  occ. eigenvalues --  -10.07165 -10.06823 -10.04721 -10.04595 -10.04188
 Alpha  occ. eigenvalues --  -10.03885 -10.03779 -10.03352  -7.80848  -5.77236
 Alpha  occ. eigenvalues --   -5.76590  -5.76486  -0.89093  -0.83855  -0.75773
 Alpha  occ. eigenvalues --   -0.72521  -0.68789  -0.65125  -0.64710  -0.62699
 Alpha  occ. eigenvalues --   -0.61772  -0.59770  -0.50993  -0.50246  -0.49602
 Alpha  occ. eigenvalues --   -0.47802  -0.44084  -0.42356  -0.39357  -0.38283
 Alpha  occ. eigenvalues --   -0.36612  -0.35174  -0.33470  -0.33028  -0.32340
 Alpha  occ. eigenvalues --   -0.32215  -0.32006  -0.30456  -0.29563  -0.28290
 Alpha  occ. eigenvalues --   -0.27522  -0.26932  -0.25847  -0.25116  -0.23941
 Alpha  occ. eigenvalues --   -0.23733  -0.22528  -0.22270  -0.21260  -0.15924
 Alpha  occ. eigenvalues --   -0.15599  -0.14687  -0.13175  -0.12935  -0.12721
 Alpha  occ. eigenvalues --   -0.10369   0.02414
 Alpha virt. eigenvalues --    0.07084   0.07594   0.08224   0.08544   0.08732
 Alpha virt. eigenvalues --    0.09308   0.09902   0.10136   0.11009   0.11268
 Alpha virt. eigenvalues --    0.11353   0.11566   0.12124   0.13247   0.13845

  Beta  occ. eigenvalues --  -88.72072 -18.93701 -14.22162 -10.14999 -10.11144
  Beta  occ. eigenvalues --  -10.08229 -10.07810 -10.07792 -10.07351 -10.07275
  Beta  occ. eigenvalues --  -10.07100 -10.06825 -10.04785 -10.04671 -10.04038
  Beta  occ. eigenvalues --  -10.03720 -10.03599 -10.03175  -7.80845  -5.77237
  Beta  occ. eigenvalues --   -5.76579  -5.76486  -0.88175  -0.83688  -0.75681
  Beta  occ. eigenvalues --   -0.72235  -0.68630  -0.65050  -0.64635  -0.62259
  Beta  occ. eigenvalues --   -0.61514  -0.59628  -0.50871  -0.49552  -0.49414
  Beta  occ. eigenvalues --   -0.47690  -0.43815  -0.42194  -0.39180  -0.38133
  Beta  occ. eigenvalues --   -0.36458  -0.34867  -0.33340  -0.32933  -0.32248
  Beta  occ. eigenvalues --   -0.32038  -0.31936  -0.30295  -0.29502  -0.27879
  Beta  occ. eigenvalues --   -0.27223  -0.26613  -0.25167  -0.24753  -0.23666
  Beta  occ. eigenvalues --   -0.23470  -0.22313  -0.21158  -0.20255  -0.15493
  Beta  occ. eigenvalues --   -0.15387  -0.14540  -0.12825  -0.12481  -0.11260
  Beta  occ. eigenvalues --   -0.09945
  Beta virt. eigenvalues --    0.07043   0.07338   0.08189   0.08357   0.08704
  Beta virt. eigenvalues --    0.09451   0.09591   0.10023   0.10177   0.11068
  Beta virt. eigenvalues --    0.11303   0.11483   0.11685   0.12231   0.13208

 Mulliken charges and spin densities:
               1          2
     1  C   -0.335359   0.046097
     2  C   -0.443580   0.028743
     3  C   -0.661068   0.017024
     4  C    0.941167   0.066847
     5  C    0.135159   0.008872
     6  C   -0.385263  -0.026450
     7  C    0.179750  -0.045794
     8  C   -0.510983   0.215518
     9  O   -0.318516   0.206674
    10  C    1.117307  -0.020953
    11  C    0.139805   0.189470
    12  C   -0.446361  -0.052115
    13  C   -0.352561   0.223851
    14  C   -0.425575  -0.041594
    15  C   -0.908289   0.129088
    16  N    0.167796   0.005579
    17  C    0.167032   0.035402
    18  S   -0.469298   0.016224
    19  H    0.118149  -0.003033
    20  H    0.156224  -0.001877
    21  H    0.145769   0.001031
    22  H    0.135456   0.013212
    23  H    0.141739   0.002149
    24  H    0.231667   0.020224
    25  H    0.179761  -0.011003
    26  H    0.116483   0.003567
    27  H    0.100030  -0.017744
    28  H    0.136470   0.002864
    29  H   -0.052911  -0.011874
 Sum of Mulliken charges =  -1.00000   1.00000

 Dipole moment (field-independent basis, Debye):
    X=              0.3882    Y=              5.1700    Z=             -1.0304  Tot=              5.2860
 Quadrupole moment (field-independent basis, Debye-Ang):
   XX=           -159.7080   YY=           -136.5609   ZZ=           -118.3979
   XY=             -5.3449   XZ=             -2.4119   YZ=             -0.2891

 Summary of Natural Population Analysis:

                                       Natural Population
                Natural  -----------------------------------------------
    Atom  No    Charge         Core      Valence    Rydberg      Total
 -----------------------------------------------------------------------
      C    1   -0.09767      0.99957     2.08907    0.00903     3.09767
      C    2   -0.09704      0.99958     2.08859    0.00887     3.09704
      C    3   -0.09219      0.99951     2.08483    0.00785     3.09219
      C    4   -0.00336      0.99948     1.99258    0.01130     3.00336
      C    5   -0.08886      0.99951     2.08116    0.00819     3.08886
      C    6   -0.10863      0.99957     2.10008    0.00898     3.10863
      C    7   -0.05564      0.99949     2.04078    0.01537     3.05564
      C    8    0.31838      0.99960     1.66104    0.02098     2.68162
      O    9   -0.23177      0.99988     3.22571    0.00618     4.23177
      C   10   -0.05933      0.99947     2.04977    0.01009     3.05933
      C   11   -0.04353      0.99954     2.03521    0.00878     3.04353
      C   12   -0.12996      0.99957     2.12122    0.00917     3.12996
      C   13   -0.05047      0.99958     2.04130    0.00959     3.05047
      C   14   -0.12877      0.99958     2.11957    0.00963     3.12877
      C   15   -0.06163      0.99954     2.05478    0.00731     3.06163
      N   16   -0.22299      0.99949     2.71069    0.01282     3.72299
      C   17    0.12928      0.99953     1.85593    0.01526     2.87072
      S   18   -0.04697      4.99944     3.03063    0.01690     8.04697
      H   19    0.09386      0.00000     0.40519    0.00095     0.40614
      H   20    0.09619      0.00000     0.40288    0.00094     0.40381
      H   21    0.11312      0.00000     0.38552    0.00135     0.38688
      H   22    0.09700      0.00000     0.40169    0.00131     0.40300
      H   23    0.09511      0.00000     0.40392    0.00097     0.40489
      H   24    0.10625      0.00000     0.39249    0.00127     0.39375
      H   25    0.10622      0.00000     0.39263    0.00115     0.39378
      H   26    0.09171      0.00000     0.40727    0.00102     0.40829
      H   27    0.08693      0.00000     0.41204    0.00104     0.41307
      H   28    0.09144      0.00000     0.40748    0.00108     0.40856
      H   29    0.09332      0.00000     0.40522    0.00146     0.40668
 =======================================================================
   * Total *   -0.00000     21.99191    43.79925    0.20883    66.00000

 Normal termination of Gaussian 16 at Fri Dec 11 19:48:54 2020.
