 Gaussian 16, Revision A.03,

 -----------------------------------------------------------
 # opt freq B3LYP/6-31G(d) empiricaldispersion=gd3bj scf=xqc
 -----------------------------------------------------------

 -------------------------------
 CID_126995834_JID_2757_neutraal
 -------------------------------
 Symbolic Z-matrix:
 Charge =  0 Multiplicity = 1

 SCF Done:  E(RB3LYP) =  -522.505889986     A.U. after   13 cycles
 SCF Done:  E(RB3LYP) =  -522.509208574     A.U. after   11 cycles
 SCF Done:  E(RB3LYP) =  -522.509533836     A.U. after   10 cycles
 SCF Done:  E(RB3LYP) =  -522.509884224     A.U. after   10 cycles
 SCF Done:  E(RB3LYP) =  -522.509995396     A.U. after   10 cycles
 SCF Done:  E(RB3LYP) =  -522.510052604     A.U. after   10 cycles
 SCF Done:  E(RB3LYP) =  -522.510111114     A.U. after    9 cycles
 SCF Done:  E(RB3LYP) =  -522.510136567     A.U. after    9 cycles
 SCF Done:  E(RB3LYP) =  -522.510154063     A.U. after    9 cycles
 SCF Done:  E(RB3LYP) =  -522.510156389     A.U. after    9 cycles
 SCF Done:  E(RB3LYP) =  -522.510157700     A.U. after    7 cycles
 SCF Done:  E(RB3LYP) =  -522.510158099     A.U. after    7 cycles
 SCF Done:  E(RB3LYP) =  -522.510158193     A.U. after    7 cycles
 SCF Done:  E(RB3LYP) =  -522.510158238     A.U. after    6 cycles
 Optimization completed.
    -- Stationary point found.
 Normal termination of Gaussian 16 at Wed Dec  9 17:57:47 2020.

 --------------------------------------------------------------------
 #N Geom=AllCheck Guess=TCheck SCRF=Check GenChk RB3LYP/6-31G(d) Freq
 --------------------------------------------------------------------

 Structure from the checkpoint file:  "JID_2757.chk"
 -------------------------------
 CID_126995834_JID_2757_neutraal
 -------------------------------
 Charge =  0 Multiplicity = 1

 SCF Done:  E(RB3LYP) =  -522.510158238     A.U. after    1 cycles

  Exact polarizability: 127.678  -2.678 104.679  -1.511   3.320  98.087
 Approx polarizability: 152.529  -3.734 153.140   0.217   4.582 150.364

                      1                      2                      3
                      A                      A                      A
 Frequencies --     44.0244                67.7905                93.6974
 Red. masses --      3.2694                 2.7304                 3.0835
 Frc consts  --      0.0037                 0.0074                 0.0159
 IR Inten    --      0.4008                 0.3565                 1.2340

                      4                      5                      6
                      A                      A                      A
 Frequencies --    115.1421               183.0174               233.4436
 Red. masses --      2.6949                 2.6336                 1.1693
 Frc consts  --      0.0211                 0.0520                 0.0375
 IR Inten    --      1.5795                 4.4669                 1.0668

                      7                      8                      9
                      A                      A                      A
 Frequencies --    237.8110               276.0825               294.6862
 Red. masses --      2.4068                 2.0526                 1.3723
 Frc consts  --      0.0802                 0.0922                 0.0702
 IR Inten    --      6.7355                 0.0883                 0.0398

                     10                     11                     12
                      A                      A                      A
 Frequencies --    335.8150               385.2164               390.6966
 Red. masses --      2.3472                 2.2606                 2.2223
 Frc consts  --      0.1560                 0.1976                 0.1999
 IR Inten    --      1.1007                 1.0598                 0.2871

                     13                     14                     15
                      A                      A                      A
 Frequencies --    415.3980               426.0141               467.7755
 Red. masses --      2.1799                 1.8705                 2.0659
 Frc consts  --      0.2216                 0.2000                 0.2663
 IR Inten    --      0.2661                 1.3012                 1.7563

                     16                     17                     18
                      A                      A                      A
 Frequencies --    526.6528               620.3634               738.5770
 Red. masses --      4.0581                 4.1776                 4.4106
 Frc consts  --      0.6632                 0.9473                 1.4176
 IR Inten    --      0.9138                 3.9619                 3.3679

                     19                     20                     21
                      A                      A                      A
 Frequencies --    772.2190               817.2363               832.9706
 Red. masses --      3.7142                 2.7502                 2.5170
 Frc consts  --      1.3050                 1.0822                 1.0290
 IR Inten    --      1.9211                 2.6613                 5.5655

                     22                     23                     24
                      A                      A                      A
 Frequencies --    858.2170               882.9023               908.1940
 Red. masses --      3.7723                 2.6799                 2.1683
 Frc consts  --      1.6370                 1.2308                 1.0537
 IR Inten    --      0.5438                17.2660                 2.1548

                     25                     26                     27
                      A                      A                      A
 Frequencies --    912.0244               944.4126               953.2266
 Red. masses --      1.5010                 1.2098                 1.9845
 Frc consts  --      0.7356                 0.6357                 1.0624
 IR Inten    --      3.3689                 1.3163                 5.2408

                     28                     29                     30
                      A                      A                      A
 Frequencies --    969.8763               981.4061               984.2045
 Red. masses --      1.8202                 1.5625                 1.7529
 Frc consts  --      1.0088                 0.8867                 1.0004
 IR Inten    --     10.1112                 1.6377                 4.3609

                     31                     32                     33
                      A                      A                      A
 Frequencies --   1004.7696              1010.9193              1035.2884
 Red. masses --      1.6548                 2.7164                 2.4804
 Frc consts  --      0.9843                 1.6356                 1.5664
 IR Inten    --      1.0409                 4.9130                29.0214

                     34                     35                     36
                      A                      A                      A
 Frequencies --   1071.3578              1116.8788              1125.3762
 Red. masses --      1.6213                 2.3949                 1.9795
 Frc consts  --      1.0964                 1.7601                 1.4771
 IR Inten    --     13.7346                35.6717                41.0692

                     37                     38                     39
                      A                      A                      A
 Frequencies --   1134.5225              1155.0553              1176.6881
 Red. masses --      1.7382                 2.2583                 1.2806
 Frc consts  --      1.3182                 1.7752                 1.0447
 IR Inten    --     35.7279                 3.4224                 4.3711

                     40                     41                     42
                      A                      A                      A
 Frequencies --   1198.8225              1206.8196              1217.3386
 Red. masses --      1.6179                 1.7685                 1.8669
 Frc consts  --      1.3699                 1.5175                 1.6300
 IR Inten    --     31.6105                 2.8235                21.5500

                     43                     44                     45
                      A                      A                      A
 Frequencies --   1237.8631              1255.8186              1278.6482
 Red. masses --      1.4347                 1.5753                 1.3175
 Frc consts  --      1.2953                 1.4638                 1.2691
 IR Inten    --      3.4016                13.3636                 9.3815

                     46                     47                     48
                      A                      A                      A
 Frequencies --   1296.2149              1327.0852              1346.5696
 Red. masses --      1.5032                 1.3202                 1.5421
 Frc consts  --      1.4881                 1.3699                 1.6475
 IR Inten    --     14.0091                 1.6955                 7.8403

                     49                     50                     51
                      A                      A                      A
 Frequencies --   1352.1221              1357.9503              1368.6767
 Red. masses --      1.2560                 1.4408                 1.5803
 Frc consts  --      1.3529                 1.5654                 1.7441
 IR Inten    --      4.3073                13.5588                 1.4488

                     52                     53                     54
                      A                      A                      A
 Frequencies --   1374.9028              1391.6748              1404.5421
 Red. masses --      1.4922                 1.3944                 1.3816
 Frc consts  --      1.6620                 1.5912                 1.6058
 IR Inten    --      0.3091                 6.5584                19.2103

                     55                     56                     57
                      A                      A                      A
 Frequencies --   1411.7592              1429.1778              1433.2691
 Red. masses --      1.3055                 1.3698                 1.4202
 Frc consts  --      1.5330                 1.6485                 1.7189
 IR Inten    --      9.2857                 3.4482                 7.5451

                     58                     59                     60
                      A                      A                      A
 Frequencies --   1442.1518              1452.4493              1499.4988
 Red. masses --      1.3813                 1.2626                 1.0904
 Frc consts  --      1.6926                 1.5693                 1.4446
 IR Inten    --      5.6490                 8.4181                 1.6484

                     61                     62                     63
                      A                      A                      A
 Frequencies --   1508.5385              1520.0270              1524.6581
 Red. masses --      1.1181                 1.0483                 1.0506
 Frc consts  --      1.4991                 1.4271                 1.4389
 IR Inten    --      6.7150                 2.0021                 4.2189

                     64                     65                     66
                      A                      A                      A
 Frequencies --   1535.0805              1535.7372              1543.5983
 Red. masses --      1.0547                 1.0758                 1.0591
 Frc consts  --      1.4643                 1.4949                 1.4868
 IR Inten    --      4.4306                 3.2185                 9.9605

                     67                     68                     69
                      A                      A                      A
 Frequencies --   1551.9752              1563.3573              2957.1470
 Red. masses --      1.0943                 1.0882                 1.0711
 Frc consts  --      1.5529                 1.5670                 5.5185
 IR Inten    --      4.9795                 2.6073                61.4873

                     70                     71                     72
                      A                      A                      A
 Frequencies --   2966.0715              2988.9015              3018.4373
 Red. masses --      1.0695                 1.0673                 1.0654
 Frc consts  --      5.5437                 5.6180                 5.7189
 IR Inten    --     77.6735                50.3430                95.0857

                     73                     74                     75
                      A                      A                      A
 Frequencies --   3021.2138              3023.9162              3035.5728
 Red. masses --      1.0819                 1.0916                 1.0365
 Frc consts  --      5.8186                 5.8810                 5.6276
 IR Inten    --      8.8725                26.8110                33.8837

                     76                     77                     78
                      A                      A                      A
 Frequencies --   3039.1756              3041.7017              3055.1551
 Red. masses --      1.0867                 1.0426                 1.0937
 Frc consts  --      5.9136                 5.6833                 6.0145
 IR Inten    --     27.3735                18.4708                55.1438

                     79                     80                     81
                      A                      A                      A
 Frequencies --   3070.0163              3079.7782              3096.7256
 Red. masses --      1.1010                 1.0666                 1.0862
 Frc consts  --      6.1140                 5.9604                 6.1371
 IR Inten    --     48.6930                20.1350                66.6655

                     82                     83                     84
                      A                      A                      A
 Frequencies --   3097.4319              3102.4879              3104.0901
 Red. masses --      1.1010                 1.1009                 1.0877
 Frc consts  --      6.2236                 6.2432                 6.1748
 IR Inten    --     14.7452                60.1033                53.8375

                     85                     86                     87
                      A                      A                      A
 Frequencies --   3111.1025              3127.2644              3149.6730
 Red. masses --      1.1020                 1.0997                 1.1020
 Frc consts  --      6.2841                 6.3365                 6.4410
 IR Inten    --     46.6763                36.3157                15.5328

 - Thermochemistry -
 -------------------
 Temperature   298.150 Kelvin.  Pressure   1.00000 Atm.
 Atom     1 has atomic number  6 and mass  12.00000

 Molecular mass:   169.14666 amu.
 Principal axes and moments of inertia in atomic units:
                           1         2         3
     Eigenvalues --   898.966033355.128033426.18808
           X            0.99995   0.00442  -0.00928
           Y           -0.00356   0.99589   0.09053
           Z            0.00964  -0.09049   0.99585
 This molecule is an asymmetric top.
 Rotational symmetry number  1.
 Warning -- assumption of classical behavior for rotation
           may cause significant error
 Rotational temperatures (Kelvin)      0.09635     0.02582     0.02528
 Rotational constants (GHZ):           2.00757     0.53791     0.52675
 Zero-point vibrational energy     748576.0 (Joules/Mol)
                                  178.91397 (Kcal/Mol)
 Warning -- explicit consideration of  17 degrees of freedom as
           vibrations may cause significant error
 Vibrational temperatures:     63.34    97.54   134.81   165.66   263.32
          (Kelvin)            335.87   342.16   397.22   423.99   483.16
                              554.24   562.13   597.67   612.94   673.02
                              757.74   892.56  1062.65  1111.05  1175.82
                             1198.46  1234.78  1270.30  1306.69  1312.20
                             1358.80  1371.48  1395.44  1412.02  1416.05
                             1445.64  1454.49  1489.55  1541.44  1606.94
                             1619.17  1632.32  1661.87  1692.99  1724.84
                             1736.34  1751.48  1781.01  1806.84  1839.69
                             1864.96  1909.38  1937.41  1945.40  1953.79
                             1969.22  1978.18  2002.31  2020.82  2031.21
                             2056.27  2062.15  2074.93  2089.75  2157.44
                             2170.45  2186.98  2193.64  2208.64  2209.58
                             2220.89  2232.95  2249.32  4254.67  4267.52
                             4300.36  4342.86  4346.85  4350.74  4367.51
                             4372.70  4376.33  4395.69  4417.07  4431.11
                             4455.50  4456.51  4463.79  4466.09  4476.18
                             4499.44  4531.68

 Zero-point correction=                           0.285118 (Hartree/Particle)
 Thermal correction to Energy=                    0.296971
 Thermal correction to Enthalpy=                  0.297915
 Thermal correction to Gibbs Free Energy=         0.247090
 Sum of electronic and zero-point Energies=           -522.225041
 Sum of electronic and thermal Energies=              -522.213187
 Sum of electronic and thermal Enthalpies=            -522.212243
 Sum of electronic and thermal Free Energies=         -522.263068

                     E (Thermal)             CV                S
                      KCal/Mol        Cal/Mol-Kelvin    Cal/Mol-Kelvin
 Total                  186.352             46.307            106.971
 Electronic               0.000              0.000              0.000
 Translational            0.889              2.981             41.285
 Rotational               0.889              2.981             30.714
 Vibrational            184.575             40.346             34.972
 Vibration     1          0.595              1.980              5.069
 Vibration     2          0.598              1.970              4.217
 Vibration     3          0.603              1.954              3.581
 Vibration     4          0.608              1.937              3.180
 Vibration     5          0.631              1.863              2.297
 Vibration     6          0.654              1.790              1.852
 Vibration     7          0.656              1.783              1.819
 Vibration     8          0.678              1.718              1.558
 Vibration     9          0.689              1.684              1.447
 Vibration    10          0.717              1.604              1.232
 Vibration    11          0.754              1.502              1.019
 Vibration    12          0.758              1.490              0.997
 Vibration    13          0.779              1.437              0.908
 Vibration    14          0.788              1.414              0.872
 Vibration    15          0.825              1.322              0.744
 Vibration    16          0.882              1.191              0.595
 Vibration    17          0.980              0.989              0.416

 Optimization completed.
    -- Stationary point found.
 Normal termination of Gaussian 16 at Wed Dec  9 18:06:18 2020.

 ----------------------------------------------------------------------
 # B3LYP/6-311++G(d,p) empiricaldispersion=gd3bj scf=xqc pop=npa geom=c
 heck
 ----------------------------------------------------------------------

 ---------------------------------------
 CID_126995834_JID_2757_Energie_neutraal
 ---------------------------------------
 Structure from the checkpoint file:  "JID_2757.chk"
 Charge =  0 Multiplicity = 1

 SCF Done:  E(RB3LYP) =  -522.654132096     A.U. after   13 cycles
 Normal termination of Gaussian 16 at Wed Dec  9 18:09:30 2020.

 ----------------------------------------------------------------------
 # B3LYP/6-311++G(d,p) empiricaldispersion=gd3bj scf=xqc pop=npa geom=c
 heck
 ----------------------------------------------------------------------

 -------------------------------------
 CID_126995834_JID_2757_Energie_kation
 -------------------------------------
 Structure from the checkpoint file:  "JID_2757.chk"
 Charge =  1 Multiplicity = 2

 SCF Done:  E(UB3LYP) =  -522.381095993     A.U. after   18 cycles
 Normal termination of Gaussian 16 at Wed Dec  9 18:16:16 2020.
 Gaussian 16:  ES64L-G16RevA.03 25-Dec-2016

 ----------------------------------------------------------------------
 # B3LYP/6-311++G(d,p) empiricaldispersion=gd3bj scf=xqc pop=npa geom=c
 heck
 ----------------------------------------------------------------------

 ------------------------------------
 CID_126995834_JID_2757_Energie_anion
 ------------------------------------
 Structure from the checkpoint file:  "JID_2757.chk"
 Charge = -1 Multiplicity = 2

                         Standard orientation:
 ---------------------------------------------------------------------
 Center     Atomic      Atomic             Coordinates (Angstroms)
 Number     Number       Type             X           Y           Z
 ---------------------------------------------------------------------
      1          6           0        2.320485    1.503692   -0.429870
      2          6           0        2.575391   -0.005645   -0.373491
      3          6           0        4.034525   -0.307189   -0.011778
      4          6           0        1.641923   -0.738979    0.616988
      5          7           0        0.209581   -0.578233    0.456321
      6          6           0       -0.434865    0.504900    1.187785
      7          6           0       -1.978819    0.429684    1.059764
      8          6           0       -2.384280   -0.979259    0.591957
      9          6           0       -1.864335   -0.867340   -0.843208
     10          6           0       -0.326469   -0.943881   -0.843993
     11          8           0       -2.292121    0.436092   -1.281842
     12          6           0       -2.491857    1.257141   -0.124346
     13          1           0        2.432664    1.959181    0.562592
     14          1           0        1.312894    1.728582   -0.791938
     15          1           0        3.033755    1.994060   -1.102949
     16          1           0        2.387049   -0.416161   -1.375965
     17          1           0        4.284346    0.103988    0.975170
     18          1           0        4.226258   -1.386478    0.019062
     19          1           0        4.723361    0.135917   -0.739773
     20          1           0        1.873243   -1.814602    0.550442
     21          1           0        1.896702   -0.427132    1.639434
     22          1           0       -0.145934    0.391481    2.240934
     23          1           0       -0.107961    1.514877    0.883356
     24          1           0       -2.451497    0.738167    1.997107
     25          1           0       -3.471181   -1.109666    0.611129
     26          1           0       -1.903984   -1.778482    1.159601
     27          1           0       -2.287157   -1.592074   -1.544371
     28          1           0        0.029355   -0.315262   -1.679325
     29          1           0       -0.000821   -1.973755   -1.053030
     30          1           0       -1.949057    2.201689   -0.252032
     31          1           0       -3.562342    1.485823   -0.017802
 ---------------------------------------------------------------------

 SCF Done:  E(UB3LYP) =  -522.638709345     A.U. after   27 cycles

 The electronic state is 2-A.
 Alpha  occ. eigenvalues --  -19.01355 -14.19486 -10.11642 -10.10689 -10.08916
 Alpha  occ. eigenvalues --  -10.08778 -10.08710 -10.07444 -10.07171 -10.06379
 Alpha  occ. eigenvalues --  -10.06082 -10.05737  -0.93315  -0.82119  -0.70785
 Alpha  occ. eigenvalues --   -0.68439  -0.66241  -0.59269  -0.58443  -0.58191
 Alpha  occ. eigenvalues --   -0.52428  -0.47603  -0.46493  -0.44045  -0.41651
 Alpha  occ. eigenvalues --   -0.38375  -0.37658  -0.36404  -0.35419  -0.34524
 Alpha  occ. eigenvalues --   -0.33052  -0.31046  -0.29911  -0.29351  -0.28806
 Alpha  occ. eigenvalues --   -0.28527  -0.27559  -0.26884  -0.24876  -0.24396
 Alpha  occ. eigenvalues --   -0.24011  -0.23162  -0.22303  -0.21699  -0.20857
 Alpha  occ. eigenvalues --   -0.15095  -0.09805   0.04475
 Alpha virt. eigenvalues --    0.06334   0.07265   0.08072   0.08533   0.08990
 Alpha virt. eigenvalues --    0.09292   0.09896   0.10804   0.11008   0.11409
 Alpha virt. eigenvalues --    0.11841   0.11948   0.13482   0.13882   0.14214

  Beta  occ. eigenvalues --  -19.01353 -14.19487 -10.11633 -10.10671 -10.08897
  Beta  occ. eigenvalues --  -10.08761 -10.08696 -10.07429 -10.07164 -10.06359
  Beta  occ. eigenvalues --  -10.06055 -10.05715  -0.93304  -0.82106  -0.70756
  Beta  occ. eigenvalues --   -0.68407  -0.66213  -0.59228  -0.58393  -0.58152
  Beta  occ. eigenvalues --   -0.52387  -0.47559  -0.46443  -0.44000  -0.41591
  Beta  occ. eigenvalues --   -0.38349  -0.37628  -0.36375  -0.35396  -0.34494
  Beta  occ. eigenvalues --   -0.33015  -0.31009  -0.29878  -0.29316  -0.28774
  Beta  occ. eigenvalues --   -0.28502  -0.27531  -0.26858  -0.24850  -0.24364
  Beta  occ. eigenvalues --   -0.23983  -0.23124  -0.22267  -0.21663  -0.20836
  Beta  occ. eigenvalues --   -0.15074  -0.09794
  Beta virt. eigenvalues --    0.06582   0.07318   0.08052   0.08572   0.09145
  Beta virt. eigenvalues --    0.09591   0.09809   0.10352   0.11178   0.11461
  Beta virt. eigenvalues --    0.11764   0.12245   0.12369   0.13621   0.14298

 Mulliken charges and spin densities:
               1          2
     1  C    0.455010  -1.047787
     2  C   -1.101926   1.711742
     3  C    0.289977  -1.009917
     4  C    0.820845  -1.397023
     5  N   -0.003001   0.185167
     6  C    0.916301  -1.351242
     7  C   -1.583879   1.864574
     8  C    0.868541  -1.626089
     9  C   -0.589967   0.732916
    10  C    0.428691  -0.867501
    11  O   -0.118899  -0.017614
    12  C    1.255659  -1.747943
    13  H   -0.023705   0.178758
    14  H    0.083504   0.072777
    15  H   -0.202928   0.333832
    16  H    0.047806   0.102817
    17  H   -0.078266   0.209328
    18  H   -0.229633   0.358807
    19  H   -0.185144   0.319654
    20  H    0.043950   0.113319
    21  H   -0.013959   0.159653
    22  H   -0.265438   0.406986
    23  H    0.060557   0.020946
    24  H   -0.816920   1.061947
    25  H   -0.462236   0.646470
    26  H   -0.025868   0.181162
    27  H   -0.228451   0.471554
    28  H    0.156952   0.010458
    29  H   -0.273014   0.402606
    30  H   -0.099976   0.239750
    31  H   -0.124585   0.279891
 Sum of Mulliken charges =  -1.00000   1.00000

 Dipole moment (field-independent basis, Debye):
    X=              1.1845    Y=              0.1644    Z=             -1.8011  Tot=              2.1620
 Quadrupole moment (field-independent basis, Debye-Ang):
   XX=           -152.5882   YY=           -114.1028   ZZ=           -116.6278
   XY=              0.6440   XZ=              5.6289   YZ=             -1.4277

 Summary of Natural Population Analysis:

                                       Natural Population
                Natural  -----------------------------------------------
    Atom  No    Charge         Core      Valence    Rydberg      Total
 -----------------------------------------------------------------------
      C    1   -0.28716      0.99965     2.28133    0.00619     3.28716
      C    2   -0.12413      0.99961     2.11499    0.00953     3.12413
      C    3   -0.28236      0.99965     2.27772    0.00499     3.28236
      C    4   -0.07332      0.99959     2.06149    0.01224     3.07332
      N    5   -0.29124      0.99971     2.77853    0.01300     3.79124
      C    6   -0.07522      0.99959     2.06359    0.01204     3.07522
      C    7   -0.13071      0.99960     2.11825    0.01286     3.13071
      C    8   -0.20238      0.99961     2.19309    0.00969     3.20238
      C    9    0.06016      0.99957     1.92394    0.01634     2.93984
      C   10   -0.08970      0.99958     2.07888    0.01124     3.08970
      O   11   -0.31020      0.99989     3.30195    0.00835     4.31020
      C   12   -0.00798      0.99956     1.99521    0.01320     3.00798
      H   13    0.09659      0.00000     0.40241    0.00100     0.40341
      H   14    0.10155      0.00000     0.39704    0.00142     0.39845
      H   15    0.09784      0.00000     0.40132    0.00084     0.40216
      H   16    0.09169      0.00000     0.40643    0.00188     0.40831
      H   17    0.09549      0.00000     0.40337    0.00114     0.40451
      H   18    0.09916      0.00000     0.39962    0.00122     0.40084
      H   19    0.09872      0.00000     0.40018    0.00110     0.40128
      H   20    0.09210      0.00000     0.40667    0.00123     0.40790
      H   21    0.09365      0.00000     0.40501    0.00134     0.40635
      H   22    0.09706      0.00000     0.40124    0.00170     0.40294
      H   23    0.08118      0.00000     0.41694    0.00188     0.41882
      H   24    0.10951      0.00000     0.38772    0.00277     0.39049
      H   25    0.10385      0.00000     0.39453    0.00162     0.39615
      H   26    0.11118      0.00000     0.38732    0.00149     0.38882
      H   27    0.09371      0.00000     0.40499    0.00130     0.40629
      H   28    0.08753      0.00000     0.41074    0.00173     0.41247
      H   29    0.09525      0.00000     0.40325    0.00149     0.40475
      H   30    0.08524      0.00000     0.41329    0.00147     0.41476
      H   31    0.08295      0.00000     0.41549    0.00155     0.41705
 =======================================================================
   * Total *    0.00000     11.99563    34.84656    0.15782    47.00000

 Normal termination of Gaussian 16 at Wed Dec  9 18:25:47 2020.
