 Gaussian 16, Revision A.03,

 -----------------------------------------------------------
 # opt freq B3LYP/6-31G(d) empiricaldispersion=gd3bj scf=xqc
 -----------------------------------------------------------

 -------------------------------
 CID_61596730_JID_10801_neutraal
 -------------------------------
 Symbolic Z-matrix:
 Charge =  0 Multiplicity = 1

 SCF Done:  E(RB3LYP) =  -974.460610686     A.U. after   15 cycles
 SCF Done:  E(RB3LYP) =  -974.465307078     A.U. after   13 cycles
 SCF Done:  E(RB3LYP) =  -974.462609779     A.U. after   14 cycles
 SCF Done:  E(RB3LYP) =  -974.465851517     A.U. after   13 cycles
 SCF Done:  E(RB3LYP) =  -974.467220922     A.U. after   13 cycles
 SCF Done:  E(RB3LYP) =  -974.467691296     A.U. after   12 cycles
 SCF Done:  E(RB3LYP) =  -974.467688042     A.U. after   12 cycles
 SCF Done:  E(RB3LYP) =  -974.468015616     A.U. after   12 cycles
 SCF Done:  E(RB3LYP) =  -974.468282599     A.U. after   12 cycles
 SCF Done:  E(RB3LYP) =  -974.468335912     A.U. after   12 cycles
 SCF Done:  E(RB3LYP) =  -974.468841614     A.U. after    8 cycles
 SCF Done:  E(RB3LYP) =  -974.468842836     A.U. after    8 cycles
 SCF Done:  E(RB3LYP) =  -974.468843347     A.U. after    8 cycles
 SCF Done:  E(RB3LYP) =  -974.468843727     A.U. after    8 cycles
 SCF Done:  E(RB3LYP) =  -974.468843819     A.U. after    7 cycles
 Optimization completed.
    -- Stationary point found.
 Normal termination of Gaussian 16 at Sat Dec 12 17:13:03 2020.

 --------------------------------------------------------------------
 #N Geom=AllCheck Guess=TCheck SCRF=Check GenChk RB3LYP/6-31G(d) Freq
 --------------------------------------------------------------------

 Structure from the checkpoint file:  "JID_10801.chk"
 -------------------------------
 CID_61596730_JID_10801_neutraal
 -------------------------------
 Charge =  0 Multiplicity = 1

 SCF Done:  E(RB3LYP) =  -974.468843819     A.U. after    1 cycles

  Exact polarizability: 183.439  -0.123 170.830  -2.484  -0.880 134.673
 Approx polarizability: 230.738 -11.347 239.388  -8.367  -9.240 220.475

                      1                      2                      3
                      A                      A                      A
 Frequencies --     22.1655                24.6899                36.5405
 Red. masses --      4.3850                 4.7063                 8.5091
 Frc consts  --      0.0013                 0.0017                 0.0067
 IR Inten    --      0.4234                 0.3138                 1.2111

                      4                      5                      6
                      A                      A                      A
 Frequencies --     48.1659                49.8648                61.1104
 Red. masses --      6.9849                 4.5104                 3.4239
 Frc consts  --      0.0095                 0.0066                 0.0075
 IR Inten    --      0.6322                 0.4418                 1.2926

                      7                      8                      9
                      A                      A                      A
 Frequencies --     81.0329                92.5006               119.5115
 Red. masses --      5.2335                 4.4686                 4.6036
 Frc consts  --      0.0202                 0.0225                 0.0387
 IR Inten    --      0.9888                 1.0051                 2.5257

                     10                     11                     12
                      A                      A                      A
 Frequencies --    124.0792               139.7780               145.0577
 Red. masses --      3.2759                 2.7002                 4.4446
 Frc consts  --      0.0297                 0.0311                 0.0551
 IR Inten    --      4.3007                 0.3383                 3.9487

                     13                     14                     15
                      A                      A                      A
 Frequencies --    165.6455               184.0853               207.6205
 Red. masses --      3.7330                 2.3021                 3.8194
 Frc consts  --      0.0603                 0.0460                 0.0970
 IR Inten    --      0.8538                 0.9438                 1.9832

                     16                     17                     18
                      A                      A                      A
 Frequencies --    220.8910               242.7497               283.2439
 Red. masses --      3.1688                 1.6461                 1.1734
 Frc consts  --      0.0911                 0.0571                 0.0555
 IR Inten    --      0.9562                13.1097               181.3101

                     19                     20                     21
                      A                      A                      A
 Frequencies --    289.0713               311.0176               320.6227
 Red. masses --      2.4968                 4.0720                 2.8747
 Frc consts  --      0.1229                 0.2321                 0.1741
 IR Inten    --      4.6145                 3.1149                19.0563

                     22                     23                     24
                      A                      A                      A
 Frequencies --    338.1666               372.7696               377.4535
 Red. masses --      3.1651                 3.5967                 2.1678
 Frc consts  --      0.2133                 0.2945                 0.1820
 IR Inten    --     11.0668                11.7996                 5.8398

                     25                     26                     27
                      A                      A                      A
 Frequencies --    414.1953               426.7142               429.3423
 Red. masses --      2.1282                 3.7144                 2.5425
 Frc consts  --      0.2151                 0.3985                 0.2761
 IR Inten    --      3.4633                 3.5292                 7.8541

                     28                     29                     30
                      A                      A                      A
 Frequencies --    451.8696               497.5211               518.1312
 Red. masses --      2.7083                 1.9126                 1.7125
 Frc consts  --      0.3258                 0.2789                 0.2709
 IR Inten    --      9.0703                15.5181                 4.6058

                     31                     32                     33
                      A                      A                      A
 Frequencies --    532.8200               545.3731               597.2160
 Red. masses --      2.9274                 2.7764                 3.1406
 Frc consts  --      0.4897                 0.4865                 0.6600
 IR Inten    --     11.2365                20.6502                34.9145

                     34                     35                     36
                      A                      A                      A
 Frequencies --    642.5105               662.1773               693.2667
 Red. masses --      2.3737                 3.7491                 1.4677
 Frc consts  --      0.5774                 0.9686                 0.4156
 IR Inten    --     70.4625                 6.3480                13.1510

                     37                     38                     39
                      A                      A                      A
 Frequencies --    693.9721               758.7191               765.9689
 Red. masses --      1.7676                 1.9190                 2.3669
 Frc consts  --      0.5016                 0.6509                 0.8182
 IR Inten    --     51.4080                 6.7383                33.0810

                     40                     41                     42
                      A                      A                      A
 Frequencies --    780.5116               792.0388               815.6042
 Red. masses --      1.5655                 2.0950                 2.5026
 Frc consts  --      0.5619                 0.7743                 0.9809
 IR Inten    --      7.4658                 0.5386                 4.8465

                     43                     44                     45
                      A                      A                      A
 Frequencies --    837.5919               852.7223               858.1335
 Red. masses --      1.6786                 2.2214                 3.0709
 Frc consts  --      0.6938                 0.9517                 1.3324
 IR Inten    --      6.4199                 8.3947                 7.8696

                     46                     47                     48
                      A                      A                      A
 Frequencies --    866.1101               872.0936               915.6061
 Red. masses --      3.4073                 1.9224                 1.6859
 Frc consts  --      1.5059                 0.8614                 0.8327
 IR Inten    --      7.4512                 8.9931                 1.4143

                     49                     50                     51
                      A                      A                      A
 Frequencies --    939.1736               959.7368               964.3642
 Red. masses --      2.1409                 2.1215                 2.1521
 Frc consts  --      1.1126                 1.1513                 1.1792
 IR Inten    --     10.4549                35.5365                22.0572

                     52                     53                     54
                      A                      A                      A
 Frequencies --    982.0707               995.3738              1020.6080
 Red. masses --      2.3613                 1.9153                 2.4290
 Frc consts  --      1.3418                 1.1180                 1.4907
 IR Inten    --     29.3538                21.5995                10.1026

                     55                     56                     57
                      A                      A                      A
 Frequencies --   1051.0256              1071.4787              1081.7546
 Red. masses --      2.0243                 1.3928                 2.0600
 Frc consts  --      1.3175                 0.9421                 1.4203
 IR Inten    --     19.1456                13.0660                10.1263

                     58                     59                     60
                      A                      A                      A
 Frequencies --   1090.0537              1093.0974              1133.2835
 Red. masses --      1.8550                 1.3690                 1.9052
 Frc consts  --      1.2987                 0.9638                 1.4416
 IR Inten    --     15.9563                 2.3077                17.3268

                     61                     62                     63
                      A                      A                      A
 Frequencies --   1142.3884              1148.8736              1173.5109
 Red. masses --      2.0126                 1.1437                 1.9770
 Frc consts  --      1.5475                 0.8894                 1.6041
 IR Inten    --      5.7773                 5.3527                 2.8946

                     64                     65                     66
                      A                      A                      A
 Frequencies --   1184.8100              1207.1114              1207.5522
 Red. masses --      2.1410                 2.1146                 1.8738
 Frc consts  --      1.7707                 1.8154                 1.6099
 IR Inten    --     65.1625                64.3447                49.0291

                     67                     68                     69
                      A                      A                      A
 Frequencies --   1210.1991              1229.7455              1238.0719
 Red. masses --      1.7301                 2.1060                 1.8782
 Frc consts  --      1.4929                 1.8765                 1.6962
 IR Inten    --     35.0006                75.3710                 4.2316

                     70                     71                     72
                      A                      A                      A
 Frequencies --   1281.1160              1286.8481              1304.0268
 Red. masses --      1.3882                 1.6659                 1.4595
 Frc consts  --      1.3423                 1.6253                 1.4623
 IR Inten    --     11.3500               142.7861                96.9364

                     73                     74                     75
                      A                      A                      A
 Frequencies --   1329.2650              1345.7434              1364.5576
 Red. masses --      1.4080                 1.2877                 2.7661
 Frc consts  --      1.4658                 1.3740                 3.0347
 IR Inten    --     24.3678                62.8789                72.2355

                     76                     77                     78
                      A                      A                      A
 Frequencies --   1368.5759              1380.7366              1389.5932
 Red. masses --      1.3210                 1.4276                 1.4335
 Frc consts  --      1.4578                 1.6035                 1.6309
 IR Inten    --     19.7047                20.9715                 7.4855

                     79                     80                     81
                      A                      A                      A
 Frequencies --   1393.2843              1398.2849              1410.7839
 Red. masses --      1.4923                 1.9923                 1.5029
 Frc consts  --      1.7069                 2.2951                 1.7624
 IR Inten    --     23.4822                22.8660                16.6592

                     82                     83                     84
                      A                      A                      A
 Frequencies --   1430.7253              1436.3204              1441.3467
 Red. masses --      1.3505                 1.4402                 1.2902
 Frc consts  --      1.6288                 1.7506                 1.5793
 IR Inten    --     26.1442                 9.6072                36.2508

                     85                     86                     87
                      A                      A                      A
 Frequencies --   1446.7331              1460.5885              1474.9253
 Red. masses --      1.5375                 1.3944                 1.4277
 Frc consts  --      1.8960                 1.7526                 1.8298
 IR Inten    --     49.0607               126.8554               166.2424

                     88                     89                     90
                      A                      A                      A
 Frequencies --   1494.4309              1499.9788              1505.9230
 Red. masses --      1.0921                 1.1097                 1.0950
 Frc consts  --      1.4370                 1.4711                 1.4631
 IR Inten    --      5.5511                19.1179                30.2130

                     91                     92                     93
                      A                      A                      A
 Frequencies --   1517.1646              1520.0274              1527.9644
 Red. masses --      1.0631                 1.1087                 1.0958
 Frc consts  --      1.4418                 1.5092                 1.5074
 IR Inten    --      6.8410                 0.8716                 5.2040

                     94                     95                     96
                      A                      A                      A
 Frequencies --   1536.0398              1539.7273              1550.3489
 Red. masses --      1.1651                 1.2392                 1.0493
 Frc consts  --      1.6197                 1.7310                 1.4859
 IR Inten    --      9.3579                12.5280                 6.4372

                     97                     98                     99
                      A                      A                      A
 Frequencies --   1615.9791              1742.7274              1816.1361
 Red. masses --      1.3120                10.1044                 9.5926
 Frc consts  --      2.0187                18.0809                18.6416
 IR Inten    --    136.8351               336.8616               326.3184

                    100                    101                    102
                      A                      A                      A
 Frequencies --   1842.7626              3005.8259              3032.4009
 Red. masses --      9.7574                 1.0748                 1.0638
 Frc consts  --     19.5219                 5.7213                 5.7635
 IR Inten    --    265.5846                36.1500                 5.4912

                    103                    104                    105
                      A                      A                      A
 Frequencies --   3039.6261              3044.6808              3050.7753
 Red. masses --      1.0641                 1.0448                 1.0708
 Frc consts  --      5.7925                 5.7064                 5.8720
 IR Inten    --     30.6638                37.6486                51.9740

                    106                    107                    108
                      A                      A                      A
 Frequencies --   3066.3141              3078.2985              3091.8334
 Red. masses --      1.0976                 1.0973                 1.0594
 Frc consts  --      6.0801                 6.1261                 5.9666
 IR Inten    --     27.0558                60.8573                18.2640

                    109                    110                    111
                      A                      A                      A
 Frequencies --   3093.4584              3105.5383              3141.5013
 Red. masses --      1.0682                 1.1001                 1.1036
 Frc consts  --      6.0228                 6.2513                 6.4171
 IR Inten    --     24.5540                48.3107                 3.6785

                    112                    113                    114
                      A                      A                      A
 Frequencies --   3146.3144              3152.5173              3153.3153
 Red. masses --      1.0537                 1.0586                 1.0945
 Frc consts  --      6.1455                 6.1985                 6.4119
 IR Inten    --     17.3427                10.5372                 3.6998

                    115                    116                    117
                      A                      A                      A
 Frequencies --   3157.5842              3165.9092              3184.4540
 Red. masses --      1.0975                 1.0924                 1.0870
 Frc consts  --      6.4470                 6.4511                 6.4945
 IR Inten    --     12.2984                 6.5935                 1.6006

                    118                    119                    120
                      A                      A                      A
 Frequencies --   3191.3651              3222.4621              3237.4919
 Red. masses --      1.0900                 1.1183                 1.1149
 Frc consts  --      6.5405                 6.8421                 6.8847
 IR Inten    --      2.7540                 1.6194                17.3110

                    121                    122                    123
                      A                      A                      A
 Frequencies --   3593.0099              3683.6619              3722.2918
 Red. masses --      1.0439                 1.0639                 1.1060
 Frc consts  --      7.9404                 8.5060                 9.0285
 IR Inten    --     27.9695                51.1138                61.7329

 - Thermochemistry -
 -------------------
 Temperature   298.150 Kelvin.  Pressure   1.00000 Atm.
 Atom     1 has atomic number  6 and mass  12.00000

 Molecular mass:   285.16886 amu.
 Principal axes and moments of inertia in atomic units:
                           1         2         3
     Eigenvalues --  4392.399277165.32981**********
           X            0.99717   0.07519  -0.00132
           Y           -0.07517   0.99713   0.00876
           Z            0.00198  -0.00863   0.99996
 This molecule is an asymmetric top.
 Rotational symmetry number  1.
 Warning -- assumption of classical behavior for rotation
           may cause significant error
 Rotational temperatures (Kelvin)      0.01972     0.01209     0.00823
 Rotational constants (GHZ):           0.41088     0.25187     0.17138
 Zero-point vibrational energy     972657.4 (Joules/Mol)
                                  232.47070 (Kcal/Mol)
 Warning -- explicit consideration of  33 degrees of freedom as
           vibrations may cause significant error
 Vibrational temperatures:     31.89    35.52    52.57    69.30    71.74
          (Kelvin)             87.92   116.59   133.09   171.95   178.52
                              201.11   208.71   238.33   264.86   298.72
                              317.81   349.26   407.52   415.91   447.48
                              461.30   486.55   536.33   543.07   595.93
                              613.95   617.73   650.14   715.82   745.48
                              766.61   784.67   859.26   924.43   952.73
                              997.46   998.47  1091.63  1102.06  1122.98
                             1139.57  1173.47  1205.11  1226.88  1234.66
                             1246.14  1254.75  1317.35  1351.26  1380.85
                             1387.50  1412.98  1432.12  1468.43  1512.19
                             1541.62  1556.40  1568.34  1572.72  1630.54
                             1643.64  1652.97  1688.42  1704.68  1736.76
                             1737.40  1741.21  1769.33  1781.31  1843.24
                             1851.49  1876.20  1912.52  1936.22  1963.29
                             1969.08  1986.57  1999.31  2004.63  2011.82
                             2029.80  2058.49  2066.54  2073.78  2081.53
                             2101.46  2122.09  2150.15  2158.13  2166.69
                             2182.86  2186.98  2198.40  2210.02  2215.32
                             2230.61  2325.03  2507.40  2613.01  2651.32
                             4324.71  4362.95  4373.34  4380.62  4389.39
                             4411.74  4428.99  4448.46  4450.80  4468.18
                             4519.92  4526.84  4535.77  4536.92  4543.06
                             4555.04  4581.72  4591.66  4636.40  4658.03
                             5169.54  5299.97  5355.55

 Zero-point correction=                           0.370466 (Hartree/Particle)
 Thermal correction to Energy=                    0.392301
 Thermal correction to Enthalpy=                  0.393245
 Thermal correction to Gibbs Free Energy=         0.317438
 Sum of electronic and zero-point Energies=           -974.098378
 Sum of electronic and thermal Energies=              -974.076543
 Sum of electronic and thermal Enthalpies=            -974.075599
 Sum of electronic and thermal Free Energies=         -974.151406

                     E (Thermal)             CV                S
                      KCal/Mol        Cal/Mol-Kelvin    Cal/Mol-Kelvin
 Total                  246.173             80.453            159.551
 Electronic               0.000              0.000              0.000
 Translational            0.889              2.981             42.842
 Rotational               0.889              2.981             34.160
 Vibrational            244.395             74.491             82.549
 Vibration     1          0.593              1.985              6.430
 Vibration     2          0.593              1.985              6.216
 Vibration     3          0.594              1.982              5.438
 Vibration     4          0.595              1.978              4.891
 Vibration     5          0.595              1.978              4.823
 Vibration     6          0.597              1.973              4.421
 Vibration     7          0.600              1.962              3.866
 Vibration     8          0.602              1.955              3.606
 Vibration     9          0.609              1.933              3.108
 Vibration    10          0.610              1.929              3.036
 Vibration    11          0.615              1.914              2.807
 Vibration    12          0.616              1.908              2.736
 Vibration    13          0.624              1.885              2.484
 Vibration    14          0.631              1.862              2.287
 Vibration    15          0.641              1.829              2.064
 Vibration    16          0.648              1.809              1.952
 Vibration    17          0.659              1.775              1.783
 Vibration    18          0.682              1.705              1.514
 Vibration    19          0.686              1.694              1.479
 Vibration    20          0.700              1.653              1.357
 Vibration    21          0.706              1.634              1.307
 Vibration    22          0.718              1.599              1.221
 Vibration    23          0.744              1.528              1.068
 Vibration    24          0.748              1.518              1.049
 Vibration    25          0.778              1.439              0.912
 Vibration    26          0.788              1.412              0.869
 Vibration    27          0.791              1.406              0.861
 Vibration    28          0.811              1.357              0.790
 Vibration    29          0.853              1.256              0.664
 Vibration    30          0.873              1.210              0.614
 Vibration    31          0.888              1.177              0.581
 Vibration    32          0.901              1.150              0.554
 Vibration    33          0.955              1.038              0.454

                           ! Non-Optimized Parameters !
 Normal termination of Gaussian 16 at Sat Dec 12 17:35:42 2020.

 ----------------------------------------------------------------------
 # B3LYP/6-311++G(d,p) empiricaldispersion=gd3bj scf=xqc pop=npa geom=c
 heck
 ----------------------------------------------------------------------

 ---------------------------------------
 CID_61596730_JID_10801_Energie_neutraal
 ---------------------------------------
 Structure from the checkpoint file:  "JID_10801.chk"
 Charge =  0 Multiplicity = 1

 SCF Done:  E(RB3LYP) =  -974.766607563     A.U. after   15 cycles
 Normal termination of Gaussian 16 at Sat Dec 12 17:44:51 2020.

 ----------------------------------------------------------------------
 # B3LYP/6-311++G(d,p) empiricaldispersion=gd3bj scf=xqc pop=npa geom=c
 heck
 ----------------------------------------------------------------------

 -------------------------------------
 CID_61596730_JID_10801_Energie_kation
 -------------------------------------
 Structure from the checkpoint file:  "JID_10801.chk"
 Charge =  1 Multiplicity = 2

 SCF Done:  E(UB3LYP) =  -974.457802895     A.U. after   24 cycles
 Normal termination of Gaussian 16 at Sat Dec 12 18:04:34 2020.
 Gaussian 16:  ES64L-G16RevA.03 25-Dec-2016

 ----------------------------------------------------------------------
 # B3LYP/6-311++G(d,p) empiricaldispersion=gd3bj scf=xqc pop=npa geom=c
 heck
 ----------------------------------------------------------------------

 ------------------------------------
 CID_61596730_JID_10801_Energie_anion
 ------------------------------------
 Structure from the checkpoint file:  "JID_10801.chk"
 Charge = -1 Multiplicity = 2

                         Standard orientation:
 ---------------------------------------------------------------------
 Center     Atomic      Atomic             Coordinates (Angstroms)
 Number     Number       Type             X           Y           Z
 ---------------------------------------------------------------------
      1          6           0       -3.518602   -3.062821   -0.039935
      2          6           0       -3.630247   -1.709747   -0.746515
      3          6           0       -3.793491   -0.522584    0.212497
      4          6           0       -2.547632   -0.127883    1.020879
      5          7           0       -1.367244    0.291573    0.238174
      6          6           0       -1.589101    1.365609   -0.723882
      7          6           0       -1.636106    2.784137   -0.142399
      8          8           0       -2.011724    3.724697   -0.824128
      9          7           0       -1.212137    2.903063    1.147511
     10          6           0       -0.382354   -0.681501    0.033781
     11          8           0       -0.566622   -1.862219    0.316252
     12          7           0        0.822646   -0.266346   -0.517579
     13          6           0        1.421914    1.066089   -0.378523
     14          6           0        2.729553    1.087148    0.385389
     15          6           0        4.048139    0.871388   -0.320718
     16          6           0        3.670073    2.245880    0.165311
     17          6           0        1.684544   -1.325060   -1.003699
     18          6           0        2.660549   -1.954340   -0.017902
     19          8           0        3.659471   -2.544296   -0.366388
     20          8           0        2.287997   -1.839692    1.274379
     21          1           0       -2.617180   -3.106184    0.575112
     22          1           0       -3.462358   -3.879109   -0.768997
     23          1           0       -4.393986   -3.244881    0.596728
     24          1           0       -2.745782   -1.554210   -1.376785
     25          1           0       -4.493954   -1.721934   -1.424305
     26          1           0       -4.161845    0.350909   -0.340192
     27          1           0       -4.579827   -0.752670    0.944966
     28          1           0       -2.818932    0.707797    1.678359
     29          1           0       -2.221925   -0.957784    1.647107
     30          1           0       -0.813790    1.345675   -1.490695
     31          1           0       -2.535242    1.223520   -1.255245
     32          1           0       -0.961627    2.086352    1.684801
     33          1           0       -1.249315    3.809531    1.590567
     34          1           0        1.586273    1.499895   -1.377041
     35          1           0        0.714627    1.709338    0.139835
     36          1           0        2.656134    0.702566    1.398322
     37          1           0        4.825944    0.323119    0.201397
     38          1           0        4.029263    0.691715   -1.392597
     39          1           0        3.393514    2.989084   -0.578709
     40          1           0        4.188201    2.654897    1.027486
     41          1           0        1.054832   -2.142078   -1.365834
     42          1           0        2.281768   -0.958203   -1.842615
     43          1           0        2.965942   -2.321183    1.784939
 ---------------------------------------------------------------------

 SCF Done:  E(UB3LYP) =  -974.760474029     A.U. after   33 cycles
 SCF Done:  E(UB3LYP) =  -974.760474029     a.u. after    1 cycles

 The electronic state is 2-A.
 Alpha  occ. eigenvalues --  -19.08196 -19.02988 -19.00358 -18.99879 -14.25954
 Alpha  occ. eigenvalues --  -14.25781 -14.24346 -10.22191 -10.21274 -10.19057
 Alpha  occ. eigenvalues --  -10.13645 -10.13353 -10.12763 -10.11521 -10.09385
 Alpha  occ. eigenvalues --  -10.08838 -10.08804 -10.08687 -10.08296 -10.06872
 Alpha  occ. eigenvalues --   -1.02526  -0.96919  -0.95410  -0.93576  -0.86271
 Alpha  occ. eigenvalues --   -0.85031  -0.81554  -0.77722  -0.71305  -0.67381
 Alpha  occ. eigenvalues --   -0.65866  -0.64388  -0.61621  -0.56576  -0.53598
 Alpha  occ. eigenvalues --   -0.52079  -0.50951  -0.50190  -0.49878  -0.47360
 Alpha  occ. eigenvalues --   -0.45897  -0.45447  -0.43330  -0.41574  -0.40521
 Alpha  occ. eigenvalues --   -0.40105  -0.39074  -0.38918  -0.37989  -0.36775
 Alpha  occ. eigenvalues --   -0.36505  -0.35861  -0.34930  -0.34012  -0.33585
 Alpha  occ. eigenvalues --   -0.32883  -0.31810  -0.31406  -0.30870  -0.30454
 Alpha  occ. eigenvalues --   -0.30067  -0.29530  -0.28854  -0.28313  -0.27660
 Alpha  occ. eigenvalues --   -0.25420  -0.24946  -0.24438  -0.24030  -0.22159
 Alpha  occ. eigenvalues --   -0.21306  -0.20464  -0.19319  -0.18885  -0.18614
 Alpha  occ. eigenvalues --   -0.16003  -0.15380   0.03751
 Alpha virt. eigenvalues --    0.05798   0.06109   0.06496   0.07250   0.07744
 Alpha virt. eigenvalues --    0.07999   0.08348   0.08937   0.09295   0.09704
 Alpha virt. eigenvalues --    0.10003   0.10424   0.10526   0.11102   0.11229

  Beta  occ. eigenvalues --  -19.08162 -19.02977 -19.00352 -18.99876 -14.25954
  Beta  occ. eigenvalues --  -14.25781 -14.24272 -10.22181 -10.21273 -10.19053
  Beta  occ. eigenvalues --  -10.13633 -10.13342 -10.12749 -10.11501 -10.09369
  Beta  occ. eigenvalues --  -10.08826 -10.08788 -10.08678 -10.08290 -10.06867
  Beta  occ. eigenvalues --   -1.02479  -0.96916  -0.95395  -0.93537  -0.86263
  Beta  occ. eigenvalues --   -0.85020  -0.81465  -0.77699  -0.71287  -0.67353
  Beta  occ. eigenvalues --   -0.65838  -0.64367  -0.61599  -0.56543  -0.53534
  Beta  occ. eigenvalues --   -0.52034  -0.50855  -0.50154  -0.49841  -0.47316
  Beta  occ. eigenvalues --   -0.45856  -0.45408  -0.43300  -0.41553  -0.40494
  Beta  occ. eigenvalues --   -0.40073  -0.39039  -0.38887  -0.37963  -0.36749
  Beta  occ. eigenvalues --   -0.36478  -0.35845  -0.34908  -0.33996  -0.33565
  Beta  occ. eigenvalues --   -0.32861  -0.31794  -0.31382  -0.30850  -0.30437
  Beta  occ. eigenvalues --   -0.30050  -0.29510  -0.28829  -0.28291  -0.27629
  Beta  occ. eigenvalues --   -0.25406  -0.24930  -0.24422  -0.23997  -0.22137
  Beta  occ. eigenvalues --   -0.21282  -0.20437  -0.19303  -0.18861  -0.18568
  Beta  occ. eigenvalues --   -0.15992  -0.15365
  Beta virt. eigenvalues --    0.05728   0.06288   0.06873   0.07189   0.07569
  Beta virt. eigenvalues --    0.07962   0.08079   0.08524   0.09056   0.09618
  Beta virt. eigenvalues --    0.09971   0.10238   0.10491   0.10678   0.11183

 Mulliken charges and spin densities:
               1          2
     1  C   -0.343483  -0.276300
     2  C   -0.206001   0.200687
     3  C    0.124139  -0.578363
     4  C    0.082886  -0.111081
     5  N    0.080820  -0.021521
     6  C   -0.271471  -0.211244
     7  C    0.290988  -0.220533
     8  O   -0.341223   0.015547
     9  N   -0.232713  -0.160987
    10  C   -0.234097  -0.373584
    11  O   -0.260668   0.006101
    12  N    0.248684  -0.000326
    13  C    0.295327  -0.933486
    14  C   -1.051695   1.446927
    15  C    0.115443  -0.526912
    16  C    0.921129  -1.425803
    17  C    0.013123  -0.063310
    18  C    0.141418  -0.231188
    19  O   -0.246371   0.020682
    20  O   -0.125812   0.020569
    21  H    0.183545   0.009100
    22  H    0.088389   0.031211
    23  H    0.058014   0.054436
    24  H    0.116646   0.039598
    25  H    0.009602   0.147928
    26  H    0.112214   0.026249
    27  H    0.012743   0.148558
    28  H   -0.217445   0.383935
    29  H    0.034000   0.174015
    30  H    0.211587   0.037931
    31  H    0.107065   0.080892
    32  H   -0.084753   0.357948
    33  H   -0.370132   0.725630
    34  H   -0.094218   0.267362
    35  H    0.181449  -0.113467
    36  H   -0.539569   0.854476
    37  H    0.060620   0.125581
    38  H    0.105184   0.036865
    39  H    0.095283   0.038081
    40  H   -0.253051   0.412409
    41  H    0.140922   0.074906
    42  H    0.098832   0.152505
    43  H   -0.057352   0.357976
 Sum of Mulliken charges =  -1.00000   1.00000

 Dipole moment (field-independent basis, Debye):
    X=             -1.7813    Y=             -3.9142    Z=             -5.2031  Tot=              6.7503
 Quadrupole moment (field-independent basis, Debye-Ang):
   XX=           -190.7239   YY=           -193.6163   ZZ=           -161.9270
   XY=             13.6505   XZ=             -5.5884   YZ=             -6.3142

 Summary of Natural Population Analysis:

                                       Natural Population
                Natural  -----------------------------------------------
    Atom  No    Charge         Core      Valence    Rydberg      Total
 -----------------------------------------------------------------------
      C    1   -0.28949      0.99966     2.28532    0.00451     3.28949
      C    2   -0.19164      0.99964     2.18489    0.00712     3.19164
      C    3   -0.19758      0.99962     2.18982    0.00814     3.19758
      C    4   -0.08747      0.99959     2.07595    0.01192     3.08747
      N    5   -0.28289      0.99966     2.77151    0.01172     3.78289
      C    6   -0.13172      0.99955     2.12147    0.01071     3.13172
      C    7    0.33045      0.99969     1.64616    0.02370     2.66955
      O    8   -0.32241      0.99988     3.31647    0.00606     4.32241
      N    9   -0.39986      0.99971     2.89164    0.00851     3.89986
      C   10    0.42404      0.99962     1.55235    0.02399     2.57596
      O   11   -0.33413      0.99987     3.32922    0.00504     4.33413
      N   12   -0.26680      0.99965     2.75625    0.01090     3.76680
      C   13   -0.08579      0.99956     2.07476    0.01147     3.08579
      C   14   -0.13007      0.99959     2.11801    0.01247     3.13007
      C   15   -0.20038      0.99961     2.19137    0.00940     3.20038
      C   16   -0.19367      0.99961     2.18476    0.00929     3.19367
      C   17   -0.13289      0.99955     2.12264    0.01070     3.13289
      C   18    0.40390      0.99973     1.56997    0.02640     2.59610
      O   19   -0.31058      0.99987     3.30474    0.00597     4.31058
      O   20   -0.33383      0.99987     3.32661    0.00735     4.33383
      H   21    0.11297      0.00000     0.38596    0.00107     0.38703
      H   22    0.09530      0.00000     0.40387    0.00083     0.40470
      H   23    0.08981      0.00000     0.40920    0.00099     0.41019
      H   24    0.09706      0.00000     0.40164    0.00130     0.40294
      H   25    0.09188      0.00000     0.40707    0.00105     0.40812
      H   26    0.09561      0.00000     0.40331    0.00109     0.40439
      H   27    0.09966      0.00000     0.39939    0.00096     0.40034
      H   28    0.09741      0.00000     0.40102    0.00157     0.40259
      H   29    0.11305      0.00000     0.38571    0.00124     0.38695
      H   30    0.11651      0.00000     0.38224    0.00125     0.38349
      H   31    0.10888      0.00000     0.38984    0.00127     0.39112
      H   32    0.20486      0.00000     0.28979    0.00534     0.29514
      H   33    0.20304      0.00000     0.29216    0.00480     0.29696
      H   34    0.09004      0.00000     0.40860    0.00136     0.40996
      H   35    0.11051      0.00000     0.38611    0.00338     0.38949
      H   36    0.11556      0.00000     0.38125    0.00319     0.38444
      H   37    0.10840      0.00000     0.39073    0.00087     0.39160
      H   38    0.09929      0.00000     0.39976    0.00094     0.40071
      H   39    0.10051      0.00000     0.39861    0.00087     0.39949
      H   40    0.10706      0.00000     0.39193    0.00100     0.39294
      H   41    0.12477      0.00000     0.37427    0.00096     0.37523
      H   42    0.10825      0.00000     0.39070    0.00105     0.39175
      H   43    0.24238      0.00000     0.25237    0.00525     0.25762
 =======================================================================
   * Total *   -0.00000     19.99353    56.73946    0.26702    77.00000

 Normal termination of Gaussian 16 at Sat Dec 12 18:31:47 2020.
