 Gaussian 16, Revision A.03,

 -----------------------------------------------------------
 # opt freq B3LYP/6-31G(d) empiricaldispersion=gd3bj scf=xqc
 -----------------------------------------------------------

 ------------------------------
 CID_154168536_JID_498_neutraal
 ------------------------------
 Symbolic Z-matrix:
 Charge =  0 Multiplicity = 1

 SCF Done:  E(RB3LYP) =  -536.721782171     A.U. after   14 cycles
 SCF Done:  E(RB3LYP) =  -536.724678608     A.U. after   12 cycles
 SCF Done:  E(RB3LYP) =  -536.726614469     A.U. after   12 cycles
 SCF Done:  E(RB3LYP) =  -536.727477464     A.U. after   11 cycles
 SCF Done:  E(RB3LYP) =  -536.728187350     A.U. after   12 cycles
 SCF Done:  E(RB3LYP) =  -536.728367248     A.U. after   11 cycles
 SCF Done:  E(RB3LYP) =  -536.727819164     A.U. after   11 cycles
 SCF Done:  E(RB3LYP) =  -536.728507653     A.U. after   11 cycles
 SCF Done:  E(RB3LYP) =  -536.728728300     A.U. after   11 cycles
 SCF Done:  E(RB3LYP) =  -536.728812121     A.U. after   10 cycles
 SCF Done:  E(RB3LYP) =  -536.728860115     A.U. after   10 cycles
 SCF Done:  E(RB3LYP) =  -536.728862316     A.U. after    8 cycles
 SCF Done:  E(RB3LYP) =  -536.728863889     A.U. after    8 cycles
 SCF Done:  E(RB3LYP) =  -536.728864516     A.U. after    8 cycles
 SCF Done:  E(RB3LYP) =  -536.728864764     A.U. after    7 cycles
 SCF Done:  E(RB3LYP) =  -536.728864821     A.U. after    7 cycles
 Optimization completed.
    -- Stationary point found.

 1\1\GINC-NODE117\FOpt\RB3LYP\6-31G(d)\C6H12O4\VSC10255\08-Dec-2020\0\\
 # opt freq B3LYP/6-31G(d) empiricaldispersion=gd3bj scf=xqc\\CID_15416
 8536_JID_498_neutraal\\0,1\C,1.0138346249,-0.2728333087,0.104289511\C,
 0.3217580959,-0.7518532985,-0.9399612365\C,-1.2037916296,-0.8571586589
 ,-0.9930419773\C,-1.7379505144,-0.5108335471,-2.3960948203\O,-1.292353
 5557,-1.492739523,-3.3478825208\C,-1.5916999565,-2.3191092292,-0.64191
 27062\O,-1.1660764228,-2.6778547172,0.6729976899\C,-1.9260913865,0.123
 1669594,-0.0273691044\O,-1.707101042,-0.0893483318,1.350357231\O,0.999

 Normal termination of Gaussian 16 at Tue Dec  8 10:48:07 2020.

 --------------------------------------------------------------------
 #N Geom=AllCheck Guess=TCheck SCRF=Check GenChk RB3LYP/6-31G(d) Freq
 --------------------------------------------------------------------

 Structure from the checkpoint file:  "JID_498.chk"
 ------------------------------
 CID_154168536_JID_498_neutraal
 ------------------------------
 Charge =  0 Multiplicity = 1

 SCF Done:  E(RB3LYP) =  -536.728864821     A.U. after    1 cycles

  Exact polarizability:  83.362  -8.101  80.463   2.790  -1.206  63.830
 Approx polarizability: 124.250 -13.559 112.191   6.785  -3.210  92.439

                      1                      2                      3
                      A                      A                      A
 Frequencies --     57.7800               137.5647               153.8138
 Red. masses --      5.7518                 4.0571                 3.6104
 Frc consts  --      0.0113                 0.0452                 0.0503
 IR Inten    --      1.5039                 5.0654                 7.9578

                      4                      5                      6
                      A                      A                      A
 Frequencies --    185.0257               206.5805               255.7732
 Red. masses --      2.9378                 3.4294                 2.1435
 Frc consts  --      0.0593                 0.0862                 0.0826
 IR Inten    --      1.8045                 3.1153                 7.9241

                      7                      8                      9
                      A                      A                      A
 Frequencies --    281.7544               294.7514               321.6218
 Red. masses --      5.5778                 4.2521                 1.3701
 Frc consts  --      0.2609                 0.2177                 0.0835
 IR Inten    --      5.8146                 2.6715                55.6705

                     10                     11                     12
                      A                      A                      A
 Frequencies --    356.8298               372.3555               418.3747
 Red. masses --      2.8645                 3.2147                 5.0624
 Frc consts  --      0.2149                 0.2626                 0.5221
 IR Inten    --     10.9559                15.3878                 7.6055

                     13                     14                     15
                      A                      A                      A
 Frequencies --    442.4354               490.6598               508.9539
 Red. masses --      2.0782                 1.6523                 2.4002
 Frc consts  --      0.2397                 0.2344                 0.3663
 IR Inten    --     29.9598               129.4691                38.7926

                     16                     17                     18
                      A                      A                      A
 Frequencies --    629.4232               641.5470               680.3912
 Red. masses --      2.9571                 1.2612                 2.7096
 Frc consts  --      0.6902                 0.3058                 0.7390
 IR Inten    --     27.8985                55.5908                22.7917

                     19                     20                     21
                      A                      A                      A
 Frequencies --    711.7458               745.8676               817.2355
 Red. masses --      1.9969                 1.3435                 1.1833
 Frc consts  --      0.5960                 0.4404                 0.4656
 IR Inten    --     15.0870               167.5133                 8.2353

                     22                     23                     24
                      A                      A                      A
 Frequencies --    866.9087               884.8182               948.6961
 Red. masses --      2.3211                 1.2629                 1.7086
 Frc consts  --      1.0278                 0.5826                 0.9061
 IR Inten    --      3.1430                38.6591                 0.5316

                     25                     26                     27
                      A                      A                      A
 Frequencies --   1006.8703              1008.9958              1029.2339
 Red. masses --      2.0177                 1.6901                 4.8904
 Frc consts  --      1.2052                 1.0138                 3.0523
 IR Inten    --     12.1843                12.6232                73.7427

                     28                     29                     30
                      A                      A                      A
 Frequencies --   1068.4483              1110.3517              1126.1939
 Red. masses --      5.2964                 6.2369                 2.2742
 Frc consts  --      3.5624                 4.5304                 1.6995
 IR Inten    --     48.5848                15.7910                82.8338

                     31                     32                     33
                      A                      A                      A
 Frequencies --   1144.4827              1170.4562              1242.4952
 Red. masses --      2.2291                 2.3558                 1.2441
 Frc consts  --      1.7203                 1.9015                 1.1316
 IR Inten    --     12.0233                16.0217                29.8603

                     34                     35                     36
                      A                      A                      A
 Frequencies --   1262.2711              1281.1172              1310.9483
 Red. masses --      1.4281                 1.1451                 1.6205
 Frc consts  --      1.3406                 1.1074                 1.6408
 IR Inten    --      2.6630                 4.1304                49.1572

                     37                     38                     39
                      A                      A                      A
 Frequencies --   1359.5510              1390.7561              1412.6252
 Red. masses --      1.6410                 1.2070                 1.3683
 Frc consts  --      1.7871                 1.3755                 1.6088
 IR Inten    --      4.9990                 5.1471               113.7272

                     40                     41                     42
                      A                      A                      A
 Frequencies --   1432.7896              1443.4131              1466.6269
 Red. masses --      1.2769                 1.2634                 1.3260
 Frc consts  --      1.5445                 1.5508                 1.6804
 IR Inten    --     49.8017                63.4201                 8.0366

                     43                     44                     45
                      A                      A                      A
 Frequencies --   1483.8712              1507.2210              1530.1245
 Red. masses --      1.1835                 1.1923                 1.0764
 Frc consts  --      1.5354                 1.5958                 1.4848
 IR Inten    --    120.0612                60.0965                 6.1152

                     46                     47                     48
                      A                      A                      A
 Frequencies --   1540.0144              1548.6603              1738.8153
 Red. masses --      1.0886                 1.0917                 4.3251
 Frc consts  --      1.5212                 1.5426                 7.7047
 IR Inten    --      0.8979                 1.5127                95.1042

                     49                     50                     51
                      A                      A                      A
 Frequencies --   2962.5110              3026.7138              3061.8864
 Red. masses --      1.0724                 1.0557                 1.0590
 Frc consts  --      5.5456                 5.6980                 5.8497
 IR Inten    --     68.2279                49.0404                28.4758

                     52                     53                     54
                      A                      A                      A
 Frequencies --   3068.2151              3084.5767              3110.9922
 Red. masses --      1.1068                 1.0921                 1.1088
 Frc consts  --      6.1387                 6.1220                 6.3230
 IR Inten    --     33.3981                50.3871                29.6018

                     55                     56                     57
                      A                      A                      A
 Frequencies --   3192.0910              3301.2752              3564.3820
 Red. masses --      1.0613                 1.1155                 1.0668
 Frc consts  --      6.3717                 7.1626                 7.9852
 IR Inten    --     10.1811                 2.7794               372.6230

                     58                     59                     60
                      A                      A                      A
 Frequencies --   3593.7760              3631.0273              3760.9555
 Red. masses --      1.0661                 1.0651                 1.0666
 Frc consts  --      8.1122                 8.2739                 8.8892
 IR Inten    --    143.2668                92.7517                35.7434

 - Thermochemistry -
 -------------------
 Temperature   298.150 Kelvin.  Pressure   1.00000 Atm.
 Atom     1 has atomic number  6 and mass  12.00000

 Molecular mass:   148.07356 amu.
 Principal axes and moments of inertia in atomic units:
                           1         2         3
     Eigenvalues --  1102.674921605.562981817.22454
           X            0.99886  -0.04740  -0.00619
           Y            0.04755   0.99851   0.02675
           Z            0.00491  -0.02701   0.99962
 This molecule is an asymmetric top.
 Rotational symmetry number  1.
 Warning -- assumption of classical behavior for rotation
           may cause significant error
 Rotational temperatures (Kelvin)      0.07855     0.05395     0.04766
 Rotational constants (GHZ):           1.63669     1.12406     0.99313
 Zero-point vibrational energy     492775.6 (Joules/Mol)
                                  117.77619 (Kcal/Mol)
 Warning -- explicit consideration of  15 degrees of freedom as
           vibrations may cause significant error
 Vibrational temperatures:     83.13   197.92   221.30   266.21   297.22
          (Kelvin)            368.00   405.38   424.08   462.74   513.40
                              535.74   601.95   636.57   705.95   732.27
                              905.60   923.04   978.93  1024.04  1073.14
                             1175.82  1247.29  1273.06  1364.96  1448.66
                             1451.72  1480.84  1537.26  1597.55  1620.34
                             1646.66  1684.03  1787.67  1816.13  1843.24
                             1886.16  1956.09  2000.99  2032.45  2061.46
                             2076.75  2110.15  2134.96  2168.55  2201.51
                             2215.74  2228.18  2501.77  4262.39  4354.77
                             4405.37  4414.48  4438.02  4476.02  4592.71
                             4749.80  5128.35  5170.64  5224.24  5411.18

 Zero-point correction=                           0.187688 (Hartree/Particle)
 Thermal correction to Energy=                    0.198400
 Thermal correction to Enthalpy=                  0.199344
 Thermal correction to Gibbs Free Energy=         0.152258
 Sum of electronic and zero-point Energies=           -536.541177
 Sum of electronic and thermal Energies=              -536.530465
 Sum of electronic and thermal Enthalpies=            -536.529521
 Sum of electronic and thermal Free Energies=         -536.576607

                     E (Thermal)             CV                S
                      KCal/Mol        Cal/Mol-Kelvin    Cal/Mol-Kelvin
 Total                  124.498             41.096             99.101
 Electronic               0.000              0.000              0.000
 Translational            0.889              2.981             40.888
 Rotational               0.889              2.981             29.555
 Vibrational            122.720             35.135             28.658
 Vibration     1          0.596              1.974              4.532
 Vibration     2          0.614              1.916              2.837
 Vibration     3          0.619              1.898              2.625
 Vibration     4          0.631              1.860              2.277
 Vibration     5          0.641              1.830              2.074
 Vibration     6          0.666              1.753              1.690
 Vibration     7          0.681              1.707              1.523
 Vibration     8          0.689              1.684              1.447
 Vibration     9          0.707              1.632              1.302
 Vibration    10          0.732              1.561              1.136
 Vibration    11          0.744              1.529              1.070
 Vibration    12          0.781              1.430              0.898
 Vibration    13          0.802              1.378              0.819
 Vibration    14          0.846              1.271              0.682
 Vibration    15          0.864              1.230              0.636

 Optimization completed.
    -- Stationary point found.

 1\1\GINC-NODE117\Freq\RB3LYP\6-31G(d)\C6H12O4\VSC10255\08-Dec-2020\0\\
 #N Geom=AllCheck Guess=TCheck SCRF=Check GenChk RB3LYP/6-31G(d) Freq\\
 CID_154168536_JID_498_neutraal\\0,1\C,1.0138346249,-0.2728333087,0.104
 289511\C,0.3217580959,-0.7518532985,-0.9399612365\C,-1.2037916296,-0.8
 571586589,-0.9930419773\C,-1.7379505144,-0.5108335471,-2.3960948203\O,
 -1.2923535557,-1.492739523,-3.3478825208\C,-1.5916999565,-2.3191092292
 ,-0.6419127062\O,-1.1660764228,-2.6778547172,0.6729976899\C,-1.9260913
 865,0.1231669594,-0.0273691044\O,-1.707101042,-0.0893483318,1.35035723

 Normal termination of Gaussian 16 at Tue Dec  8 10:53:48 2020.

 ----------------------------------------------------------------------
 # B3LYP/6-311++G(d,p) empiricaldispersion=gd3bj scf=xqc pop=npa geom=c
 heck
 ----------------------------------------------------------------------

 --------------------------------------
 CID_154168536_JID_498_Energie_neutraal
 --------------------------------------
 Structure from the checkpoint file:  "JID_498.chk"
 Charge =  0 Multiplicity = 1

 SCF Done:  E(RB3LYP) =  -536.922324950     A.U. after   13 cycles
 Normal termination of Gaussian 16 at Tue Dec  8 10:58:06 2020.

 ----------------------------------------------------------------------
 # B3LYP/6-311++G(d,p) empiricaldispersion=gd3bj scf=xqc pop=npa geom=c
 heck
 ----------------------------------------------------------------------

 ------------------------------------
 CID_154168536_JID_498_Energie_kation
 ------------------------------------
 Structure from the checkpoint file:  "JID_498.chk"
 Charge =  1 Multiplicity = 2

 SCF Done:  E(UB3LYP) =  -536.606726990     A.U. after   21 cycles
 Normal termination of Gaussian 16 at Tue Dec  8 11:03:04 2020.
 Gaussian 16:  ES64L-G16RevA.03 25-Dec-2016

 -----------------------------------
 CID_154168536_JID_498_Energie_anion
 -----------------------------------
 Structure from the checkpoint file:  "JID_498.chk"
 Charge = -1 Multiplicity = 2

                         Standard orientation:
 ---------------------------------------------------------------------
 Center     Atomic      Atomic             Coordinates (Angstroms)
 Number     Number       Type             X           Y           Z
 ---------------------------------------------------------------------
      1          6           0       -0.798716    2.019552   -0.529544
      2          6           0        0.205148    1.185017   -0.221814
      3          6           0        0.090300   -0.340721   -0.209854
      4          6           0        1.371474   -1.000436   -0.755007
      5          8           0        2.475865   -0.732000    0.126390
      6          6           0       -0.133083   -0.788931    1.259932
      7          8           0       -1.338646   -0.247390    1.800482
      8          6           0       -1.060134   -0.882082   -1.103560
      9          8           0       -2.368807   -0.528275   -0.711840
     10          8           0        1.393145    1.703329    0.214709
     11          1           0       -1.756472    1.638036   -0.853497
     12          1           0       -0.638557    3.091401   -0.474814
     13          1           0        1.220411   -2.085643   -0.827164
     14          1           0        1.579760   -0.612788   -1.761476
     15          1           0        3.296448   -0.990948   -0.319672
     16          1           0       -0.243048   -1.877626    1.304902
     17          1           0        0.726960   -0.507043    1.877596
     18          1           0       -1.298729    0.716325    1.643638
     19          1           0       -0.924376   -0.512509   -2.126151
     20          1           0       -0.955727   -1.981168   -1.131121
     21          1           0       -2.387466   -0.573225    0.264896
     22          1           0        2.038405    0.975472    0.324013
 ---------------------------------------------------------------------

 SCF Done:  E(UB3LYP) =  -536.916575737     A.U. after   30 cycles

 The electronic state is 2-A.
 Alpha  occ. eigenvalues --  -19.04177 -19.03054 -19.02289 -19.01560 -10.13280
 Alpha  occ. eigenvalues --  -10.12458 -10.11962 -10.11579 -10.09894 -10.04596
 Alpha  occ. eigenvalues --   -0.95236  -0.94366  -0.91891  -0.91766  -0.71752
 Alpha  occ. eigenvalues --   -0.64377  -0.58551  -0.56508  -0.51363  -0.47058
 Alpha  occ. eigenvalues --   -0.44531  -0.42745  -0.40061  -0.37392  -0.35753
 Alpha  occ. eigenvalues --   -0.34951  -0.33929  -0.33044  -0.32167  -0.30464
 Alpha  occ. eigenvalues --   -0.28701  -0.28193  -0.27709  -0.25431  -0.23571
 Alpha  occ. eigenvalues --   -0.22555  -0.18720  -0.17909  -0.17019  -0.12974
 Alpha  occ. eigenvalues --    0.04892
 Alpha virt. eigenvalues --    0.08218   0.08586   0.09405   0.10250   0.10914
 Alpha virt. eigenvalues --    0.11329   0.12136   0.12483   0.12928   0.14359
 Alpha virt. eigenvalues --    0.14804   0.15369   0.16373   0.17700   0.17803

  Beta  occ. eigenvalues --  -19.04171 -19.03038 -19.02183 -19.01558 -10.13276
  Beta  occ. eigenvalues --  -10.12433 -10.11947 -10.11514 -10.09898 -10.04594
  Beta  occ. eigenvalues --   -0.95201  -0.94340  -0.91879  -0.91571  -0.71700
  Beta  occ. eigenvalues --   -0.64344  -0.58485  -0.56391  -0.51299  -0.47026
  Beta  occ. eigenvalues --   -0.44452  -0.42710  -0.39875  -0.37352  -0.35725
  Beta  occ. eigenvalues --   -0.34919  -0.33898  -0.32981  -0.32138  -0.30439
  Beta  occ. eigenvalues --   -0.28683  -0.28165  -0.27628  -0.25406  -0.23540
  Beta  occ. eigenvalues --   -0.22484  -0.18688  -0.17857  -0.16975  -0.12960
  Beta virt. eigenvalues --    0.07886   0.08844   0.09550   0.09853   0.10418
  Beta virt. eigenvalues --    0.11253   0.11783   0.12596   0.12752   0.13452
  Beta virt. eigenvalues --    0.14738   0.15426   0.15889   0.16674   0.17817

 Mulliken charges and spin densities:
               1          2
     1  C   -0.096802  -0.408215
     2  C    0.307366  -0.343113
     3  C   -2.780662   2.688680
     4  C    3.239346  -3.486297
     5  O   -0.415155   0.120558
     6  C    0.296787  -0.660787
     7  O   -0.274773   0.010719
     8  C    0.175473  -0.544086
     9  O   -0.253157   0.010041
    10  O   -0.208110   0.027436
    11  H    0.202894  -0.031503
    12  H    0.067381   0.055768
    13  H   -0.884295   1.070757
    14  H   -0.546110   0.743744
    15  H   -0.689199   1.017270
    16  H   -0.055010   0.269686
    17  H    0.050459   0.155918
    18  H    0.263002   0.017567
    19  H    0.073740   0.105455
    20  H    0.070943   0.072710
    21  H    0.229587   0.032529
    22  H    0.226297   0.075161
 Sum of Mulliken charges =  -1.00000   1.00000

 Dipole moment (field-independent basis, Debye):
    X=             -8.5234    Y=              4.4040    Z=              2.7328  Tot=              9.9756
 Quadrupole moment (field-independent basis, Debye-Ang):
   XX=           -124.5565   YY=            -96.3320   ZZ=            -88.6587
   XY=             11.1503   XZ=              6.8183   YZ=             -2.9712

 Summary of Natural Population Analysis:

                                       Natural Population
                Natural  -----------------------------------------------
    Atom  No    Charge         Core      Valence    Rydberg      Total
 -----------------------------------------------------------------------
      C    1   -0.26657      0.99952     2.25940    0.00765     3.26657
      C    2    0.16533      0.99940     1.81631    0.01896     2.83467
      C    3   -0.09979      0.99950     2.08649    0.01380     3.09979
      C    4   -0.00938      0.99953     1.99451    0.01534     3.00938
      O    5   -0.39053      0.99989     3.38306    0.00758     4.39053
      C    6   -0.01159      0.99954     1.99750    0.01455     3.01159
      O    7   -0.38014      0.99990     3.37381    0.00644     4.38014
      C    8   -0.00549      0.99955     1.99139    0.01455     3.00549
      O    9   -0.38109      0.99990     3.37418    0.00701     4.38109
      O   10   -0.36110      0.99987     3.35307    0.00817     4.36110
      H   11    0.11067      0.00000     0.38809    0.00125     0.38933
      H   12    0.09755      0.00000     0.40130    0.00115     0.40245
      H   13    0.09214      0.00000     0.40301    0.00485     0.40786
      H   14    0.09116      0.00000     0.40521    0.00363     0.40884
      H   15    0.26374      0.00000     0.17982    0.05644     0.23626
      H   16    0.09279      0.00000     0.40606    0.00114     0.40721
      H   17    0.09367      0.00000     0.40463    0.00171     0.40633
      H   18    0.23727      0.00000     0.25996    0.00277     0.26273
      H   19    0.09029      0.00000     0.40839    0.00132     0.40971
      H   20    0.08062      0.00000     0.41775    0.00163     0.41938
      H   21    0.23961      0.00000     0.25719    0.00320     0.26039
      H   22    0.25085      0.00000     0.24445    0.00470     0.24915
 =======================================================================
   * Total *   -0.00000      9.99660    29.80556    0.19785    40.00000

 Normal termination of Gaussian 16 at Tue Dec  8 11:10:13 2020.
