 Gaussian 16, Revision A.03,

 -----------------------------------------------------------
 # opt freq B3LYP/6-31G(d) empiricaldispersion=gd3bj scf=xqc
 -----------------------------------------------------------

 ------------------------------
 CID_83203179_JID_7811_neutraal
 ------------------------------
 Symbolic Z-matrix:
 Charge =  0 Multiplicity = 1

 SCF Done:  E(RB3LYP) =  -893.664421841     A.U. after   14 cycles
 SCF Done:  E(RB3LYP) =  -893.671081740     A.U. after   12 cycles
 SCF Done:  E(RB3LYP) =  -893.670499140     A.U. after   12 cycles
 SCF Done:  E(RB3LYP) =  -893.672980367     A.U. after   11 cycles
 SCF Done:  E(RB3LYP) =  -893.673462296     A.U. after   12 cycles
 SCF Done:  E(RB3LYP) =  -893.673981175     A.U. after   12 cycles
 SCF Done:  E(RB3LYP) =  -893.674730745     A.U. after   12 cycles
 SCF Done:  E(RB3LYP) =  -893.675740148     A.U. after   12 cycles
 SCF Done:  E(RB3LYP) =  -893.676521603     A.U. after   13 cycles
 SCF Done:  E(RB3LYP) =  -893.677577104     A.U. after   12 cycles
 SCF Done:  E(RB3LYP) =  -893.684108846     A.U. after    7 cycles
 SCF Done:  E(RB3LYP) =  -893.684108931     A.U. after    7 cycles
 SCF Done:  E(RB3LYP) =  -893.684108948     A.U. after    7 cycles
 SCF Done:  E(RB3LYP) =  -893.684108956     A.U. after    6 cycles
 Optimization completed.
    -- Stationary point found.
 Normal termination of Gaussian 16 at Fri Dec 11 13:21:31 2020.

 --------------------------------------------------------------------
 #N Geom=AllCheck Guess=TCheck SCRF=Check GenChk RB3LYP/6-31G(d) Freq
 --------------------------------------------------------------------

 Structure from the checkpoint file:  "JID_7811.chk"
 ------------------------------
 CID_83203179_JID_7811_neutraal
 ------------------------------
 Charge =  0 Multiplicity = 1

 SCF Done:  E(RB3LYP) =  -893.684108956     A.U. after    1 cycles

  Exact polarizability: 155.411  -6.056 116.525   6.106  10.166 108.041
 Approx polarizability: 181.121 -10.678 188.372   9.698  32.773 163.682

                      1                      2                      3
                      A                      A                      A
 Frequencies --     12.5749                26.1150                31.9230
 Red. masses --      5.2897                 5.3073                 5.9103
 Frc consts  --      0.0005                 0.0021                 0.0035
 IR Inten    --      0.9159                 0.7131                 0.0857

                      4                      5                      6
                      A                      A                      A
 Frequencies --     47.8547                66.7245                70.8517
 Red. masses --      5.9060                 4.6944                 4.2321
 Frc consts  --      0.0080                 0.0123                 0.0125
 IR Inten    --      2.2911                 0.4849                 0.6372

                      7                      8                      9
                      A                      A                      A
 Frequencies --     93.9157               102.8374               120.1023
 Red. masses --      6.9901                 5.6477                 4.7222
 Frc consts  --      0.0363                 0.0352                 0.0401
 IR Inten    --      5.7438                 2.2625                 4.4949

                     10                     11                     12
                      A                      A                      A
 Frequencies --    123.4479               155.3393               169.1292
 Red. masses --      4.5335                 4.2770                 2.2254
 Frc consts  --      0.0407                 0.0608                 0.0375
 IR Inten    --      1.6112                 3.5713                 1.2356

                     13                     14                     15
                      A                      A                      A
 Frequencies --    234.8513               258.5222               283.8120
 Red. masses --      1.8845                 4.0243                 3.4035
 Frc consts  --      0.0612                 0.1585                 0.1615
 IR Inten    --      1.1139                11.7991                17.7757

                     16                     17                     18
                      A                      A                      A
 Frequencies --    284.4203               293.1958               300.5556
 Red. masses --      1.8091                 1.3248                 5.5219
 Frc consts  --      0.0862                 0.0671                 0.2939
 IR Inten    --      5.7294               243.3316                 7.4873

                     19                     20                     21
                      A                      A                      A
 Frequencies --    357.1045               398.1013               444.3128
 Red. masses --      2.2275                 2.3896                 3.1833
 Frc consts  --      0.1674                 0.2231                 0.3703
 IR Inten    --      7.3121                 6.4736                 5.5483

                     22                     23                     24
                      A                      A                      A
 Frequencies --    454.7163               510.6490               520.0968
 Red. masses --      3.4013                 2.1129                 2.3186
 Frc consts  --      0.4144                 0.3246                 0.3695
 IR Inten    --      4.2396                 4.1876                13.4687

                     25                     26                     27
                      A                      A                      A
 Frequencies --    543.0633               547.2963               564.4704
 Red. masses --      1.3372                 2.5765                 3.6468
 Frc consts  --      0.2324                 0.4547                 0.6846
 IR Inten    --      9.0404                48.8454                21.8864

                     28                     29                     30
                      A                      A                      A
 Frequencies --    602.6534               663.0756               683.7491
 Red. masses --      3.1544                 4.5204                 1.6191
 Frc consts  --      0.6750                 1.1710                 0.4460
 IR Inten    --     25.3763                 6.4973                71.0152

                     31                     32                     33
                      A                      A                      A
 Frequencies --    728.3485               747.2449               759.4847
 Red. masses --      2.1104                 1.8456                 2.8312
 Frc consts  --      0.6596                 0.6072                 0.9622
 IR Inten    --     30.4636                79.8568                 2.9293

                     34                     35                     36
                      A                      A                      A
 Frequencies --    775.4875               811.4361               833.7876
 Red. masses --      5.8616                 1.7529                 2.6499
 Frc consts  --      2.0769                 0.6800                 1.0854
 IR Inten    --     32.4691                18.6749                 7.3426

                     37                     38                     39
                      A                      A                      A
 Frequencies --    839.7012               858.1208               885.3649
 Red. masses --      2.5420                 2.3193                 1.9531
 Frc consts  --      1.0560                 1.0062                 0.9020
 IR Inten    --     33.6382                54.7543                34.1641

                     40                     41                     42
                      A                      A                      A
 Frequencies --    913.1983               958.6815               978.9143
 Red. masses --      1.8958                 1.8199                 2.4761
 Frc consts  --      0.9315                 0.9855                 1.3980
 IR Inten    --     11.0489                25.3836                21.5633

                     43                     44                     45
                      A                      A                      A
 Frequencies --    999.9719              1024.8951              1065.8811
 Red. masses --      1.8614                 2.7174                 2.4788
 Frc consts  --      1.0966                 1.6818                 1.6592
 IR Inten    --      3.2687                 7.8491                 5.9476

                     46                     47                     48
                      A                      A                      A
 Frequencies --   1103.8575              1119.3506              1122.2389
 Red. masses --      2.3402                 1.9789                 2.0972
 Frc consts  --      1.6801                 1.4609                 1.5562
 IR Inten    --     52.8626                 8.2011                53.6384

                     49                     50                     51
                      A                      A                      A
 Frequencies --   1127.9324              1130.5494              1171.1976
 Red. masses --      1.9188                 2.7826                 2.8023
 Frc consts  --      1.4383                 2.0955                 2.2647
 IR Inten    --     16.4383               134.7341                 3.9292

                     52                     53                     54
                      A                      A                      A
 Frequencies --   1187.0898              1197.7175              1260.5829
 Red. masses --      2.9443                 3.1662                 1.2963
 Frc consts  --      2.4446                 2.6760                 1.2136
 IR Inten    --    279.7324               179.8361                 8.2019

                     55                     56                     57
                      A                      A                      A
 Frequencies --   1283.2573              1297.9418              1320.9803
 Red. masses --      1.1474                 1.3148                 1.3797
 Frc consts  --      1.1133                 1.3050                 1.4185
 IR Inten    --     31.3452                 4.1384                21.5769

                     58                     59                     60
                      A                      A                      A
 Frequencies --   1337.5235              1350.7744              1366.7253
 Red. masses --      1.1908                 1.3907                 1.8371
 Frc consts  --      1.2552                 1.4950                 2.0218
 IR Inten    --     16.8389                 4.2402               319.8042

                     61                     62                     63
                      A                      A                      A
 Frequencies --   1374.7694              1400.8521              1414.5010
 Red. masses --      1.3315                 1.8315                 1.4825
 Frc consts  --      1.4827                 2.1176                 1.7476
 IR Inten    --     35.6593                84.2749                 7.7994

                     64                     65                     66
                      A                      A                      A
 Frequencies --   1432.5475              1433.8796              1444.8874
 Red. masses --      1.8294                 2.3235                 1.3270
 Frc consts  --      2.2120                 2.8146                 1.6323
 IR Inten    --     62.0543               297.4939                39.3545

                     67                     68                     69
                      A                      A                      A
 Frequencies --   1447.1650              1489.7135              1506.4336
 Red. masses --      1.5892                 1.1377                 1.2788
 Frc consts  --      1.9609                 1.4876                 1.7099
 IR Inten    --     51.1532                22.6187                18.0476

                     70                     71                     72
                      A                      A                      A
 Frequencies --   1507.3731              1517.8138              1522.3598
 Red. masses --      1.1359                 1.3601                 1.0714
 Frc consts  --      1.5206                 1.8460                 1.4630
 IR Inten    --     15.1274                55.8499                 2.1544

                     73                     74                     75
                      A                      A                      A
 Frequencies --   1533.0492              1535.4583              1541.2178
 Red. masses --      1.0549                 1.0942                 1.0570
 Frc consts  --      1.4608                 1.5200                 1.4793
 IR Inten    --      4.3983                 3.4189                 3.4167

                     76                     77                     78
                      A                      A                      A
 Frequencies --   1638.6942              1803.3170              1827.2932
 Red. masses --      1.2599                 7.2132                 8.5067
 Frc consts  --      1.9934                13.8205                16.7350
 IR Inten    --    142.9827               745.6160               142.5264

                     79                     80                     81
                      A                      A                      A
 Frequencies --   1832.3024              3014.7851              3043.0668
 Red. masses --      8.2826                 1.0692                 1.0380
 Frc consts  --     16.3836                 5.7258                 5.6631
 IR Inten    --    173.8052                40.0321                22.0765

                     82                     83                     84
                      A                      A                      A
 Frequencies --   3061.5276              3066.6126              3082.4119
 Red. masses --      1.0603                 1.0674                 1.0857
 Frc consts  --      5.8551                 5.9142                 6.0780
 IR Inten    --     13.8257                 3.9787                 2.7557

                     85                     86                     87
                      A                      A                      A
 Frequencies --   3088.9957              3097.4004              3101.7533
 Red. masses --      1.0983                 1.0659                 1.0901
 Frc consts  --      6.1744                 6.0253                 6.1791
 IR Inten    --      3.6321                34.1054                 5.3942

                     88                     89                     90
                      A                      A                      A
 Frequencies --   3115.8926              3120.1592              3139.7748
 Red. masses --      1.0997                 1.1016                 1.0948
 Frc consts  --      6.2903                 6.3188                 6.3591
 IR Inten    --     53.3777                40.6762                11.0277

                     91                     92                     93
                      A                      A                      A
 Frequencies --   3151.1083              3528.5268              3539.0488
 Red. masses --      1.1104                 1.0767                 1.0748
 Frc consts  --      6.4959                 7.8981                 7.9315
 IR Inten    --     13.5351               270.4790                42.7801

                     94                     95                     96
                      A                      A                      A
 Frequencies --   3613.8246              3674.0777              3738.8127
 Red. masses --      1.0454                 1.0638                 1.1052
 Frc consts  --      8.0438                 8.4608                 9.1026
 IR Inten    --     61.7534                52.1199                53.7763

 - Thermochemistry -
 -------------------
 Temperature   298.150 Kelvin.  Pressure   1.00000 Atm.
 Atom     1 has atomic number  6 and mass  12.00000

 Molecular mass:   247.11682 amu.
 Principal axes and moments of inertia in atomic units:
                           1         2         3
     Eigenvalues --  1844.29335********************
           X            0.99997   0.00490  -0.00587
           Y           -0.00568   0.98989  -0.14174
           Z            0.00511   0.14177   0.98989
 This molecule is an asymmetric top.
 Rotational symmetry number  1.
 Warning -- assumption of classical behavior for rotation
           may cause significant error
 Rotational temperatures (Kelvin)      0.04696     0.00865     0.00840
 Rotational constants (GHZ):           0.97855     0.18031     0.17506
 Zero-point vibrational energy     747098.4 (Joules/Mol)
                                  178.56081 (Kcal/Mol)
 Warning -- explicit consideration of  28 degrees of freedom as
           vibrations may cause significant error
 Vibrational temperatures:     18.09    37.57    45.93    68.85    96.00
          (Kelvin)            101.94   135.12   147.96   172.80   177.61
                              223.50   243.34   337.90   371.96   408.34
                              409.22   421.84   432.43   513.79   572.78
                              639.27   654.24   734.71   748.30   781.35
                              787.44   812.15   867.08   954.02   983.76
                             1047.93  1075.12  1092.73  1115.75  1167.48
                             1199.63  1208.14  1234.64  1273.84  1313.89
                             1379.33  1408.44  1438.74  1474.60  1533.57
                             1588.20  1610.50  1614.65  1622.84  1626.61
                             1685.09  1707.96  1723.25  1813.70  1846.32
                             1867.45  1900.60  1924.40  1943.46  1966.41
                             1977.99  2015.51  2035.15  2061.12  2063.03
                             2078.87  2082.15  2143.37  2167.42  2168.77
                             2183.80  2190.34  2205.72  2209.18  2217.47
                             2357.72  2594.57  2629.07  2636.27  4337.60
                             4378.29  4404.86  4412.17  4434.90  4444.38
                             4456.47  4462.73  4483.07  4489.21  4517.44
                             4533.74  5076.76  5091.90  5199.49  5286.18
                             5379.32

 Zero-point correction=                           0.284555 (Hartree/Particle)
 Thermal correction to Energy=                    0.303178
 Thermal correction to Enthalpy=                  0.304122
 Thermal correction to Gibbs Free Energy=         0.234176
 Sum of electronic and zero-point Energies=           -893.399554
 Sum of electronic and thermal Energies=              -893.380931
 Sum of electronic and thermal Enthalpies=            -893.379987
 Sum of electronic and thermal Free Energies=         -893.449933

                     E (Thermal)             CV                S
                      KCal/Mol        Cal/Mol-Kelvin    Cal/Mol-Kelvin
 Total                  190.247             66.547            147.213
 Electronic               0.000              0.000              0.000
 Translational            0.889              2.981             42.415
 Rotational               0.889              2.981             33.609
 Vibrational            188.469             60.586             71.190
 Vibration     1          0.593              1.987              7.556
 Vibration     2          0.593              1.985              6.105
 Vibration     3          0.594              1.983              5.706
 Vibration     4          0.595              1.978              4.904
 Vibration     5          0.598              1.970              4.248
 Vibration     6          0.598              1.968              4.130
 Vibration     7          0.603              1.954              3.577
 Vibration     8          0.605              1.947              3.400
 Vibration     9          0.609              1.932              3.099
 Vibration    10          0.610              1.929              3.046
 Vibration    11          0.620              1.897              2.606
 Vibration    12          0.625              1.880              2.445
 Vibration    13          0.655              1.787              1.842
 Vibration    14          0.667              1.748              1.672
 Vibration    15          0.682              1.704              1.511
 Vibration    16          0.683              1.703              1.507
 Vibration    17          0.688              1.686              1.455
 Vibration    18          0.693              1.673              1.414
 Vibration    19          0.732              1.561              1.135
 Vibration    20          0.764              1.474              0.970
 Vibration    21          0.804              1.373              0.813
 Vibration    22          0.813              1.350              0.782
 Vibration    23          0.866              1.226              0.632
 Vibration    24          0.875              1.205              0.610
 Vibration    25          0.898              1.155              0.559
 Vibration    26          0.903              1.146              0.550
 Vibration    27          0.920              1.108              0.515
 Vibration    28          0.961              1.026              0.445

 Optimization completed.
    -- Stationary point found.
 Normal termination of Gaussian 16 at Fri Dec 11 13:32:34 2020.

 ----------------------------------------------------------------------
 # B3LYP/6-311++G(d,p) empiricaldispersion=gd3bj scf=xqc pop=npa geom=c
 heck
 ----------------------------------------------------------------------

 --------------------------------------
 CID_83203179_JID_7811_Energie_neutraal
 --------------------------------------
 Structure from the checkpoint file:  "JID_7811.chk"
 Charge =  0 Multiplicity = 1

 SCF Done:  E(RB3LYP) =  -893.973201681     A.U. after   14 cycles
 Normal termination of Gaussian 16 at Fri Dec 11 13:37:41 2020.

 ----------------------------------------------------------------------
 # B3LYP/6-311++G(d,p) empiricaldispersion=gd3bj scf=xqc pop=npa geom=c
 heck
 ----------------------------------------------------------------------

 ------------------------------------
 CID_83203179_JID_7811_Energie_kation
 ------------------------------------
 Structure from the checkpoint file:  "JID_7811.chk"
 Charge =  1 Multiplicity = 2

 SCF Done:  E(UB3LYP) =  -893.660463002     A.U. after   33 cycles
 SCF Done:  E(UB3LYP) =  -893.660463002     a.u. after    1 cycles
 Normal termination of Gaussian 16 at Fri Dec 11 13:54:54 2020.
 Gaussian 16:  ES64L-G16RevA.03 25-Dec-2016

 ----------------------------------------------------------------------
 # B3LYP/6-311++G(d,p) empiricaldispersion=gd3bj scf=xqc pop=npa geom=c
 heck
 ----------------------------------------------------------------------

 -----------------------------------
 CID_83203179_JID_7811_Energie_anion
 -----------------------------------
 Structure from the checkpoint file:  "JID_7811.chk"
 Charge = -1 Multiplicity = 2

                         Standard orientation:
 ---------------------------------------------------------------------
 Center     Atomic      Atomic             Coordinates (Angstroms)
 Number     Number       Type             X           Y           Z
 ---------------------------------------------------------------------
      1          6           0       -2.435172   -2.342486    1.428850
      2          6           0       -1.916821   -0.903304    1.356458
      3          6           0       -1.609909   -0.420396   -0.073315
      4          6           0       -2.812012   -0.528532   -1.027604
      5          6           0       -4.028210    0.231809   -0.550235
      6          8           0       -4.015243    1.291286    0.043545
      7          8           0       -5.181583   -0.397159   -0.873681
      8          7           0       -1.105586    0.960622   -0.098422
      9          6           0        0.085970    1.296815    0.556626
     10          8           0        0.163006    2.249244    1.321905
     11          7           0        1.173950    0.491293    0.269351
     12          6           0        1.401492   -0.112354   -1.038481
     13          6           0        2.786084    0.186719   -1.604057
     14          8           0        3.813938   -0.657574   -1.042120
     15          6           0        4.390342   -0.229962    0.109862
     16          8           0        4.052110    0.760318    0.736699
     17          7           0        5.382522   -1.084002    0.483018
     18          1           0       -3.427147   -2.443979    0.973880
     19          1           0       -2.518176   -2.673203    2.469383
     20          1           0       -1.758264   -3.036446    0.914310
     21          1           0       -2.637284   -0.216575    1.816131
     22          1           0       -0.989786   -0.814956    1.934347
     23          1           0       -0.837628   -1.074249   -0.487278
     24          1           0       -2.526944   -0.103077   -1.998078
     25          1           0       -3.087064   -1.571747   -1.196741
     26          1           0       -5.903272    0.177615   -0.553480
     27          1           0       -1.832045    1.611294    0.190867
     28          1           0        2.017117    0.817158    0.735743
     29          1           0        1.283630   -1.205799   -1.011126
     30          1           0        0.657403    0.279899   -1.741093
     31          1           0        2.805710   -0.052519   -2.669836
     32          1           0        3.053488    1.236342   -1.457245
     33          1           0        5.740185   -1.754787   -0.179906
     34          1           0        5.975474   -0.789140    1.243094
 ---------------------------------------------------------------------

 SCF Done:  E(UB3LYP) =  -893.969802490     A.U. after   33 cycles
 SCF Done:  E(UB3LYP) =  -893.969802490     a.u. after    1 cycles

 The electronic state is 2-A.
 Alpha  occ. eigenvalues --  -19.09375 -19.08410 -19.03988 -19.01914 -18.98785
 Alpha  occ. eigenvalues --  -14.25038 -14.23162 -14.22918 -10.24315 -10.23135
 Alpha  occ. eigenvalues --  -10.19701 -10.15301 -10.13533 -10.12750 -10.10812
 Alpha  occ. eigenvalues --  -10.08689 -10.08477  -1.03497  -1.03029  -0.95208
 Alpha  occ. eigenvalues --   -0.94529  -0.93936  -0.84245  -0.83172  -0.81425
 Alpha  occ. eigenvalues --   -0.71760  -0.68104  -0.67350  -0.59727  -0.58438
 Alpha  occ. eigenvalues --   -0.54183  -0.51789  -0.50770  -0.49744  -0.47454
 Alpha  occ. eigenvalues --   -0.44417  -0.43454  -0.41796  -0.41660  -0.41194
 Alpha  occ. eigenvalues --   -0.40057  -0.38655  -0.37980  -0.37106  -0.35891
 Alpha  occ. eigenvalues --   -0.35249  -0.34911  -0.33717  -0.33271  -0.32412
 Alpha  occ. eigenvalues --   -0.31861  -0.31366  -0.29812  -0.29666  -0.29134
 Alpha  occ. eigenvalues --   -0.27797  -0.26613  -0.25904  -0.24862  -0.22757
 Alpha  occ. eigenvalues --   -0.21084  -0.20751  -0.20048  -0.18526  -0.16578
 Alpha  occ. eigenvalues --   -0.15360   0.03194
 Alpha virt. eigenvalues --    0.04383   0.05634   0.06442   0.06968   0.08028
 Alpha virt. eigenvalues --    0.08320   0.09228   0.09393   0.10106   0.10904
 Alpha virt. eigenvalues --    0.11126   0.11398   0.11769   0.12127   0.12616

  Beta  occ. eigenvalues --  -19.09325 -19.08396 -19.03970 -19.01908 -18.98784
  Beta  occ. eigenvalues --  -14.24963 -14.23161 -14.22915 -10.24312 -10.23112
  Beta  occ. eigenvalues --  -10.19700 -10.15286 -10.13529 -10.12737 -10.10786
  Beta  occ. eigenvalues --  -10.08686 -10.08461  -1.03423  -1.03009  -0.95204
  Beta  occ. eigenvalues --   -0.94470  -0.93918  -0.84233  -0.83087  -0.81409
  Beta  occ. eigenvalues --   -0.71732  -0.68068  -0.67306  -0.59677  -0.58394
  Beta  occ. eigenvalues --   -0.54115  -0.51768  -0.50689  -0.49682  -0.47387
  Beta  occ. eigenvalues --   -0.44374  -0.43418  -0.41759  -0.41602  -0.41173
  Beta  occ. eigenvalues --   -0.40023  -0.38620  -0.37956  -0.37068  -0.35850
  Beta  occ. eigenvalues --   -0.35219  -0.34890  -0.33693  -0.33249  -0.32389
  Beta  occ. eigenvalues --   -0.31827  -0.31331  -0.29786  -0.29645  -0.29115
  Beta  occ. eigenvalues --   -0.27775  -0.26590  -0.25883  -0.24793  -0.22742
  Beta  occ. eigenvalues --   -0.21062  -0.20712  -0.19988  -0.18520  -0.16570
  Beta  occ. eigenvalues --   -0.15355
  Beta virt. eigenvalues --    0.05384   0.06022   0.06426   0.06807   0.07315
  Beta virt. eigenvalues --    0.08215   0.09058   0.09377   0.09841   0.10390
  Beta virt. eigenvalues --    0.10959   0.11205   0.11402   0.11873   0.12166

 Mulliken charges and spin densities:
               1          2
     1  C   -0.070046  -0.595019
     2  C   -0.879070   0.693935
     3  C   -0.465950   0.227553
     4  C    1.378078  -1.859130
     5  C   -0.458221   0.437286
     6  O   -0.269125   0.003423
     7  O   -0.144715   0.048582
     8  N   -0.035475   0.053049
     9  C   -0.013620   0.054343
    10  O   -0.322643   0.001880
    11  N   -0.185413   0.019309
    12  C   -0.592027   0.593266
    13  C    0.618213  -1.375247
    14  O   -0.090008   0.021135
    15  C    0.676029  -0.552817
    16  O   -0.320251  -0.018241
    17  N   -0.420904   0.081431
    18  H    0.047489   0.111391
    19  H    0.076151   0.061840
    20  H   -0.063039   0.207889
    21  H    0.129713   0.028707
    22  H    0.152506   0.042368
    23  H    0.563612  -0.407571
    24  H   -0.325248   0.538082
    25  H    0.123993   0.121992
    26  H   -0.378129   0.667128
    27  H    0.387021  -0.057026
    28  H    0.362576   0.017218
    29  H   -0.210296   0.404018
    30  H    0.264432  -0.078409
    31  H   -0.245913   0.436269
    32  H    0.228302  -0.013960
    33  H   -0.347097   0.628720
    34  H   -0.170925   0.456605
 Sum of Mulliken charges =  -1.00000   1.00000

 Dipole moment (field-independent basis, Debye):
    X=             -2.4328    Y=             -0.5654    Z=             -0.6849  Tot=              2.5898
 Quadrupole moment (field-independent basis, Debye-Ang):
   XX=           -227.8791   YY=           -143.5842   ZZ=           -132.4937
   XY=             14.4200   XZ=             -8.8246   YZ=            -10.1127

 Summary of Natural Population Analysis:

                                       Natural Population
                Natural  -----------------------------------------------
    Atom  No    Charge         Core      Valence    Rydberg      Total
 -----------------------------------------------------------------------
      C    1   -0.28810      0.99967     2.28437    0.00407     3.28810
      C    2   -0.20121      0.99961     2.19381    0.00778     3.20121
      C    3   -0.00964      0.99958     1.99661    0.01346     3.00964
      C    4   -0.24548      0.99955     2.23548    0.01044     3.24548
      C    5    0.41158      0.99972     1.56344    0.02525     2.58842
      O    6   -0.31344      0.99987     3.30768    0.00589     4.31344
      O    7   -0.34067      0.99988     3.33420    0.00659     4.34067
      N    8   -0.35161      0.99968     2.84180    0.01014     3.85161
      C    9    0.40942      0.99970     1.56749    0.02339     2.59058
      O   10   -0.32998      0.99987     3.32516    0.00494     4.32998
      N   11   -0.34659      0.99966     2.83746    0.00946     3.84659
      C   12   -0.10582      0.99961     2.09576    0.01045     3.10582
      C   13   -0.01682      0.99955     2.00534    0.01193     3.01682
      O   14   -0.28901      0.99986     3.27920    0.00995     4.28901
      C   15    0.45767      0.99972     1.51697    0.02563     2.54233
      O   16   -0.33877      0.99986     3.33325    0.00565     4.33877
      N   17   -0.40114      0.99971     2.89344    0.00799     3.90114
      H   18    0.09807      0.00000     0.40096    0.00097     0.40193
      H   19    0.10061      0.00000     0.39867    0.00072     0.39939
      H   20    0.09713      0.00000     0.40193    0.00094     0.40287
      H   21    0.10165      0.00000     0.39724    0.00111     0.39835
      H   22    0.10418      0.00000     0.39468    0.00114     0.39582
      H   23    0.09982      0.00000     0.39759    0.00259     0.40018
      H   24    0.12381      0.00000     0.37462    0.00157     0.37619
      H   25    0.11553      0.00000     0.38337    0.00110     0.38447
      H   26    0.24362      0.00000     0.24565    0.01073     0.25638
      H   27    0.20383      0.00000     0.29392    0.00225     0.29617
      H   28    0.21150      0.00000     0.28584    0.00266     0.28850
      H   29    0.09467      0.00000     0.40368    0.00165     0.40533
      H   30    0.10637      0.00000     0.39206    0.00158     0.39363
      H   31    0.09734      0.00000     0.40150    0.00116     0.40266
      H   32    0.09781      0.00000     0.40102    0.00117     0.40219
      H   33    0.20336      0.00000     0.28563    0.01101     0.29664
      H   34    0.20030      0.00000     0.29689    0.00281     0.29970
 =======================================================================
   * Total *    0.00000     16.99511    48.76671    0.23818    66.00000

 Normal termination of Gaussian 16 at Fri Dec 11 14:12:20 2020.
