 Gaussian 16, Revision A.03,

 -----------------------------------------------------------
 # opt freq B3LYP/6-31G(d) empiricaldispersion=gd3bj scf=xqc
 -----------------------------------------------------------

 -------------------------------
 CID_141124263_JID_7910_neutraal
 -------------------------------
 Symbolic Z-matrix:
 Charge =  0 Multiplicity = 1

 SCF Done:  E(RB3LYP) =  -1195.60979459     A.U. after   15 cycles
 SCF Done:  E(RB3LYP) =  -1195.61960342     A.U. after   13 cycles
 SCF Done:  E(RB3LYP) =  -1195.62067765     A.U. after   12 cycles
 SCF Done:  E(RB3LYP) =  -1195.62097396     A.U. after   12 cycles
 SCF Done:  E(RB3LYP) =  -1195.62109941     A.U. after   12 cycles
 SCF Done:  E(RB3LYP) =  -1195.62118940     A.U. after   11 cycles
 SCF Done:  E(RB3LYP) =  -1195.62124423     A.U. after   11 cycles
 SCF Done:  E(RB3LYP) =  -1195.62126182     A.U. after    9 cycles
 SCF Done:  E(RB3LYP) =  -1195.62126394     A.U. after    9 cycles
 SCF Done:  E(RB3LYP) =  -1195.62126462     A.U. after    9 cycles
 Optimization completed.
    -- Stationary point found.
 Normal termination of Gaussian 16 at Fri Dec 11 12:59:42 2020.

 --------------------------------------------------------------------
 #N Geom=AllCheck Guess=TCheck SCRF=Check GenChk RB3LYP/6-31G(d) Freq
 --------------------------------------------------------------------

 Structure from the checkpoint file:  "JID_7910.chk"
 -------------------------------
 CID_141124263_JID_7910_neutraal
 -------------------------------
 Charge =  0 Multiplicity = 1

 SCF Done:  E(RB3LYP) =  -1195.62126462     A.U. after    1 cycles

  Exact polarizability: 199.631   1.719 142.212   7.943   1.172  83.549
 Approx polarizability: 279.783   1.084 270.773  14.404   3.280 130.230

                      1                      2                      3
                      A                      A                      A
 Frequencies --     41.6999                45.8339               123.9093
 Red. masses --      8.5887                 5.2555                 6.8247
 Frc consts  --      0.0088                 0.0065                 0.0617
 IR Inten    --      0.9334                 1.1307                 0.6055

                      4                      5                      6
                      A                      A                      A
 Frequencies --    147.4975               163.8888               170.7086
 Red. masses --      7.3857                 5.6136                11.3872
 Frc consts  --      0.0947                 0.0888                 0.1955
 IR Inten    --      2.5323                 0.0677                 1.6160

                      7                      8                      9
                      A                      A                      A
 Frequencies --    206.0414               220.1740               242.6044
 Red. masses --      1.1483                 4.4903                 3.2611
 Frc consts  --      0.0287                 0.1282                 0.1131
 IR Inten    --      0.4136                 0.0620                 0.3862

                     10                     11                     12
                      A                      A                      A
 Frequencies --    267.7714               276.4563               300.0853
 Red. masses --      5.6694                 6.8416                 3.3609
 Frc consts  --      0.2395                 0.3081                 0.1783
 IR Inten    --      3.4023                 2.6126                 1.0979

                     13                     14                     15
                      A                      A                      A
 Frequencies --    355.1293               362.6201               412.8586
 Red. masses --      4.6727                 6.4825                 2.4429
 Frc consts  --      0.3472                 0.5022                 0.2453
 IR Inten    --      0.2136                11.4788                 6.0725

                     16                     17                     18
                      A                      A                      A
 Frequencies --    440.9985               463.6288               506.2242
 Red. masses --      4.4793                 3.9398                 3.9623
 Frc consts  --      0.5133                 0.4990                 0.5983
 IR Inten    --      0.9551                 6.4568                13.6867

                     19                     20                     21
                      A                      A                      A
 Frequencies --    515.6968               561.0168               577.6914
 Red. masses --      3.4838                 9.8384                 8.7155
 Frc consts  --      0.5459                 1.8244                 1.7137
 IR Inten    --      7.1020                 9.4643                 6.7024

                     22                     23                     24
                      A                      A                      A
 Frequencies --    595.0526               605.7842               674.5050
 Red. masses --      8.8165                 7.4351                 4.6071
 Frc consts  --      1.8393                 1.6076                 1.2350
 IR Inten    --      5.8123                26.3099                 5.1836

                     25                     26                     27
                      A                      A                      A
 Frequencies --    715.2822               728.3346               733.1173
 Red. masses --      2.9690                 1.5436                 4.4770
 Frc consts  --      0.8950                 0.4824                 1.4177
 IR Inten    --      4.0863                 3.6332                53.0293

                     28                     29                     30
                      A                      A                      A
 Frequencies --    746.9215               788.5721               796.5488
 Red. masses --     10.4971                 4.4053                 4.8644
 Frc consts  --      3.4504                 1.6140                 1.8185
 IR Inten    --     20.3273                35.5430                 4.6139

                     31                     32                     33
                      A                      A                      A
 Frequencies --    819.0251               828.3389               837.4676
 Red. masses --      5.7682                 1.3982                 5.0668
 Frc consts  --      2.2797                 0.5653                 2.0937
 IR Inten    --     88.6995                37.6472                40.8067

                     34                     35                     36
                      A                      A                      A
 Frequencies --    855.0883               891.7116               906.3345
 Red. masses --      4.3905                 3.2133                 2.8717
 Frc consts  --      1.8914                 1.5054                 1.3898
 IR Inten    --      7.0547                26.1181                13.9965

                     37                     38                     39
                      A                      A                      A
 Frequencies --    939.9905               962.7821               994.3164
 Red. masses --      5.3980                 2.0353                 2.0152
 Frc consts  --      2.8102                 1.1116                 1.1738
 IR Inten    --     10.7434                 7.7737                 4.4399

                     40                     41                     42
                      A                      A                      A
 Frequencies --   1033.8442              1053.2048              1080.6110
 Red. masses --      1.9020                 3.4514                 3.9458
 Frc consts  --      1.1978                 2.2556                 2.7147
 IR Inten    --      5.1376                 9.4022                53.6699

                     43                     44                     45
                      A                      A                      A
 Frequencies --   1117.6421              1155.3500              1160.9882
 Red. masses --      8.9575                 2.1072                 1.7981
 Frc consts  --      6.5924                 1.6572                 1.4280
 IR Inten    --     68.4612                42.3830                25.2545

                     46                     47                     48
                      A                      A                      A
 Frequencies --   1191.6080              1201.2977              1261.7345
 Red. masses --      1.3926                 2.1811                 2.8867
 Frc consts  --      1.1651                 1.8545                 2.7076
 IR Inten    --      2.0896                63.8732                43.7094

                     49                     50                     51
                      A                      A                      A
 Frequencies --   1276.6034              1300.7579              1319.4438
 Red. masses --      1.3877                 1.5339                 1.5717
 Frc consts  --      1.3325                 1.5291                 1.6121
 IR Inten    --     22.6799                53.1445               179.5231

                     52                     53                     54
                      A                      A                      A
 Frequencies --   1340.7112              1397.3723              1416.5686
 Red. masses --      5.4235                 1.4279                 1.2794
 Frc consts  --      5.7439                 1.6428                 1.5126
 IR Inten    --    353.4308                32.4700                17.7943

                     55                     56                     57
                      A                      A                      A
 Frequencies --   1430.9596              1432.8599              1484.8704
 Red. masses --      1.3141                 4.5899                 1.0964
 Frc consts  --      1.5854                 5.5521                 1.4243
 IR Inten    --     45.7475                21.5450                 4.3666

                     58                     59                     60
                      A                      A                      A
 Frequencies --   1487.8250              1512.0399              1518.0460
 Red. masses --      1.1267                 1.0657                 1.0860
 Frc consts  --      1.4695                 1.4356                 1.4746
 IR Inten    --      3.7183                 3.1233                 1.8550

                     61                     62                     63
                      A                      A                      A
 Frequencies --   1544.0575              1573.6447              1622.6617
 Red. masses --      1.0551                 9.3740                 9.4917
 Frc consts  --      1.4820                13.6770                14.7249
 IR Inten    --     10.6725               143.3443                 3.3158

                     64                     65                     66
                      A                      A                      A
 Frequencies --   1810.0705              1856.8716              3050.5632
 Red. masses --     12.7300                12.8592                 1.0660
 Frc consts  --     24.5736                26.1234                 5.8447
 IR Inten    --    532.2277               134.6124                48.4482

                     67                     68                     69
                      A                      A                      A
 Frequencies --   3081.0659              3110.4888              3129.9112
 Red. masses --      1.0418                 1.0627                 1.0974
 Frc consts  --      5.8267                 6.0580                 6.3338
 IR Inten    --     12.9890                 5.2039                23.4799

                     70                     71                     72
                      A                      A                      A
 Frequencies --   3162.7362              3164.4418              3188.9119
 Red. masses --      1.0966                 1.1044                 1.1034
 Frc consts  --      6.4628                 6.5158                 6.6111
 IR Inten    --     12.8491                13.0528                 4.9093

                     73                     74                     75
                      A                      A                      A
 Frequencies --   3281.5079              3282.8766              3475.6884
 Red. masses --      1.0935                 1.0967                 1.0775
 Frc consts  --      6.9380                 6.9639                 7.6692
 IR Inten    --      5.1156                 0.6337                 3.7834

 - Thermochemistry -
 -------------------
 Temperature   298.150 Kelvin.  Pressure   1.00000 Atm.
 Atom     1 has atomic number  6 and mass  12.00000

 Molecular mass:   254.03613 amu.
 Principal axes and moments of inertia in atomic units:
                           1         2         3
     Eigenvalues --  1629.791857145.622388056.48229
           X            0.99997   0.00544   0.00613
           Y           -0.00539   0.99996  -0.00660
           Z           -0.00616   0.00657   0.99996
 This molecule is an asymmetric top.
 Rotational symmetry number  1.
 Warning -- assumption of classical behavior for rotation
           may cause significant error
 Rotational temperatures (Kelvin)      0.05314     0.01212     0.01075
 Rotational constants (GHZ):           1.10734     0.25257     0.22401
 Zero-point vibrational energy     528340.0 (Joules/Mol)
                                  126.27628 (Kcal/Mol)
 Warning -- explicit consideration of  23 degrees of freedom as
           vibrations may cause significant error
 Vibrational temperatures:     60.00    65.94   178.28   212.22   235.80
          (Kelvin)            245.61   296.45   316.78   349.05   385.26
                              397.76   431.76   510.95   521.73   594.01
                              634.50   667.06   728.34   741.97   807.18
                              831.17   856.15   871.59   970.46  1029.13
                             1047.91  1054.79  1074.65  1134.58  1146.06
                             1178.39  1191.79  1204.93  1230.28  1282.97
                             1304.01  1352.44  1385.23  1430.60  1487.47
                             1515.33  1554.76  1608.04  1662.29  1670.40
                             1714.46  1728.40  1815.35  1836.75  1871.50
                             1898.39  1928.98  2010.51  2038.13  2058.83
                             2061.57  2136.40  2140.65  2175.49  2184.13
                             2221.55  2264.12  2334.65  2604.29  2671.62
                             4389.08  4432.97  4475.30  4503.24  4550.47
                             4552.93  4588.13  4721.36  4723.33  5000.74

 Zero-point correction=                           0.201234 (Hartree/Particle)
 Thermal correction to Energy=                    0.215371
 Thermal correction to Enthalpy=                  0.216316
 Thermal correction to Gibbs Free Energy=         0.160015
 Sum of electronic and zero-point Energies=          -1195.420031
 Sum of electronic and thermal Energies=             -1195.405893
 Sum of electronic and thermal Enthalpies=           -1195.404949
 Sum of electronic and thermal Free Energies=        -1195.461249

                     E (Thermal)             CV                S
                      KCal/Mol        Cal/Mol-Kelvin    Cal/Mol-Kelvin
 Total                  135.148             55.725            118.494
 Electronic               0.000              0.000              0.000
 Translational            0.889              2.981             42.497
 Rotational               0.889              2.981             32.906
 Vibrational            133.370             49.764             43.091
 Vibration     1          0.594              1.981              5.177
 Vibration     2          0.595              1.979              4.990
 Vibration     3          0.610              1.929              3.038
 Vibration     4          0.617              1.905              2.704
 Vibration     5          0.623              1.887              2.504
 Vibration     6          0.626              1.879              2.428
 Vibration     7          0.641              1.831              2.078
 Vibration     8          0.647              1.810              1.958
 Vibration     9          0.659              1.775              1.784
 Vibration    10          0.673              1.732              1.611
 Vibration    11          0.678              1.717              1.555
 Vibration    12          0.693              1.674              1.416
 Vibration    13          0.731              1.565              1.143
 Vibration    14          0.736              1.549              1.111
 Vibration    15          0.777              1.442              0.917
 Vibration    16          0.801              1.381              0.823
 Vibration    17          0.821              1.331              0.756
 Vibration    18          0.861              1.236              0.643
 Vibration    19          0.871              1.215              0.620
 Vibration    20          0.917              1.116              0.522
 Vibration    21          0.934              1.080              0.490
 Vibration    22          0.953              1.042              0.458
 Vibration    23          0.964              1.020              0.440

 Optimization completed.
    -- Stationary point found.
 Normal termination of Gaussian 16 at Fri Dec 11 13:09:29 2020.

 ----------------------------------------------------------------------
 # B3LYP/6-311++G(d,p) empiricaldispersion=gd3bj scf=xqc pop=npa geom=c
 heck
 ----------------------------------------------------------------------

 ---------------------------------------
 CID_141124263_JID_7910_Energie_neutraal
 ---------------------------------------
 Structure from the checkpoint file:  "JID_7910.chk"
 Charge =  0 Multiplicity = 1

 SCF Done:  E(RB3LYP) =  -1195.87308150     A.U. after   15 cycles
 Normal termination of Gaussian 16 at Fri Dec 11 13:13:14 2020.

 ----------------------------------------------------------------------
 # B3LYP/6-311++G(d,p) empiricaldispersion=gd3bj scf=xqc pop=npa geom=c
 heck
 ----------------------------------------------------------------------

 -------------------------------------
 CID_141124263_JID_7910_Energie_kation
 -------------------------------------
 Structure from the checkpoint file:  "JID_7910.chk"
 Charge =  1 Multiplicity = 2

 SCF Done:  E(UB3LYP) =  -1195.54727336     A.U. after   33 cycles
 SCF Done:  E(UB3LYP) =  -1195.54933452     a.u. after   13 cycles
 Normal termination of Gaussian 16 at Fri Dec 11 15:20:51 2020.
 Gaussian 16:  ES64L-G16RevA.03 25-Dec-2016

 ----------------------------------------------------------------------
 # B3LYP/6-311++G(d,p) empiricaldispersion=gd3bj scf=xqc pop=npa geom=c
 heck
 ----------------------------------------------------------------------

 ------------------------------------
 CID_141124263_JID_7910_Energie_anion
 ------------------------------------
 Structure from the checkpoint file:  "JID_7910.chk"
 Charge = -1 Multiplicity = 2

                         Standard orientation:
 ---------------------------------------------------------------------
 Center     Atomic      Atomic             Coordinates (Angstroms)
 Number     Number       Type             X           Y           Z
 ---------------------------------------------------------------------
      1          6           0        1.952066   -0.653255    1.760388
      2          6           0        1.615772   -0.054834    0.392181
      3          6           0        2.317190    1.292719    0.128696
      4          6           0        3.814840    1.070386   -0.118655
      5          8           0        4.007463    0.099902   -1.148106
      6          7           0        3.424697   -1.106193   -0.628579
      7          8           0        1.998531   -0.930600   -0.695587
      8          7           0        0.152713    0.024675    0.239995
      9          6           0       -0.645701   -1.163986    0.190534
     10          8           0       -0.248514   -2.298999    0.322231
     11          6           0       -2.032567   -0.685982   -0.016030
     12          6           0       -3.270520   -1.232032   -0.176138
     13         16           0       -4.457701    0.035963   -0.334346
     14          6           0       -3.258490    1.291957   -0.172601
     15          6           0       -2.026064    0.733187   -0.014273
     16          6           0       -0.634726    1.206813    0.181251
     17          8           0       -0.247721    2.350682    0.297156
     18          1           0        3.029225   -0.776726    1.874252
     19          1           0        1.479060   -1.630539    1.860531
     20          1           0        1.582562    0.015225    2.544624
     21          1           0        1.886281    1.741383   -0.767249
     22          1           0        2.165310    1.987321    0.957382
     23          1           0        4.341099    0.750759    0.789890
     24          1           0        4.277441    1.988330   -0.490134
     25          1           0        3.556817   -1.741183   -1.418255
     26          1           0       -3.563952   -2.271877   -0.212630
     27          1           0       -3.541357    2.334806   -0.206458
 ---------------------------------------------------------------------

 SCF Done:  E(UB3LYP) =  -1195.89169207     A.U. after   29 cycles

 The electronic state is 2-A.
 Alpha  occ. eigenvalues --  -88.75502 -19.05880 -19.04452 -18.93000 -18.92953
 Alpha  occ. eigenvalues --  -14.30755 -14.20604 -10.15723 -10.12372 -10.10482
 Alpha  occ. eigenvalues --  -10.10408 -10.06921 -10.06764 -10.05967 -10.04510
 Alpha  occ. eigenvalues --  -10.03130 -10.03012  -7.84049  -5.80331  -5.79968
 Alpha  occ. eigenvalues --   -5.79670  -1.01932  -0.92126  -0.89321  -0.87869
 Alpha  occ. eigenvalues --   -0.79652  -0.75388  -0.72158  -0.64483  -0.62632
 Alpha  occ. eigenvalues --   -0.60121  -0.59772  -0.54882  -0.49795  -0.48947
 Alpha  occ. eigenvalues --   -0.44541  -0.43363  -0.42064  -0.40716  -0.39411
 Alpha  occ. eigenvalues --   -0.36235  -0.34894  -0.34274  -0.33109  -0.32301
 Alpha  occ. eigenvalues --   -0.30858  -0.30524  -0.29396  -0.28276  -0.27547
 Alpha  occ. eigenvalues --   -0.27247  -0.26424  -0.25386  -0.24854  -0.24455
 Alpha  occ. eigenvalues --   -0.23858  -0.23520  -0.22502  -0.21751  -0.17197
 Alpha  occ. eigenvalues --   -0.14295  -0.13723  -0.11932  -0.11565  -0.11556
 Alpha  occ. eigenvalues --   -0.10103   0.04424
 Alpha virt. eigenvalues --    0.07829   0.08440   0.09589   0.09730   0.09868
 Alpha virt. eigenvalues --    0.10145   0.11267   0.12333   0.13177   0.13346
 Alpha virt. eigenvalues --    0.13651   0.14335   0.14805   0.15318   0.15992

  Beta  occ. eigenvalues --  -88.75523 -19.05881 -19.04457 -18.92503 -18.92453
  Beta  occ. eigenvalues --  -14.30755 -14.20749 -10.15719 -10.12372 -10.10108
  Beta  occ. eigenvalues --  -10.10069 -10.06847 -10.06654 -10.05968 -10.04514
  Beta  occ. eigenvalues --  -10.03009 -10.02889  -7.84068  -5.80348  -5.79985
  Beta  occ. eigenvalues --   -5.79722  -1.01935  -0.92076  -0.88620  -0.86966
  Beta  occ. eigenvalues --   -0.79384  -0.75234  -0.72081  -0.64368  -0.62540
  Beta  occ. eigenvalues --   -0.60061  -0.59420  -0.54857  -0.49464  -0.48138
  Beta  occ. eigenvalues --   -0.44506  -0.43247  -0.41850  -0.40508  -0.39335
  Beta  occ. eigenvalues --   -0.36208  -0.34824  -0.34170  -0.33072  -0.32137
  Beta  occ. eigenvalues --   -0.30227  -0.29884  -0.28841  -0.28101  -0.27397
  Beta  occ. eigenvalues --   -0.26969  -0.25841  -0.25303  -0.24702  -0.24417
  Beta  occ. eigenvalues --   -0.23145  -0.22383  -0.21814  -0.20910  -0.17139
  Beta  occ. eigenvalues --   -0.14284  -0.11934  -0.11736  -0.11186  -0.10464
  Beta  occ. eigenvalues --   -0.09654
  Beta virt. eigenvalues --    0.07828   0.09466   0.09569   0.09695   0.09940
  Beta virt. eigenvalues --    0.10128   0.11232   0.11375   0.12392   0.13137
  Beta virt. eigenvalues --    0.13322   0.13652   0.14346   0.14777   0.15310

 Mulliken charges and spin densities:
               1          2
     1  C   -0.191056   0.008034
     2  C   -0.566685  -0.018677
     3  C   -0.068770   0.004107
     4  C   -0.712149  -0.003129
     5  O   -0.027257   0.000156
     6  N   -0.342583  -0.002780
     7  O    0.066913  -0.000016
     8  N    0.374035  -0.080133
     9  C   -0.923678   0.160399
    10  O   -0.380654   0.179808
    11  C    0.615269   0.055320
    12  C    0.276258   0.148070
    13  S   -0.530973  -0.036305
    14  C    0.284249   0.162587
    15  C    0.193338   0.053789
    16  C   -0.687907   0.190989
    17  O   -0.400196   0.177703
    18  H    0.125449   0.000618
    19  H    0.202669   0.002705
    20  H    0.156198   0.000459
    21  H    0.227521   0.000827
    22  H    0.182927   0.004360
    23  H    0.134046  -0.000398
    24  H    0.182366   0.000353
    25  H    0.305234   0.001767
    26  H    0.252212  -0.004340
    27  H    0.253226  -0.006274
 Sum of Mulliken charges =  -1.00000   1.00000

 Dipole moment (field-independent basis, Debye):
    X=              3.5354    Y=              0.5578    Z=              0.2585  Tot=              3.5885
 Quadrupole moment (field-independent basis, Debye-Ang):
   XX=           -134.7042   YY=           -130.4675   ZZ=           -113.0583
   XY=              2.4208   XZ=              2.2722   YZ=              2.0188

 Summary of Natural Population Analysis:

                                       Natural Population
                Natural  -----------------------------------------------
    Atom  No    Charge         Core      Valence    Rydberg      Total
 -----------------------------------------------------------------------
      C    1   -0.30936      0.99960     2.30401    0.00575     3.30936
      C    2    0.24407      0.99957     1.73774    0.01862     2.75593
      C    3   -0.22174      0.99957     2.21261    0.00956     3.22174
      C    4   -0.01380      0.99960     2.00207    0.01213     3.01380
      O    5   -0.23271      0.99990     3.22163    0.01118     4.23271
      N    6   -0.03823      0.99979     2.52381    0.01463     3.53823
      O    7   -0.22687      0.99988     3.21496    0.01203     4.22687
      N    8   -0.30268      0.99960     2.79113    0.01195     3.80268
      C    9    0.38816      0.99962     1.59061    0.02160     2.61184
      O   10   -0.25664      0.99987     3.25107    0.00570     4.25664
      C   11   -0.04991      0.99941     2.04093    0.00957     3.04991
      C   12   -0.16791      0.99949     2.15764    0.01078     3.16791
      S   13    0.16301      4.99949     2.81290    0.02460     7.83699
      C   14   -0.15981      0.99949     2.14953    0.01079     3.15981
      C   15   -0.04944      0.99942     2.04047    0.00955     3.04944
      C   16    0.39220      0.99962     1.58680    0.02138     2.60780
      O   17   -0.26869      0.99987     3.26319    0.00563     4.26869
      H   18    0.09907      0.00000     0.39992    0.00101     0.40093
      H   19    0.12187      0.00000     0.37695    0.00118     0.37813
      H   20    0.10089      0.00000     0.39823    0.00088     0.39911
      H   21    0.11708      0.00000     0.38160    0.00132     0.38292
      H   22    0.11476      0.00000     0.38419    0.00105     0.38524
      H   23    0.08004      0.00000     0.41865    0.00130     0.41996
      H   24    0.08981      0.00000     0.40913    0.00106     0.41019
      H   25    0.17251      0.00000     0.32605    0.00144     0.32749
      H   26    0.10732      0.00000     0.39155    0.00113     0.39268
      H   27    0.10697      0.00000     0.39190    0.00113     0.39303
 =======================================================================
   * Total *   -0.00000     20.99379    44.77927    0.22694    66.00000

 Normal termination of Gaussian 16 at Fri Dec 11 15:30:07 2020.
