 Gaussian 16, Revision A.03,

 -----------------------------------------------------------
 # opt freq B3LYP/6-31G(d) empiricaldispersion=gd3bj scf=xqc
 -----------------------------------------------------------

 -------------------------------
 CID_147119220_JID_6178_neutraal
 -------------------------------
 Symbolic Z-matrix:
 Charge =  0 Multiplicity = 1

 SCF Done:  E(RB3LYP) =  -663.770335198     A.U. after   13 cycles
 SCF Done:  E(RB3LYP) =  -663.774773491     A.U. after   11 cycles
 SCF Done:  E(RB3LYP) =  -663.774494784     A.U. after   11 cycles
 SCF Done:  E(RB3LYP) =  -663.775266330     A.U. after   11 cycles
 SCF Done:  E(RB3LYP) =  -663.775928291     A.U. after   10 cycles
 SCF Done:  E(RB3LYP) =  -663.775932016     A.U. after   10 cycles
 SCF Done:  E(RB3LYP) =  -663.776036781     A.U. after   10 cycles
 SCF Done:  E(RB3LYP) =  -663.776089473     A.U. after    9 cycles
 SCF Done:  E(RB3LYP) =  -663.776101194     A.U. after    9 cycles
 SCF Done:  E(RB3LYP) =  -663.776106256     A.U. after    9 cycles
 SCF Done:  E(RB3LYP) =  -663.776107723     A.U. after    7 cycles
 SCF Done:  E(RB3LYP) =  -663.776107931     A.U. after    7 cycles
 SCF Done:  E(RB3LYP) =  -663.776107987     A.U. after    6 cycles
 Optimization completed.
    -- Stationary point found.
 Normal termination of Gaussian 16 at Thu Dec 10 21:22:32 2020.

 --------------------------------------------------------------------
 #N Geom=AllCheck Guess=TCheck SCRF=Check GenChk RB3LYP/6-31G(d) Freq
 --------------------------------------------------------------------

 Structure from the checkpoint file:  "JID_6178.chk"
 -------------------------------
 CID_147119220_JID_6178_neutraal
 -------------------------------
 Charge =  0 Multiplicity = 1

 SCF Done:  E(RB3LYP) =  -663.776107987     A.U. after    1 cycles

  Exact polarizability: 166.352  -0.971 149.905   0.460   0.586 144.121
 Approx polarizability: 219.349   0.798 212.902  -1.008   0.062 213.323

                      1                      2                      3
                      A                      A                      A
 Frequencies --     57.8366                79.2031               101.9936
 Red. masses --      3.1455                 2.4716                 2.0096
 Frc consts  --      0.0062                 0.0091                 0.0123
 IR Inten    --      0.0554                 0.0356                 0.0384

                      4                      5                      6
                      A                      A                      A
 Frequencies --    125.7033               160.4349               192.5350
 Red. masses --      2.6192                 2.8782                 1.9936
 Frc consts  --      0.0244                 0.0436                 0.0435
 IR Inten    --      0.0589                 0.2788                 0.3854

                      7                      8                      9
                      A                      A                      A
 Frequencies --    218.0911               224.4109               234.2894
 Red. masses --      1.5593                 1.3074                 1.1969
 Frc consts  --      0.0437                 0.0388                 0.0387
 IR Inten    --      0.2207                 0.1774                 0.0846

                     10                     11                     12
                      A                      A                      A
 Frequencies --    255.4756               265.4518               272.3079
 Red. masses --      1.3758                 1.9017                 1.8340
 Frc consts  --      0.0529                 0.0790                 0.0801
 IR Inten    --      0.0445                 0.5827                 0.1986

                     13                     14                     15
                      A                      A                      A
 Frequencies --    296.6342               307.7956               321.9527
 Red. masses --      1.6325                 2.1612                 2.5135
 Frc consts  --      0.0846                 0.1206                 0.1535
 IR Inten    --      0.3018                 0.1013                 0.6306

                     16                     17                     18
                      A                      A                      A
 Frequencies --    332.1175               337.7020               347.2877
 Red. masses --      2.5602                 2.2209                 2.3263
 Frc consts  --      0.1664                 0.1492                 0.1653
 IR Inten    --      0.7336                 0.3017                 0.7631

                     19                     20                     21
                      A                      A                      A
 Frequencies --    361.6592               400.6057               418.4173
 Red. masses --      2.3130                 1.8181                 2.7311
 Frc consts  --      0.1782                 0.1719                 0.2817
 IR Inten    --      0.7490                 0.2170                 0.4400

                     22                     23                     24
                      A                      A                      A
 Frequencies --    432.1230               458.2627               474.8766
 Red. masses --      2.7146                 3.5904                 3.2068
 Frc consts  --      0.2987                 0.4442                 0.4261
 IR Inten    --      0.4726                 4.9244                 0.7976

                     25                     26                     27
                      A                      A                      A
 Frequencies --    511.2440               519.1722               547.8516
 Red. masses --      3.6529                 2.5516                 1.7929
 Frc consts  --      0.5625                 0.4052                 0.3170
 IR Inten    --      0.5556                 0.1672                 1.3546

                     28                     29                     30
                      A                      A                      A
 Frequencies --    569.4414               591.2295               712.1232
 Red. masses --      3.0241                 3.2071                 1.7968
 Frc consts  --      0.5777                 0.6605                 0.5369
 IR Inten    --      1.4108                 0.1574                 1.4473

                     31                     32                     33
                      A                      A                      A
 Frequencies --    749.1924               764.9956               780.8429
 Red. masses --      2.1519                 2.4635                 1.2208
 Frc consts  --      0.7116                 0.8494                 0.4386
 IR Inten    --      3.1939                 0.9520                 1.0132

                     34                     35                     36
                      A                      A                      A
 Frequencies --    822.7085               849.2191               871.6066
 Red. masses --      1.5539                 1.5204                 2.3708
 Frc consts  --      0.6197                 0.6460                 1.0612
 IR Inten    --      1.4456                 0.0247                 2.4069

                     37                     38                     39
                      A                      A                      A
 Frequencies --    879.1463               892.8454               895.6102
 Red. masses --      2.4207                 1.9864                 1.8390
 Frc consts  --      1.1024                 0.9330                 0.8691
 IR Inten    --     14.1066                 0.8602                 1.0433

                     40                     41                     42
                      A                      A                      A
 Frequencies --    916.7201               917.9136               968.2897
 Red. masses --      2.5476                 2.0350                 1.7487
 Frc consts  --      1.2614                 1.0102                 0.9660
 IR Inten    --     10.0901                14.6616                 2.0249

                     43                     44                     45
                      A                      A                      A
 Frequencies --    986.0104               997.1166              1002.0258
 Red. masses --      1.8208                 1.8554                 2.0461
 Frc consts  --      1.0430                 1.0869                 1.2104
 IR Inten    --      5.9076                 0.3114                 4.5261

                     46                     47                     48
                      A                      A                      A
 Frequencies --   1008.6259              1033.8218              1046.4431
 Red. masses --      1.8330                 1.5348                 2.4778
 Frc consts  --      1.0987                 0.9665                 1.5986
 IR Inten    --      8.2091                 4.1447                 4.0416

                     49                     50                     51
                      A                      A                      A
 Frequencies --   1059.3416              1069.6326              1077.8130
 Red. masses --      3.5682                 1.7523                 1.6979
 Frc consts  --      2.3592                 1.1812                 1.1621
 IR Inten    --    122.4193                 3.5704                 1.8122

                     52                     53                     54
                      A                      A                      A
 Frequencies --   1089.6809              1095.6622              1100.3739
 Red. masses --      1.6639                 1.6780                 1.5173
 Frc consts  --      1.1641                 1.1868                 1.0824
 IR Inten    --      2.0602                 0.6144                 0.6881

                     55                     56                     57
                      A                      A                      A
 Frequencies --   1113.6554              1117.8866              1162.8326
 Red. masses --      1.6714                 1.5996                 2.8481
 Frc consts  --      1.2213                 1.1778                 2.2690
 IR Inten    --      0.9271                 2.9311                 2.7465

                     58                     59                     60
                      A                      A                      A
 Frequencies --   1181.8197              1200.3468              1222.3323
 Red. masses --      2.4591                 2.1976                 2.0637
 Frc consts  --      2.0236                 1.8656                 1.8166
 IR Inten    --      5.6941                 5.3314                 9.5385

                     61                     62                     63
                      A                      A                      A
 Frequencies --   1223.7140              1246.9801              1247.5822
 Red. masses --      1.5662                 2.5739                 2.4297
 Frc consts  --      1.3819                 2.3581                 2.2281
 IR Inten    --      1.8023                 1.8071                 3.6116

                     64                     65                     66
                      A                      A                      A
 Frequencies --   1269.1428              1278.6122              1281.5079
 Red. masses --      1.4736                 1.5956                 1.9988
 Frc consts  --      1.3985                 1.5369                 1.9340
 IR Inten    --     17.8690                20.7829                 1.0634

                     67                     68                     69
                      A                      A                      A
 Frequencies --   1330.2667              1342.7504              1351.8817
 Red. masses --      1.1647                 1.4484                 1.3115
 Frc consts  --      1.2143                 1.5387                 1.4122
 IR Inten    --      1.6764                13.4468                 1.6683

                     70                     71                     72
                      A                      A                      A
 Frequencies --   1364.5608              1381.2489              1382.0743
 Red. masses --      1.2993                 1.4978                 1.2890
 Frc consts  --      1.4254                 1.6836                 1.4506
 IR Inten    --      6.1858                 1.0189                 0.3300

                     73                     74                     75
                      A                      A                      A
 Frequencies --   1395.9833              1397.5381              1400.8695
 Red. masses --      1.4216                 1.4112                 1.3703
 Frc consts  --      1.6322                 1.6239                 1.5844
 IR Inten    --      2.3857                 5.8521                 2.1420

                     76                     77                     78
                      A                      A                      A
 Frequencies --   1402.1821              1418.1646              1427.5812
 Red. masses --      1.3887                 1.3318                 1.6035
 Frc consts  --      1.6087                 1.5782                 1.9254
 IR Inten    --      0.6480                 3.8210                 9.2214

                     79                     80                     81
                      A                      A                      A
 Frequencies --   1435.2591              1440.4369              1446.7087
 Red. masses --      1.2515                 1.2466                 1.2332
 Frc consts  --      1.5190                 1.5239                 1.5207
 IR Inten    --      8.6503                 2.1308                 3.1339

                     82                     83                     84
                      A                      A                      A
 Frequencies --   1450.6922              1497.2593              1503.9211
 Red. masses --      1.2112                 1.0863                 1.0775
 Frc consts  --      1.5018                 1.4349                 1.4359
 IR Inten    --     11.0519                 0.1065                 0.7143

                     85                     86                     87
                      A                      A                      A
 Frequencies --   1512.1238              1515.8967              1519.5195
 Red. masses --      1.0910                 1.0567                 1.0818
 Frc consts  --      1.4697                 1.4306                 1.4716
 IR Inten    --      2.6903                 2.1082                 0.6784

                     88                     89                     90
                      A                      A                      A
 Frequencies --   1522.7565              1523.8270              1526.8999
 Red. masses --      1.0488                 1.0517                 1.0622
 Frc consts  --      1.4328                 1.4389                 1.4590
 IR Inten    --      1.0284                 0.5036                 8.8969

                     91                     92                     93
                      A                      A                      A
 Frequencies --   1528.4495              1529.5188              1531.3037
 Red. masses --      1.0756                 1.0484                 1.0477
 Frc consts  --      1.4804                 1.4450                 1.4475
 IR Inten    --      3.6147                 5.4756                 2.3672

                     94                     95                     96
                      A                      A                      A
 Frequencies --   1538.3452              1542.2479              1547.3183
 Red. masses --      1.0700                 1.0637                 1.0521
 Frc consts  --      1.4919                 1.4906                 1.4841
 IR Inten    --      3.1293                 0.8357                 9.3903

                     97                     98                     99
                      A                      A                      A
 Frequencies --   1553.4519              1566.5000              3029.9656
 Red. masses --      1.0626                 1.0870                 1.0651
 Frc consts  --      1.5109                 1.5715                 5.7614
 IR Inten    --      5.2694                 4.2981                25.1475

                    100                    101                    102
                      A                      A                      A
 Frequencies --   3034.6341              3038.0138              3050.9848
 Red. masses --      1.0613                 1.0618                 1.0405
 Frc consts  --      5.7583                 5.7738                 5.7066
 IR Inten    --      7.8144                27.3566                45.0763

                    103                    104                    105
                      A                      A                      A
 Frequencies --   3052.6482              3052.7502              3053.7850
 Red. masses --      1.0664                 1.0634                 1.0605
 Frc consts  --      5.8550                 5.8391                 5.8271
 IR Inten    --     38.7678                 7.8469                43.7372

                    106                    107                    108
                      A                      A                      A
 Frequencies --   3055.1106              3057.6446              3062.1604
 Red. masses --      1.0494                 1.0470                 1.0430
 Frc consts  --      5.7711                 5.7675                 5.7624
 IR Inten    --     53.5559                39.2231                22.1407

                    109                    110                    111
                      A                      A                      A
 Frequencies --   3063.4671              3071.9454              3072.9506
 Red. masses --      1.0925                 1.0679                 1.1011
 Frc consts  --      6.0409                 5.9376                 6.1260
 IR Inten    --     26.6681                28.3112                 1.1778

                    112                    113                    114
                      A                      A                      A
 Frequencies --   3080.0233              3080.1548              3100.3832
 Red. masses --      1.0658                 1.0992                 1.0955
 Frc consts  --      5.9571                 6.1441                 6.2045
 IR Inten    --     43.2430                58.6661                 8.8304

                    115                    116                    117
                      A                      A                      A
 Frequencies --   3106.0253              3113.1124              3116.3234
 Red. masses --      1.0990                 1.0979                 1.0956
 Frc consts  --      6.2468                 6.2693                 6.2691
 IR Inten    --     22.0892                15.3047                39.7031

                    118                    119                    120
                      A                      A                      A
 Frequencies --   3119.7402              3120.9989              3126.5773
 Red. masses --      1.0955                 1.0974                 1.0976
 Frc consts  --      6.2821                 6.2982                 6.3215
 IR Inten    --     47.4251                 5.4014                25.9082

                    121                    122                    123
                      A                      A                      A
 Frequencies --   3127.7201              3132.3786              3133.4221
 Red. masses --      1.1022                 1.0997                 1.1005
 Frc consts  --      6.3528                 6.3575                 6.3661
 IR Inten    --     26.6401                28.5039                77.5046

                    124                    125                    126
                      A                      A                      A
 Frequencies --   3142.4387              3145.8398              3157.4495
 Red. masses --      1.0932                 1.0993                 1.0986
 Frc consts  --      6.3605                 6.4096                 6.4530
 IR Inten    --     53.0892                38.8219                31.8456

 - Thermochemistry -
 -------------------
 Temperature   298.150 Kelvin.  Pressure   1.00000 Atm.
 Atom     1 has atomic number  6 and mass  12.00000

 Molecular mass:   224.21402 amu.
 Principal axes and moments of inertia in atomic units:
                           1         2         3
     Eigenvalues --  2418.273054004.071484329.46986
           X            0.99996  -0.00857   0.00144
           Y            0.00858   0.99991  -0.00982
           Z           -0.00136   0.00983   0.99995
 This molecule is an asymmetric top.
 Rotational symmetry number  1.
 Warning -- assumption of classical behavior for rotation
           may cause significant error
 Rotational temperatures (Kelvin)      0.03582     0.02163     0.02001
 Rotational constants (GHZ):           0.74629     0.45073     0.41685
 Zero-point vibrational energy    1081881.5 (Joules/Mol)
                                  258.57589 (Kcal/Mol)
 Warning -- explicit consideration of  29 degrees of freedom as
           vibrations may cause significant error
 Vibrational temperatures:     83.21   113.96   146.75   180.86   230.83
          (Kelvin)            277.01   313.78   322.88   337.09   367.57
                              381.93   391.79   426.79   442.85   463.22
                              477.84   485.88   499.67   520.35   576.38
                              602.01   621.73   659.34   683.24   735.57
                              746.97   788.24   819.30   850.65  1024.59
                             1077.92  1100.66  1123.46  1183.69  1221.84
                             1254.05  1264.90  1284.61  1288.58  1318.96
                             1320.67  1393.15  1418.65  1434.63  1441.69
                             1451.19  1487.44  1505.60  1524.16  1538.96
                             1550.73  1567.81  1576.41  1583.19  1602.30
                             1608.39  1673.06  1700.37  1727.03  1758.66
                             1760.65  1794.13  1794.99  1826.01  1839.64
                             1843.80  1913.96  1931.92  1945.06  1963.30
                             1987.31  1988.50  2008.51  2010.75  2015.54
                             2017.43  2040.42  2053.97  2065.02  2072.47
                             2081.49  2087.22  2154.22  2163.81  2175.61
                             2181.04  2186.25  2190.91  2192.45  2196.87
                             2199.10  2200.64  2203.20  2213.34  2218.95
                             2226.25  2235.07  2253.84  4359.44  4366.16
                             4371.02  4389.69  4392.08  4392.23  4393.72
                             4395.62  4399.27  4405.77  4407.65  4419.84
                             4421.29  4431.47  4431.66  4460.76  4468.88
                             4479.07  4483.69  4488.61  4490.42  4498.45
                             4500.09  4506.79  4508.30  4521.27  4526.16
                             4542.87

 Zero-point correction=                           0.412067 (Hartree/Particle)
 Thermal correction to Energy=                    0.428756
 Thermal correction to Enthalpy=                  0.429700
 Thermal correction to Gibbs Free Energy=         0.370526
 Sum of electronic and zero-point Energies=           -663.364041
 Sum of electronic and thermal Energies=              -663.347352
 Sum of electronic and thermal Enthalpies=            -663.346408
 Sum of electronic and thermal Free Energies=         -663.405582

                     E (Thermal)             CV                S
                      KCal/Mol        Cal/Mol-Kelvin    Cal/Mol-Kelvin
 Total                  269.048             68.865            124.542
 Electronic               0.000              0.000              0.000
 Translational            0.889              2.981             42.125
 Rotational               0.889              2.981             32.105
 Vibrational            267.271             62.903             50.312
 Vibration     1          0.596              1.974              4.530
 Vibration     2          0.600              1.963              3.911
 Vibration     3          0.604              1.948              3.416
 Vibration     4          0.611              1.927              3.011
 Vibration     5          0.622              1.891              2.545
 Vibration     6          0.635              1.850              2.203
 Vibration     7          0.646              1.814              1.975
 Vibration     8          0.649              1.804              1.923
 Vibration     9          0.654              1.788              1.846
 Vibration    10          0.666              1.754              1.692
 Vibration    11          0.671              1.736              1.626
 Vibration    12          0.675              1.724              1.582
 Vibration    13          0.690              1.680              1.436
 Vibration    14          0.698              1.659              1.374
 Vibration    15          0.707              1.631              1.300
 Vibration    16          0.714              1.611              1.250
 Vibration    17          0.718              1.600              1.223
 Vibration    18          0.725              1.581              1.178
 Vibration    19          0.736              1.551              1.115
 Vibration    20          0.766              1.469              0.960
 Vibration    21          0.781              1.430              0.897
 Vibration    22          0.793              1.400              0.852
 Vibration    23          0.816              1.343              0.771
 Vibration    24          0.832              1.306              0.724
 Vibration    25          0.866              1.225              0.631
 Vibration    26          0.874              1.208              0.612
 Vibration    27          0.903              1.144              0.549
 Vibration    28          0.925              1.097              0.505
 Vibration    29          0.949              1.050              0.465

 Optimization completed.
    -- Stationary point found.
 Normal termination of Gaussian 16 at Thu Dec 10 21:42:57 2020.

 ----------------------------------------------------------------------
 # B3LYP/6-311++G(d,p) empiricaldispersion=gd3bj scf=xqc pop=npa geom=c
 heck
 ----------------------------------------------------------------------

 ---------------------------------------
 CID_147119220_JID_6178_Energie_neutraal
 ---------------------------------------
 Structure from the checkpoint file:  "JID_6178.chk"
 Charge =  0 Multiplicity = 1

 SCF Done:  E(RB3LYP) =  -663.953882876     A.U. after   13 cycles
 Normal termination of Gaussian 16 at Thu Dec 10 21:52:57 2020.

 ----------------------------------------------------------------------
 # B3LYP/6-311++G(d,p) empiricaldispersion=gd3bj scf=xqc pop=npa geom=c
 heck
 ----------------------------------------------------------------------

 -------------------------------------
 CID_147119220_JID_6178_Energie_kation
 -------------------------------------
 Structure from the checkpoint file:  "JID_6178.chk"
 Charge =  1 Multiplicity = 2

 SCF Done:  E(UB3LYP) =  -663.648106855     A.U. after   20 cycles
 Normal termination of Gaussian 16 at Thu Dec 10 22:14:06 2020.
 Gaussian 16:  ES64L-G16RevA.03 25-Dec-2016

 ----------------------------------------------------------------------
 # B3LYP/6-311++G(d,p) empiricaldispersion=gd3bj scf=xqc pop=npa geom=c
 heck
 ----------------------------------------------------------------------

 ------------------------------------
 CID_147119220_JID_6178_Energie_anion
 ------------------------------------
 Structure from the checkpoint file:  "JID_6178.chk"
 Charge = -1 Multiplicity = 2

                         Standard orientation:
 ---------------------------------------------------------------------
 Center     Atomic      Atomic             Coordinates (Angstroms)
 Number     Number       Type             X           Y           Z
 ---------------------------------------------------------------------
      1          6           0        3.003096   -1.649778   -1.195991
      2          6           0        2.169439   -0.361509   -1.147100
      3          6           0        1.703885    0.175079    0.253264
      4          6           0        2.552902   -0.431366    1.390912
      5          6           0        1.998126    1.706207    0.292921
      6          6           0        1.266854    2.623026   -0.692973
      7          6           0        0.176784   -0.164773    0.490749
      8          6           0       -0.037918   -1.698004    0.540724
      9          6           0       -1.496206   -2.156494    0.372772
     10          6           0       -2.204483   -1.377429   -0.741892
     11          6           0       -1.929661    0.137011   -0.700598
     12          8           0       -0.507171    0.347247   -0.670528
     13          6           0       -2.570179    0.869209    0.495098
     14          6           0       -1.916901    0.541018    1.844115
     15          6           0       -0.383051    0.553798    1.740361
     16          6           0       -2.386946    0.781858   -2.007316
     17          1           0        3.951979   -1.545927   -0.659431
     18          1           0        3.243261   -1.890189   -2.238338
     19          1           0        2.483123   -2.516063   -0.774660
     20          1           0        2.772349    0.421276   -1.622402
     21          1           0        1.287440   -0.471843   -1.782736
     22          1           0        3.606065   -0.161871    1.257251
     23          1           0        2.243295   -0.042835    2.366391
     24          1           0        2.498266   -1.521490    1.430762
     25          1           0        1.846551    2.083917    1.311524
     26          1           0        3.077851    1.802032    0.114691
     27          1           0        0.201838    2.697163   -0.467750
     28          1           0        1.701908    3.629134   -0.653343
     29          1           0        1.350684    2.259839   -1.721786
     30          1           0        0.369413   -2.103514    1.472531
     31          1           0        0.539747   -2.136492   -0.276575
     32          1           0       -1.503667   -3.226065    0.128559
     33          1           0       -2.044692   -2.066381    1.312993
     34          1           0       -1.839088   -1.740362   -1.711270
     35          1           0       -3.285701   -1.562134   -0.718541
     36          1           0       -3.646870    0.660590    0.524824
     37          1           0       -2.460072    1.945000    0.306623
     38          1           0       -2.274326   -0.418504    2.223959
     39          1           0       -2.227556    1.286782    2.586309
     40          1           0        0.052944    0.123504    2.648339
     41          1           0       -0.066324    1.598966    1.700810
     42          1           0       -2.140403    1.848143   -2.012384
     43          1           0       -1.885370    0.310339   -2.858272
     44          1           0       -3.469726    0.671884   -2.134133
 ---------------------------------------------------------------------

 SCF Done:  E(UB3LYP) =  -663.938670871     A.U. after   28 cycles

 The electronic state is 2-A.
 Alpha  occ. eigenvalues --  -19.01012 -10.12423 -10.12362 -10.08379 -10.06393
 Alpha  occ. eigenvalues --  -10.06369 -10.06340 -10.06263 -10.06191 -10.06034
 Alpha  occ. eigenvalues --  -10.06034 -10.05906 -10.05884 -10.05838 -10.05637
 Alpha  occ. eigenvalues --  -10.05276  -0.93074  -0.73354  -0.70929  -0.68322
 Alpha  occ. eigenvalues --   -0.67834  -0.64787  -0.62171  -0.59570  -0.57778
 Alpha  occ. eigenvalues --   -0.55542  -0.53223  -0.51225  -0.49772  -0.48883
 Alpha  occ. eigenvalues --   -0.43527  -0.42212  -0.38176  -0.37047  -0.36636
 Alpha  occ. eigenvalues --   -0.35617  -0.35460  -0.33812  -0.33433  -0.33027
 Alpha  occ. eigenvalues --   -0.32461  -0.31986  -0.31074  -0.29883  -0.29134
 Alpha  occ. eigenvalues --   -0.28520  -0.28171  -0.27321  -0.26920  -0.26079
 Alpha  occ. eigenvalues --   -0.25869  -0.25562  -0.25100  -0.24413  -0.23934
 Alpha  occ. eigenvalues --   -0.23296  -0.22893  -0.21809  -0.20852  -0.20397
 Alpha  occ. eigenvalues --   -0.20296  -0.17495  -0.14331   0.04379
 Alpha virt. eigenvalues --    0.06422   0.06804   0.07082   0.08257   0.08452
 Alpha virt. eigenvalues --    0.08645   0.09180   0.09292   0.10396   0.10994
 Alpha virt. eigenvalues --    0.11080   0.11192   0.11439   0.12031   0.12246

  Beta  occ. eigenvalues --  -19.01005 -10.12425 -10.12363 -10.08376 -10.06372
  Beta  occ. eigenvalues --  -10.06360 -10.06321 -10.06242 -10.06172 -10.06019
  Beta  occ. eigenvalues --  -10.06019 -10.05892 -10.05865 -10.05828 -10.05619
  Beta  occ. eigenvalues --  -10.05266  -0.93060  -0.73340  -0.70901  -0.68302
  Beta  occ. eigenvalues --   -0.67800  -0.64766  -0.62145  -0.59538  -0.57736
  Beta  occ. eigenvalues --   -0.55504  -0.53180  -0.51186  -0.49736  -0.48830
  Beta  occ. eigenvalues --   -0.43490  -0.42174  -0.38148  -0.37031  -0.36607
  Beta  occ. eigenvalues --   -0.35576  -0.35442  -0.33789  -0.33404  -0.33002
  Beta  occ. eigenvalues --   -0.32437  -0.31962  -0.31051  -0.29860  -0.29106
  Beta  occ. eigenvalues --   -0.28498  -0.28148  -0.27293  -0.26895  -0.26054
  Beta  occ. eigenvalues --   -0.25838  -0.25532  -0.25072  -0.24389  -0.23916
  Beta  occ. eigenvalues --   -0.23260  -0.22870  -0.21786  -0.20827  -0.20375
  Beta  occ. eigenvalues --   -0.20274  -0.17475  -0.14316
  Beta virt. eigenvalues --    0.06329   0.07148   0.07378   0.07583   0.08724
  Beta virt. eigenvalues --    0.08919   0.09061   0.09550   0.09599   0.10779
  Beta virt. eigenvalues --    0.11330   0.11367   0.11434   0.11739   0.12322

 Mulliken charges and spin densities:
               1          2
     1  C   -0.076487  -0.568720
     2  C   -0.912764   0.729424
     3  C    0.520327   0.395553
     4  C    0.571327  -1.204025
     5  C   -0.296285   0.064437
     6  C   -0.313795  -0.284398
     7  C   -0.720826   0.442067
     8  C   -0.346599  -0.027903
     9  C    0.634046  -1.224756
    10  C    0.711902  -1.082128
    11  C   -1.251366   1.366280
    12  O    0.142995   0.029735
    13  C    0.560956  -0.842481
    14  C    0.970331  -1.582298
    15  C   -0.166095  -0.209985
    16  C    0.010303  -0.322909
    17  H    0.038748   0.099910
    18  H   -0.152643   0.295238
    19  H   -0.408777   0.549339
    20  H   -0.027456   0.188178
    21  H    0.228875  -0.024874
    22  H   -0.187744   0.348462
    23  H   -0.032797   0.187656
    24  H    0.105961   0.056535
    25  H   -0.113773   0.259516
    26  H    0.038708   0.113166
    27  H    0.199905  -0.038963
    28  H   -0.128143   0.263419
    29  H    0.095018   0.043450
    30  H   -0.382364   0.579397
    31  H    0.788844  -0.703836
    32  H   -0.409895   0.614322
    33  H    0.045800   0.073664
    34  H   -0.024373   0.155001
    35  H   -0.262568   0.447237
    36  H   -0.309040   0.493338
    37  H    0.101490   0.018319
    38  H    0.147854  -0.033521
    39  H   -0.417078   0.621282
    40  H   -0.263223   0.447531
    41  H    0.295616  -0.163728
    42  H    0.056130   0.085520
    43  H    0.019314   0.119071
    44  H   -0.080358   0.227479
 Sum of Mulliken charges =  -1.00000   1.00000

 Dipole moment (field-independent basis, Debye):
    X=              1.2639    Y=              2.2441    Z=             -1.9087  Tot=              3.2057
 Quadrupole moment (field-independent basis, Debye-Ang):
   XX=           -171.9774   YY=           -153.8678   ZZ=           -148.5840
   XY=             -0.6597   XZ=              2.3493   YZ=             -2.0442

 Summary of Natural Population Analysis:

                                       Natural Population
                Natural  -----------------------------------------------
    Atom  No    Charge         Core      Valence    Rydberg      Total
 -----------------------------------------------------------------------
      C    1   -0.28569      0.99966     2.28133    0.00470     3.28569
      C    2   -0.19442      0.99959     2.18507    0.00976     3.19442
      C    3   -0.04019      0.99952     2.02475    0.01592     3.04019
      C    4   -0.28893      0.99963     2.28167    0.00764     3.28893
      C    5   -0.18713      0.99959     2.17788    0.00966     3.18713
      C    6   -0.28383      0.99965     2.27957    0.00462     3.28383
      C    7    0.16144      0.99945     1.81996    0.01915     2.83856
      C    8   -0.20781      0.99956     2.19829    0.00995     3.20781
      C    9   -0.18611      0.99962     2.17810    0.00839     3.18611
      C   10   -0.20009      0.99957     2.19062    0.00990     3.20009
      C   11    0.14214      0.99950     1.84239    0.01597     2.85786
      O   12   -0.33406      0.99986     3.32059    0.01362     4.33406
      C   13   -0.20050      0.99957     2.19100    0.00994     3.20050
      C   14   -0.18634      0.99962     2.17837    0.00835     3.18634
      C   15   -0.20686      0.99956     2.19738    0.00992     3.20686
      C   16   -0.28368      0.99960     2.27736    0.00671     3.28368
      H   17    0.09532      0.00000     0.40369    0.00099     0.40468
      H   18    0.09784      0.00000     0.40143    0.00073     0.40216
      H   19    0.09595      0.00000     0.40293    0.00112     0.40405
      H   20    0.09505      0.00000     0.40385    0.00110     0.40495
      H   21    0.10950      0.00000     0.38894    0.00156     0.39050
      H   22    0.10030      0.00000     0.39872    0.00098     0.39970
      H   23    0.10197      0.00000     0.39695    0.00108     0.39803
      H   24    0.10280      0.00000     0.39612    0.00108     0.39720
      H   25    0.09548      0.00000     0.40343    0.00108     0.40452
      H   26    0.09500      0.00000     0.40386    0.00114     0.40500
      H   27    0.10283      0.00000     0.39584    0.00133     0.39717
      H   28    0.09132      0.00000     0.40787    0.00081     0.40868
      H   29    0.09862      0.00000     0.40038    0.00100     0.40138
      H   30    0.10357      0.00000     0.39502    0.00141     0.39643
      H   31    0.10111      0.00000     0.39714    0.00176     0.39889
      H   32    0.09994      0.00000     0.39887    0.00118     0.40006
      H   33    0.09426      0.00000     0.40408    0.00166     0.40574
      H   34    0.09769      0.00000     0.40098    0.00132     0.40231
      H   35    0.10245      0.00000     0.39624    0.00131     0.39755
      H   36    0.10298      0.00000     0.39577    0.00126     0.39702
      H   37    0.09670      0.00000     0.40196    0.00134     0.40330
      H   38    0.09473      0.00000     0.40362    0.00165     0.40527
      H   39    0.09941      0.00000     0.39946    0.00113     0.40059
      H   40    0.10394      0.00000     0.39476    0.00130     0.39606
      H   41    0.10027      0.00000     0.39820    0.00153     0.39973
      H   42    0.10102      0.00000     0.39807    0.00091     0.39898
      H   43    0.10168      0.00000     0.39741    0.00091     0.39832
      H   44    0.10035      0.00000     0.39884    0.00081     0.39965
 =======================================================================
   * Total *   -0.00000     15.99354    46.80877    0.19770    63.00000

 Normal termination of Gaussian 16 at Thu Dec 10 22:43:36 2020.
