 Gaussian 16, Revision A.03,

 -----------------------------------------------------------
 # opt freq B3LYP/6-31G(d) empiricaldispersion=gd3bj scf=xqc
 -----------------------------------------------------------

 ------------------------------
 CID_66382282_JID_8646_neutraal
 ------------------------------
 Symbolic Z-matrix:
 Charge =  0 Multiplicity = 1

 SCF Done:  E(RB3LYP) =  -1563.99504413     A.U. after   14 cycles
 SCF Done:  E(RB3LYP) =  -1564.00392729     A.U. after   12 cycles
 SCF Done:  E(RB3LYP) =  -1564.00166761     A.U. after   13 cycles
 SCF Done:  E(RB3LYP) =  -1564.00670241     A.U. after   12 cycles
 SCF Done:  E(RB3LYP) =  -1564.00775574     A.U. after   14 cycles
 SCF Done:  E(RB3LYP) =  -1564.00778383     A.U. after   12 cycles
 SCF Done:  E(RB3LYP) =  -1564.00951014     A.U. after   12 cycles
 SCF Done:  E(RB3LYP) =  -1564.00887670     A.U. after   13 cycles
 SCF Done:  E(RB3LYP) =  -1564.01030106     A.U. after   12 cycles
 SCF Done:  E(RB3LYP) =  -1564.01061409     A.U. after   12 cycles
 SCF Done:  E(RB3LYP) =  -1564.01070226     A.U. after    8 cycles
 SCF Done:  E(RB3LYP) =  -1564.01070255     A.U. after    7 cycles
 SCF Done:  E(RB3LYP) =  -1564.01070263     A.U. after    7 cycles
 SCF Done:  E(RB3LYP) =  -1564.01070269     A.U. after    6 cycles
 SCF Done:  E(RB3LYP) =  -1564.01070271     A.U. after    6 cycles
 SCF Done:  E(RB3LYP) =  -1564.01070271     A.U. after    6 cycles
 Optimization completed.
    -- Stationary point found.
 Normal termination of Gaussian 16 at Fri Dec 11 21:02:04 2020.

 --------------------------------------------------------------------
 #N Geom=AllCheck Guess=TCheck SCRF=Check GenChk RB3LYP/6-31G(d) Freq
 --------------------------------------------------------------------

 Structure from the checkpoint file:  "JID_8646.chk"
 ------------------------------
 CID_66382282_JID_8646_neutraal
 ------------------------------
 Charge =  0 Multiplicity = 1

 SCF Done:  E(RB3LYP) =  -1564.01070271     A.U. after    1 cycles

  Exact polarizability: 186.740  -1.330 171.315   8.130  -2.918 146.410
 Approx polarizability: 247.992   0.881 259.364  15.926  -5.496 239.943

                      1                      2                      3
                      A                      A                      A
 Frequencies --     28.2290                37.2999                56.0180
 Red. masses --      4.2392                 4.1586                 4.3913
 Frc consts  --      0.0020                 0.0034                 0.0081
 IR Inten    --      0.4715                 1.3420                 2.7143

                      4                      5                      6
                      A                      A                      A
 Frequencies --     69.8226                82.8019               103.5143
 Red. masses --      4.7810                 4.0202                 6.2093
 Frc consts  --      0.0137                 0.0162                 0.0392
 IR Inten    --      0.7906                 0.4537                 1.7774

                      7                      8                      9
                      A                      A                      A
 Frequencies --    133.0777               158.1111               169.7494
 Red. masses --      2.9394                 3.5265                 4.1094
 Frc consts  --      0.0307                 0.0519                 0.0698
 IR Inten    --      3.3512                 2.9576                 1.5133

                     10                     11                     12
                      A                      A                      A
 Frequencies --    183.8544               223.4017               231.1676
 Red. masses --      1.5347                 2.9930                 1.9145
 Frc consts  --      0.0306                 0.0880                 0.0603
 IR Inten    --      1.0616                 4.9696                 1.0815

                     13                     14                     15
                      A                      A                      A
 Frequencies --    236.6157               248.5608               257.8152
 Red. masses --      1.8085                 2.2556                 2.3983
 Frc consts  --      0.0597                 0.0821                 0.0939
 IR Inten    --      0.0740                 3.0860                 2.0795

                     16                     17                     18
                      A                      A                      A
 Frequencies --    262.9984               293.0657               307.0004
 Red. masses --      2.8647                 1.4022                 3.7049
 Frc consts  --      0.1167                 0.0710                 0.2057
 IR Inten    --      2.2720                 0.4143                13.7578

                     19                     20                     21
                      A                      A                      A
 Frequencies --    321.4055               350.1189               353.5465
 Red. masses --      3.3753                 2.3036                 3.6251
 Frc consts  --      0.2054                 0.1664                 0.2670
 IR Inten    --      8.0959                 9.5712                 6.3965

                     22                     23                     24
                      A                      A                      A
 Frequencies --    363.5834               371.6540               399.9644
 Red. masses --      2.4506                 1.6739                 2.1416
 Frc consts  --      0.1909                 0.1362                 0.2018
 IR Inten    --      6.2598                25.6763                 2.8451

                     25                     26                     27
                      A                      A                      A
 Frequencies --    435.0640               445.6032               456.3573
 Red. masses --      2.1895                 2.7765                 5.3679
 Frc consts  --      0.2442                 0.3248                 0.6587
 IR Inten    --      8.0649                14.8891                25.2237

                     28                     29                     30
                      A                      A                      A
 Frequencies --    464.7388               499.0651               515.3765
 Red. masses --      2.1303                 3.2740                 3.7796
 Frc consts  --      0.2711                 0.4804                 0.5915
 IR Inten    --     18.3171                24.4162                 9.0999

                     31                     32                     33
                      A                      A                      A
 Frequencies --    531.9144               577.0370               606.2808
 Red. masses --      3.4881                 3.4423                 4.3819
 Frc consts  --      0.5815                 0.6753                 0.9490
 IR Inten    --     33.7881                10.2749                 6.1609

                     34                     35                     36
                      A                      A                      A
 Frequencies --    612.4378               654.7985               694.3540
 Red. masses --      2.9742                 4.3044                 3.8064
 Frc consts  --      0.6573                 1.0874                 1.0812
 IR Inten    --      5.5792                 3.7333                10.8570

                     37                     38                     39
                      A                      A                      A
 Frequencies --    718.7469               733.6497               765.8404
 Red. masses --      5.5756                 3.4759                 3.5062
 Frc consts  --      1.6970                 1.1023                 1.2116
 IR Inten    --      5.5135                 3.3010                 8.8375

                     40                     41                     42
                      A                      A                      A
 Frequencies --    830.2808               871.0729               887.8462
 Red. masses --      2.7476                 2.1581                 2.1974
 Frc consts  --      1.1160                 0.9648                 1.0205
 IR Inten    --     19.6890                 6.3185                30.2065

                     43                     44                     45
                      A                      A                      A
 Frequencies --    915.5585               937.3977               952.8350
 Red. masses --      2.0706                 1.6793                 1.9720
 Frc consts  --      1.0226                 0.8694                 1.0549
 IR Inten    --     37.6143                 1.5848                67.5376

                     46                     47                     48
                      A                      A                      A
 Frequencies --    962.3003               969.5822               981.2331
 Red. masses --      1.6454                 2.0754                 1.7468
 Frc consts  --      0.8977                 1.1495                 0.9909
 IR Inten    --     41.7602                17.2277                 5.6090

                     49                     50                     51
                      A                      A                      A
 Frequencies --    990.8703               992.3737               998.7133
 Red. masses --      1.4711                 1.5218                 1.3616
 Frc consts  --      0.8510                 0.8830                 0.8001
 IR Inten    --     37.6935                 0.8778                15.0697

                     52                     53                     54
                      A                      A                      A
 Frequencies --   1021.6193              1041.0225              1059.9455
 Red. masses --      1.8350                 1.6778                 1.9650
 Frc consts  --      1.1284                 1.0713                 1.3007
 IR Inten    --     27.1671                 2.9778                 7.8545

                     55                     56                     57
                      A                      A                      A
 Frequencies --   1073.7950              1106.9289              1110.4600
 Red. masses --      2.4762                 5.6984                 2.8647
 Frc consts  --      1.6822                 4.1138                 2.0813
 IR Inten    --      1.1643               170.5564                 9.1890

                     58                     59                     60
                      A                      A                      A
 Frequencies --   1130.3710              1180.8111              1192.9313
 Red. masses --      1.5259                 2.7268                 1.4393
 Frc consts  --      1.1487                 2.2401                 1.2068
 IR Inten    --      3.7144                33.7491                38.7704

                     61                     62                     63
                      A                      A                      A
 Frequencies --   1201.1280              1203.0100              1231.9165
 Red. masses --      1.3017                 1.9297                 1.3439
 Frc consts  --      1.1065                 1.6454                 1.2017
 IR Inten    --     10.3704                15.4669                44.2111

                     64                     65                     66
                      A                      A                      A
 Frequencies --   1245.6742              1259.9329              1272.4877
 Red. masses --      1.6133                 1.5059                 1.2688
 Frc consts  --      1.4750                 1.4084                 1.2105
 IR Inten    --     38.0200                13.6055                24.4828

                     67                     68                     69
                      A                      A                      A
 Frequencies --   1311.8594              1317.1427              1331.9796
 Red. masses --      8.1381                 1.8873                 1.3882
 Frc consts  --      8.2518                 1.9291                 1.4511
 IR Inten    --    157.3468                16.6536                11.7207

                     70                     71                     72
                      A                      A                      A
 Frequencies --   1357.8994              1362.7164              1368.7724
 Red. masses --      1.5481                 1.2426                 1.2151
 Frc consts  --      1.6818                 1.3595                 1.3413
 IR Inten    --     19.4908                 5.5462                16.1148

                     73                     74                     75
                      A                      A                      A
 Frequencies --   1382.5315              1393.5500              1404.8966
 Red. masses --      1.5949                 1.2954                 1.6019
 Frc consts  --      1.7961                 1.4821                 1.8628
 IR Inten    --     32.5240                11.2512                10.5508

                     76                     77                     78
                      A                      A                      A
 Frequencies --   1414.7274              1428.4572              1447.5272
 Red. masses --      1.3208                 1.2768                 1.2429
 Frc consts  --      1.5575                 1.5351                 1.5344
 IR Inten    --      3.7726                 9.2005                 7.1323

                     79                     80                     81
                      A                      A                      A
 Frequencies --   1472.8694              1476.0819              1489.8626
 Red. masses --      1.2621                 1.4319                 1.0490
 Frc consts  --      1.6131                 1.8382                 1.3719
 IR Inten    --     60.1411                65.3692                 6.5776

                     82                     83                     84
                      A                      A                      A
 Frequencies --   1494.5601              1494.7501              1501.8152
 Red. masses --      1.1122                 1.1320                 1.0909
 Frc consts  --      1.4637                 1.4902                 1.4497
 IR Inten    --      7.0311                18.9127                 7.5338

                     85                     86                     87
                      A                      A                      A
 Frequencies --   1507.4970              1514.8032              1521.6626
 Red. masses --      1.0799                 1.0502                 1.0697
 Frc consts  --      1.4460                 1.4198                 1.4593
 IR Inten    --     12.6125                 0.4288                 6.0447

                     88                     89                     90
                      A                      A                      A
 Frequencies --   1533.5467              1534.9331              1540.1872
 Red. masses --      1.0857                 1.0970                 1.0618
 Frc consts  --      1.5043                 1.5228                 1.4841
 IR Inten    --     10.4521                22.8253                10.0451

                     91                     92                     93
                      A                      A                      A
 Frequencies --   1682.2419              1739.4717              3036.9864
 Red. masses --      1.1601                 6.6541                 1.0350
 Frc consts  --      1.9344                11.8624                 5.6246
 IR Inten    --     60.8905               127.3965                23.8206

                     94                     95                     96
                      A                      A                      A
 Frequencies --   3050.7325              3052.1876              3069.0570
 Red. masses --      1.0381                 1.0709                 1.0623
 Frc consts  --      5.6923                 5.8780                 5.8951
 IR Inten    --     18.9122                12.2675                28.9507

                     97                     98                     99
                      A                      A                      A
 Frequencies --   3070.7083              3089.7219              3095.3228
 Red. masses --      1.0591                 1.0689                 1.0359
 Frc consts  --      5.8837                 6.0121                 5.8478
 IR Inten    --     17.1556                18.5948                 2.0643

                    100                    101                    102
                      A                      A                      A
 Frequencies --   3097.6078              3103.7678              3103.8543
 Red. masses --      1.0719                 1.0983                 1.0667
 Frc consts  --      6.0600                 6.2337                 6.0545
 IR Inten    --      5.1572                12.2373                 5.9631

                    103                    104                    105
                      A                      A                      A
 Frequencies --   3106.0222              3112.3439              3114.6263
 Red. masses --      1.1025                 1.1015                 1.1002
 Frc consts  --      6.2669                 6.2867                 6.2882
 IR Inten    --      0.5474                34.0006                47.9476

                    106                    107                    108
                      A                      A                      A
 Frequencies --   3132.5629              3134.3583              3142.5513
 Red. masses --      1.1025                 1.1055                 1.1002
 Frc consts  --      6.3741                 6.3987                 6.4017
 IR Inten    --     14.9936                26.0065                18.3868

                    109                    110                    111
                      A                      A                      A
 Frequencies --   3165.6795              3165.8831              3182.0729
 Red. masses --      1.1056                 1.0927                 1.1051
 Frc consts  --      6.5281                 6.4529                 6.5929
 IR Inten    --      5.9790                23.2651                 2.4328

                    112                    113                    114
                      A                      A                      A
 Frequencies --   3254.6273              3455.9469              3545.1153
 Red. masses --      1.1043                 1.0495                 1.0930
 Frc consts  --      6.8922                 7.3852                 8.0934
 IR Inten    --      1.6688                 1.0723                 0.3978

 - Thermochemistry -
 -------------------
 Temperature   298.150 Kelvin.  Pressure   1.00000 Atm.
 Atom     1 has atomic number  6 and mass  12.00000

 Molecular mass:   294.10719 amu.
 Principal axes and moments of inertia in atomic units:
                           1         2         3
     Eigenvalues --  3419.857507421.831638988.28301
           X            0.99995   0.00936   0.00432
           Y           -0.00916   0.99903  -0.04300
           Z           -0.00472   0.04296   0.99907
 This molecule is an asymmetric top.
 Rotational symmetry number  1.
 Warning -- assumption of classical behavior for rotation
           may cause significant error
 Rotational temperatures (Kelvin)      0.02533     0.01167     0.00964
 Rotational constants (GHZ):           0.52772     0.24317     0.20079
 Zero-point vibrational energy     896510.3 (Joules/Mol)
                                  214.27110 (Kcal/Mol)
 Warning -- explicit consideration of  34 degrees of freedom as
           vibrations may cause significant error
 Vibrational temperatures:     40.62    53.67    80.60   100.46   119.13
          (Kelvin)            148.93   191.47   227.49   244.23   264.53
                              321.43   332.60   340.44   357.62   370.94
                              378.40   421.66   441.71   462.43   503.74
                              508.67   523.12   534.73   575.46   625.96
                              641.12   656.60   668.66   718.04   741.51
                              765.31   830.23   872.30   881.16   942.11
                              999.02  1034.12  1055.56  1101.87  1194.59
                             1253.28  1277.41  1317.28  1348.71  1370.92
                             1384.54  1395.01  1411.78  1425.64  1427.80
                             1436.93  1469.88  1497.80  1525.03  1544.95
                             1592.62  1597.70  1626.35  1698.92  1716.36
                             1728.16  1730.86  1772.45  1792.25  1812.76
                             1830.83  1887.47  1895.07  1916.42  1953.71
                             1960.64  1969.36  1989.15  2005.01  2021.33
                             2035.48  2055.23  2082.67  2119.13  2123.75
                             2143.58  2150.34  2150.61  2160.78  2168.95
                             2179.46  2189.33  2206.43  2208.43  2215.99
                             2420.37  2502.71  4369.55  4389.32  4391.42
                             4415.69  4418.06  4445.42  4453.48  4456.77
                             4465.63  4465.75  4468.87  4477.97  4481.25
                             4507.06  4509.64  4521.43  4554.71  4555.00
                             4578.29  4682.68  4972.34  5100.63

 Zero-point correction=                           0.341463 (Hartree/Particle)
 Thermal correction to Energy=                    0.361333
 Thermal correction to Enthalpy=                  0.362277
 Thermal correction to Gibbs Free Energy=         0.293375
 Sum of electronic and zero-point Energies=          -1563.669240
 Sum of electronic and thermal Energies=             -1563.649370
 Sum of electronic and thermal Enthalpies=           -1563.648426
 Sum of electronic and thermal Free Energies=        -1563.717328

                     E (Thermal)             CV                S
                      KCal/Mol        Cal/Mol-Kelvin    Cal/Mol-Kelvin
 Total                  226.740             76.240            145.017
 Electronic               0.000              0.000              0.000
 Translational            0.889              2.981             42.934
 Rotational               0.889              2.981             33.789
 Vibrational            224.962             70.278             68.294
 Vibration     1          0.593              1.984              5.950
 Vibration     2          0.594              1.982              5.398
 Vibration     3          0.596              1.975              4.593
 Vibration     4          0.598              1.969              4.158
 Vibration     5          0.600              1.961              3.823
 Vibration     6          0.605              1.946              3.387
 Vibration     7          0.613              1.920              2.901
 Vibration     8          0.621              1.894              2.572
 Vibration     9          0.625              1.880              2.438
 Vibration    10          0.631              1.862              2.289
 Vibration    11          0.649              1.805              1.931
 Vibration    12          0.653              1.793              1.870
 Vibration    13          0.656              1.785              1.828
 Vibration    14          0.662              1.765              1.741
 Vibration    15          0.667              1.750              1.677
 Vibration    16          0.670              1.741              1.642
 Vibration    17          0.688              1.687              1.456
 Vibration    18          0.697              1.660              1.378
 Vibration    19          0.707              1.633              1.303
 Vibration    20          0.727              1.575              1.166
 Vibration    21          0.730              1.568              1.150
 Vibration    22          0.737              1.547              1.107
 Vibration    23          0.743              1.530              1.073
 Vibration    24          0.766              1.470              0.963
 Vibration    25          0.796              1.394              0.842
 Vibration    26          0.805              1.371              0.809
 Vibration    27          0.815              1.347              0.777
 Vibration    28          0.822              1.328              0.752
 Vibration    29          0.855              1.252              0.660
 Vibration    30          0.870              1.216              0.621
 Vibration    31          0.887              1.179              0.583
 Vibration    32          0.934              1.081              0.491
 Vibration    33          0.965              1.018              0.439
 Vibration    34          0.972              1.006              0.429

 Optimization completed.
    -- Stationary point found.
 Normal termination of Gaussian 16 at Fri Dec 11 21:23:24 2020.

 ----------------------------------------------------------------------
 # B3LYP/6-311++G(d,p) empiricaldispersion=gd3bj scf=xqc pop=npa geom=c
 heck
 ----------------------------------------------------------------------

 --------------------------------------
 CID_66382282_JID_8646_Energie_neutraal
 --------------------------------------
 Structure from the checkpoint file:  "JID_8646.chk"
 Charge =  0 Multiplicity = 1

 SCF Done:  E(RB3LYP) =  -1564.29049185     A.U. after   16 cycles
 Normal termination of Gaussian 16 at Fri Dec 11 21:34:29 2020.

 ----------------------------------------------------------------------
 # B3LYP/6-311++G(d,p) empiricaldispersion=gd3bj scf=xqc pop=npa geom=c
 heck
 ----------------------------------------------------------------------

 ------------------------------------
 CID_66382282_JID_8646_Energie_kation
 ------------------------------------
 Structure from the checkpoint file:  "JID_8646.chk"
 Charge =  1 Multiplicity = 2

 SCF Done:  E(UB3LYP) =  -1563.99018415     A.U. after   26 cycles
 Normal termination of Gaussian 16 at Fri Dec 11 22:00:46 2020.
 Gaussian 16:  ES64L-G16RevA.03 25-Dec-2016

 ----------------------------------------------------------------------
 # B3LYP/6-311++G(d,p) empiricaldispersion=gd3bj scf=xqc pop=npa geom=c
 heck
 ----------------------------------------------------------------------

 -----------------------------------
 CID_66382282_JID_8646_Energie_anion
 -----------------------------------
 Structure from the checkpoint file:  "JID_8646.chk"
 Charge = -1 Multiplicity = 2

                         Standard orientation:
 ---------------------------------------------------------------------
 Center     Atomic      Atomic             Coordinates (Angstroms)
 Number     Number       Type             X           Y           Z
 ---------------------------------------------------------------------
      1          6           0       -4.306153    0.497725   -0.465215
      2          6           0       -3.472123   -0.515426    0.331257
      3          6           0       -4.396939   -1.313904    1.268545
      4          6           0       -2.749524   -1.507426   -0.607580
      5          6           0       -1.619201   -0.902140   -1.445377
      6          6           0       -0.354991   -0.684787   -0.625875
      7          8           0       -0.076201   -1.444330    0.301762
      8          7           0        0.532425    0.294484   -1.010664
      9          6           0        0.098896    1.560459   -1.622648
     10          6           0       -0.429738    2.512410   -0.545412
     11         16           0        0.839974    2.912363    0.726615
     12          6           0        1.442120    1.209963    1.101731
     13          6           0        1.731803    0.485511   -0.206468
     14         16           0        2.858509   -0.987215   -0.047042
     15          8           0        2.684144   -1.825109   -1.240810
     16          8           0        4.155780   -0.341876    0.237959
     17          6           0        2.467040   -1.948514    1.431727
     18          7           0       -2.450817    0.248432    1.078398
     19          1           0       -5.079120   -0.008127   -1.053533
     20          1           0       -3.680000    1.085339   -1.143190
     21          1           0       -4.807535    1.199496    0.212464
     22          1           0       -5.138163   -1.894430    0.706131
     23          1           0       -3.815340   -2.013203    1.880570
     24          1           0       -4.940755   -0.640940    1.942870
     25          1           0       -2.326524   -2.323306   -0.012448
     26          1           0       -3.495557   -1.951212   -1.276414
     27          1           0       -1.336325   -1.608438   -2.237727
     28          1           0       -1.955452    0.004911   -1.946770
     29          1           0       -0.669380    1.367095   -2.371813
     30          1           0        0.958377    1.992782   -2.143351
     31          1           0       -0.714638    3.474165   -0.983260
     32          1           0       -1.296786    2.056644   -0.057063
     33          1           0        0.703552    0.661273    1.688567
     34          1           0        2.358182    1.341832    1.682782
     35          1           0        2.410291    1.105756   -0.799386
     36          1           0        2.297675   -1.267070    2.267194
     37          1           0        1.594631   -2.565882    1.245225
     38          1           0        3.369503   -2.537304    1.612087
     39          1           0       -2.910172    0.841776    1.769272
     40          1           0       -1.850366   -0.396653    1.591094
 ---------------------------------------------------------------------

 SCF Done:  E(UB3LYP) =  -1564.28483498     A.U. after   31 cycles

 The electronic state is 2-A.
 Alpha  occ. eigenvalues --  -88.95864 -88.76196 -19.02877 -19.02483 -19.01164
 Alpha  occ. eigenvalues --  -14.27163 -14.19887 -10.19617 -10.16915 -10.13686
 Alpha  occ. eigenvalues --  -10.13057 -10.11862 -10.11636 -10.11272 -10.09193
 Alpha  occ. eigenvalues --  -10.07701 -10.06467 -10.06094  -8.02360  -7.84781
 Alpha  occ. eigenvalues --   -5.98603  -5.98510  -5.98474  -5.81180  -5.80831
 Alpha  occ. eigenvalues --   -5.80126  -1.01961  -0.96765  -0.91594  -0.87441
 Alpha  occ. eigenvalues --   -0.80418  -0.73615  -0.71308  -0.69638  -0.68182
 Alpha  occ. eigenvalues --   -0.65805  -0.62402  -0.59544  -0.58211  -0.56846
 Alpha  occ. eigenvalues --   -0.52996  -0.51730  -0.46933  -0.45233  -0.43516
 Alpha  occ. eigenvalues --   -0.42182  -0.40557  -0.40120  -0.39502  -0.38872
 Alpha  occ. eigenvalues --   -0.38252  -0.37231  -0.36681  -0.36230  -0.35393
 Alpha  occ. eigenvalues --   -0.34123  -0.33933  -0.33598  -0.32787  -0.32214
 Alpha  occ. eigenvalues --   -0.31984  -0.29999  -0.29821  -0.28412  -0.28173
 Alpha  occ. eigenvalues --   -0.28067  -0.26951  -0.26563  -0.24719  -0.24139
 Alpha  occ. eigenvalues --   -0.24117  -0.23325  -0.22894  -0.21874  -0.20748
 Alpha  occ. eigenvalues --   -0.18744  -0.17909  -0.15880  -0.14249   0.03666
 Alpha virt. eigenvalues --    0.05809   0.06216   0.06977   0.07859   0.08026
 Alpha virt. eigenvalues --    0.08493   0.08748   0.08811   0.09454   0.10127
 Alpha virt. eigenvalues --    0.10204   0.10587   0.11097   0.11400   0.11774

  Beta  occ. eigenvalues --  -88.95859 -88.76195 -19.02873 -19.02480 -19.01155
  Beta  occ. eigenvalues --  -14.27166 -14.19852 -10.19604 -10.16905 -10.13667
  Beta  occ. eigenvalues --  -10.13046 -10.11837 -10.11634 -10.11248 -10.09176
  Beta  occ. eigenvalues --  -10.07687 -10.06435 -10.06043  -8.02353  -7.84779
  Beta  occ. eigenvalues --   -5.98599  -5.98502  -5.98470  -5.81179  -5.80827
  Beta  occ. eigenvalues --   -5.80125  -1.01949  -0.96748  -0.91584  -0.87430
  Beta  occ. eigenvalues --   -0.80369  -0.73594  -0.71276  -0.69598  -0.68144
  Beta  occ. eigenvalues --   -0.65758  -0.62373  -0.59466  -0.58169  -0.56802
  Beta  occ. eigenvalues --   -0.52961  -0.51697  -0.46886  -0.45185  -0.43480
  Beta  occ. eigenvalues --   -0.42159  -0.40519  -0.40088  -0.39483  -0.38845
  Beta  occ. eigenvalues --   -0.38232  -0.37192  -0.36654  -0.36198  -0.35358
  Beta  occ. eigenvalues --   -0.34096  -0.33911  -0.33565  -0.32759  -0.32191
  Beta  occ. eigenvalues --   -0.31944  -0.29969  -0.29787  -0.28373  -0.28140
  Beta  occ. eigenvalues --   -0.28039  -0.26915  -0.26517  -0.24699  -0.24119
  Beta  occ. eigenvalues --   -0.24080  -0.23313  -0.22866  -0.21867  -0.20735
  Beta  occ. eigenvalues --   -0.18734  -0.17890  -0.15846  -0.14231
  Beta virt. eigenvalues --    0.05878   0.06526   0.06939   0.07293   0.08066
  Beta virt. eigenvalues --    0.08339   0.08833   0.09032   0.09195   0.09884
  Beta virt. eigenvalues --    0.10353   0.10427   0.10838   0.11222   0.11605

 Mulliken charges and spin densities:
               1          2
     1  C    1.264260  -1.973934
     2  C   -1.352894   1.381567
     3  C    0.087502  -0.574213
     4  C    0.653438  -0.975056
     5  C    0.753442  -0.509439
     6  C   -1.452577   0.425491
     7  O   -0.200261   0.025435
     8  N    0.445311  -0.007909
     9  C    0.069649  -0.436268
    10  C   -0.127588  -0.297133
    11  S   -0.075731  -0.141220
    12  C    0.181968  -0.495622
    13  C   -0.904538   0.462834
    14  S    0.575430  -0.188919
    15  O   -0.084752   0.000823
    16  O   -0.166760   0.001264
    17  C   -0.288179  -0.270164
    18  N   -0.160198  -0.069156
    19  H   -0.243479   0.392633
    20  H   -0.294884   0.416289
    21  H   -0.325352   0.476873
    22  H   -0.051079   0.189494
    23  H   -0.181677   0.321801
    24  H   -0.225214   0.371581
    25  H    0.377216  -0.176497
    26  H   -0.178844   0.370874
    27  H    0.102980   0.117849
    28  H    0.453958  -0.298962
    29  H   -0.653893   0.849190
    30  H    0.258728  -0.091045
    31  H   -0.506253   0.773115
    32  H    0.644792  -0.372661
    33  H    0.043256   0.182117
    34  H    0.224738   0.036099
    35  H    0.170732   0.083676
    36  H   -0.061233   0.276270
    37  H    0.115458   0.101660
    38  H    0.122478   0.103108
    39  H   -0.000274   0.263101
    40  H   -0.009674   0.255057
 Sum of Mulliken charges =  -1.00000   1.00000

 Dipole moment (field-independent basis, Debye):
    X=              4.9523    Y=             -1.4604    Z=              0.8518  Tot=              5.2329
 Quadrupole moment (field-independent basis, Debye-Ang):
   XX=           -222.7670   YY=           -172.5149   ZZ=           -166.3339
   XY=              8.3782   XZ=              3.2440   YZ=              0.9116

 Summary of Natural Population Analysis:

                                       Natural Population
                Natural  -----------------------------------------------
    Atom  No    Charge         Core      Valence    Rydberg      Total
 -----------------------------------------------------------------------
      C    1   -0.28779      0.99961     2.28028    0.00790     3.28779
      C    2    0.04928      0.99959     1.93708    0.01404     2.95072
      C    3   -0.28846      0.99962     2.28289    0.00596     3.28846
      C    4   -0.19013      0.99957     2.18094    0.00962     3.19013
      C    5   -0.23334      0.99957     2.22491    0.00886     3.23334
      C    6    0.37383      0.99964     1.60257    0.02396     2.62617
      O    7   -0.34395      0.99987     3.33758    0.00650     4.34395
      N    8   -0.26853      0.99962     2.75613    0.01279     3.76853
      C    9   -0.08696      0.99959     2.07505    0.01232     3.08696
      C   10   -0.26521      0.99958     2.25539    0.01025     3.26521
      S   11    0.09162      4.99965     2.89260    0.01613     7.90838
      C   12   -0.26672      0.99953     2.25600    0.01119     3.26672
      C   13   -0.10067      0.99948     2.08066    0.02053     3.10067
      S   14    1.02099      4.99925     1.88632    0.09344     6.97901
      O   15   -0.46072      0.99991     3.45531    0.00550     4.46072
      O   16   -0.47883      0.99991     3.47340    0.00551     4.47883
      C   17   -0.38445      0.99960     2.37720    0.00765     3.38445
      N   18   -0.43384      0.99975     2.92276    0.01133     3.93384
      H   19    0.10141      0.00000     0.39710    0.00149     0.39859
      H   20    0.10215      0.00000     0.39583    0.00202     0.39785
      H   21    0.10122      0.00000     0.39737    0.00141     0.39878
      H   22    0.10002      0.00000     0.39896    0.00102     0.39998
      H   23    0.09951      0.00000     0.39924    0.00125     0.40049
      H   24    0.10021      0.00000     0.39855    0.00124     0.39979
      H   25    0.10826      0.00000     0.39031    0.00143     0.39174
      H   26    0.10341      0.00000     0.39561    0.00098     0.39659
      H   27    0.11539      0.00000     0.38372    0.00089     0.38461
      H   28    0.10761      0.00000     0.39048    0.00191     0.39239
      H   29    0.11051      0.00000     0.38797    0.00152     0.38949
      H   30    0.09941      0.00000     0.39911    0.00149     0.40059
      H   31    0.11113      0.00000     0.38725    0.00161     0.38887
      H   32    0.12440      0.00000     0.37323    0.00237     0.37560
      H   33    0.11485      0.00000     0.38333    0.00182     0.38515
      H   34    0.11606      0.00000     0.38285    0.00108     0.38394
      H   35    0.11938      0.00000     0.37882    0.00180     0.38062
      H   36    0.11390      0.00000     0.38498    0.00111     0.38610
      H   37    0.13009      0.00000     0.36861    0.00129     0.36991
      H   38    0.11392      0.00000     0.38496    0.00112     0.38608
      H   39    0.17851      0.00000     0.31905    0.00245     0.32149
      H   40    0.18250      0.00000     0.31485    0.00265     0.31750
 =======================================================================
   * Total *    0.00000     25.99333    52.68927    0.31741    79.00000

 Normal termination of Gaussian 16 at Fri Dec 11 22:31:35 2020.
