 Gaussian 16, Revision A.03,

 -----------------------------------------------------------
 # opt freq B3LYP/6-31G(d) empiricaldispersion=gd3bj scf=xqc
 -----------------------------------------------------------

 -------------------------------
 CID_43828770_JID_10207_neutraal
 -------------------------------
 Symbolic Z-matrix:
 Charge =  0 Multiplicity = 1

 SCF Done:  E(RB3LYP) =  -973.522694736     A.U. after   15 cycles
 SCF Done:  E(RB3LYP) =  -973.530335310     A.U. after   13 cycles
 SCF Done:  E(RB3LYP) =  -973.529373653     A.U. after   13 cycles
 SCF Done:  E(RB3LYP) =  -973.531182356     A.U. after   12 cycles
 SCF Done:  E(RB3LYP) =  -973.531495169     A.U. after   11 cycles
 SCF Done:  E(RB3LYP) =  -973.531502551     A.U. after   11 cycles
 SCF Done:  E(RB3LYP) =  -973.531547073     A.U. after   10 cycles
 SCF Done:  E(RB3LYP) =  -973.531550169     A.U. after   10 cycles
 SCF Done:  E(RB3LYP) =  -973.531559796     A.U. after    9 cycles
 SCF Done:  E(RB3LYP) =  -973.531561890     A.U. after    9 cycles
 SCF Done:  E(RB3LYP) =  -973.531562672     A.U. after    8 cycles
 SCF Done:  E(RB3LYP) =  -973.531563083     A.U. after    8 cycles
 SCF Done:  E(RB3LYP) =  -973.531563220     A.U. after    7 cycles
 Optimization completed.
    -- Stationary point found.
 Normal termination of Gaussian 16 at Mon Dec 14 13:30:54 2020.

 --------------------------------------------------------------------
 #N Geom=AllCheck Guess=TCheck SCRF=Check GenChk RB3LYP/6-31G(d) Freq
 --------------------------------------------------------------------

 Structure from the checkpoint file:  "JID_10207.chk"
 -------------------------------
 CID_43828770_JID_10207_neutraal
 -------------------------------
 Charge =  0 Multiplicity = 1

 SCF Done:  E(RB3LYP) =  -973.531563220     A.U. after    1 cycles

  Exact polarizability: 243.469 -10.028 168.942  17.210  14.375  95.839
 Approx polarizability: 341.088 -14.830 290.933  41.059  34.139 152.831

                      1                      2                      3
                      A                      A                      A
 Frequencies --     20.8237                40.6524                50.2157
 Red. masses --      4.5712                 5.3533                 3.1101
 Frc consts  --      0.0012                 0.0052                 0.0046
 IR Inten    --      0.2449                 0.2942                 0.2431

                      4                      5                      6
                      A                      A                      A
 Frequencies --     58.4982                69.0009                86.7196
 Red. masses --      7.7379                 3.7050                 6.7569
 Frc consts  --      0.0156                 0.0104                 0.0299
 IR Inten    --      0.2758                 0.1952                 1.5580

                      7                      8                      9
                      A                      A                      A
 Frequencies --    124.7041               136.2310               145.3621
 Red. masses --      5.0997                 6.1479                 6.3803
 Frc consts  --      0.0467                 0.0672                 0.0794
 IR Inten    --      0.0768                 0.7009                 1.8569

                     10                     11                     12
                      A                      A                      A
 Frequencies --    156.9841               169.9192               221.0034
 Red. masses --      3.5313                 2.4904                 3.3733
 Frc consts  --      0.0513                 0.0424                 0.0971
 IR Inten    --      0.9187                 0.2701                 0.0323

                     13                     14                     15
                      A                      A                      A
 Frequencies --    269.6530               293.8079               298.4063
 Red. masses --      1.5409                 6.7707                 6.0279
 Frc consts  --      0.0660                 0.3444                 0.3162
 IR Inten    --      0.0820                 6.1789                 0.4007

                     16                     17                     18
                      A                      A                      A
 Frequencies --    319.0194               359.1470               392.2763
 Red. masses --      4.0374                 2.6562                 4.3697
 Frc consts  --      0.2421                 0.2019                 0.3962
 IR Inten    --      0.9142                 0.9664                15.3299

                     19                     20                     21
                      A                      A                      A
 Frequencies --    408.3922               436.7923               439.5193
 Red. masses --      3.2857                 3.1628                 4.1734
 Frc consts  --      0.3229                 0.3555                 0.4750
 IR Inten    --      1.8886                 9.5824                 2.0969

                     22                     23                     24
                      A                      A                      A
 Frequencies --    467.7451               501.8665               516.4631
 Red. masses --      2.7762                 7.9442                 4.1683
 Frc consts  --      0.3579                 1.1789                 0.6551
 IR Inten    --      1.6353                17.7282                12.3272

                     25                     26                     27
                      A                      A                      A
 Frequencies --    522.5321               542.6086               570.7871
 Red. masses --      3.8191                 3.5546                 4.4537
 Frc consts  --      0.6144                 0.6166                 0.8549
 IR Inten    --     26.5189                19.8356                18.5129

                     28                     29                     30
                      A                      A                      A
 Frequencies --    616.1290               669.2103               681.9706
 Red. masses --      1.3913                 5.0928                 5.5938
 Frc consts  --      0.3112                 1.3438                 1.5328
 IR Inten    --     44.1511                36.6923                16.1309

                     31                     32                     33
                      A                      A                      A
 Frequencies --    696.8824               700.3014               736.7933
 Red. masses --      4.8427                 3.4196                 4.0483
 Frc consts  --      1.3857                 0.9881                 1.2948
 IR Inten    --     48.8152                 2.2979                22.0668

                     34                     35                     36
                      A                      A                      A
 Frequencies --    745.7248               762.9960               767.9170
 Red. masses --      3.4975                 2.1302                 5.3849
 Frc consts  --      1.1460                 0.7307                 1.8709
 IR Inten    --      6.0420                10.3676                 8.5081

                     37                     38                     39
                      A                      A                      A
 Frequencies --    772.4071               789.8926               846.4838
 Red. masses --      4.9436                 2.6141                 1.5690
 Frc consts  --      1.7377                 0.9609                 0.6624
 IR Inten    --     53.1767                 7.6698                13.0311

                     40                     41                     42
                      A                      A                      A
 Frequencies --    857.5701               895.5059               912.8148
 Red. masses --      1.6011                 2.0967                 3.9759
 Frc consts  --      0.6937                 0.9907                 1.9519
 IR Inten    --      4.3330                 5.4262                10.6510

                     43                     44                     45
                      A                      A                      A
 Frequencies --    952.6269               980.1705               981.9666
 Red. masses --      2.1414                 1.8498                 1.6350
 Frc consts  --      1.1450                 1.0471                 0.9289
 IR Inten    --      2.7694                 1.8877                 3.6219

                     46                     47                     48
                      A                      A                      A
 Frequencies --    987.1935              1029.4583              1041.7412
 Red. masses --      1.3388                 1.6651                 2.6889
 Frc consts  --      0.7687                 1.0397                 1.7193
 IR Inten    --      1.9046                 3.2739                12.5525

                     49                     50                     51
                      A                      A                      A
 Frequencies --   1069.3699              1087.1290              1105.4028
 Red. masses --      4.2216                 2.3718                 2.9419
 Frc consts  --      2.8444                 1.6516                 2.1180
 IR Inten    --     79.3835                28.5619                29.0006

                     52                     53                     54
                      A                      A                      A
 Frequencies --   1134.4216              1145.5869              1159.5007
 Red. masses --      2.4169                 2.1846                 2.3957
 Frc consts  --      1.8325                 1.6892                 1.8977
 IR Inten    --     27.4886                 0.8674                 6.7411

                     55                     56                     57
                      A                      A                      A
 Frequencies --   1191.1143              1195.1239              1227.8622
 Red. masses --      2.2589                 1.4550                 2.2729
 Frc consts  --      1.8883                 1.2245                 2.0190
 IR Inten    --    209.9877               219.6636               193.5995

                     58                     59                     60
                      A                      A                      A
 Frequencies --   1242.5806              1278.1737              1284.9377
 Red. masses --      1.3744                 2.0924                 1.5273
 Frc consts  --      1.2503                 2.0141                 1.4857
 IR Inten    --      3.1836                45.9541                33.8279

                     61                     62                     63
                      A                      A                      A
 Frequencies --   1316.4306              1334.7927              1352.1402
 Red. masses --      1.2936                 2.7196                 1.2024
 Frc consts  --      1.3208                 2.8548                 1.2953
 IR Inten    --     34.2583               184.4330                19.8138

                     64                     65                     66
                      A                      A                      A
 Frequencies --   1381.6073              1387.3270              1391.0951
 Red. masses --      2.4724                 2.2177                 1.4517
 Frc consts  --      2.7806                 2.5149                 1.6551
 IR Inten    --     11.9496               259.2211                 5.6936

                     67                     68                     69
                      A                      A                      A
 Frequencies --   1402.9784              1416.0151              1420.4582
 Red. masses --      3.5053                 1.6133                 1.4300
 Frc consts  --      4.0652                 1.9059                 1.7000
 IR Inten    --     53.6655                36.6761                 7.4167

                     70                     71                     72
                      A                      A                      A
 Frequencies --   1433.6174              1444.6716              1497.1497
 Red. masses --      1.4753                 1.2710                 4.4562
 Frc consts  --      1.7865                 1.5629                 5.8849
 IR Inten    --     36.9086                 3.1182                27.6046

                     73                     74                     75
                      A                      A                      A
 Frequencies --   1511.6106              1521.5095              1524.0265
 Red. masses --      1.0938                 1.0928                 1.0747
 Frc consts  --      1.4726                 1.4905                 1.4708
 IR Inten    --      1.6773                 3.7026                 5.5268

                     76                     77                     78
                      A                      A                      A
 Frequencies --   1532.0044              1538.8689              1547.3158
 Red. masses --      1.0671                 1.0492                 1.0913
 Frc consts  --      1.4757                 1.4638                 1.5395
 IR Inten    --     13.8431                 3.0715                26.7089

                     79                     80                     81
                      A                      A                      A
 Frequencies --   1554.4086              1631.7597              1672.6012
 Red. masses --      3.1812                 7.8662                 6.3173
 Frc consts  --      4.5287                12.3404                10.4127
 IR Inten    --    133.8605                44.0464               345.5830

                     82                     83                     84
                      A                      A                      A
 Frequencies --   1828.1172              1829.1371              1877.8965
 Red. masses --     10.4654                11.7089                12.7426
 Frc consts  --     20.6070                23.0811                26.4759
 IR Inten    --     46.1921               885.9265               406.7556

                     85                     86                     87
                      A                      A                      A
 Frequencies --   3033.2391              3041.6759              3051.3762
 Red. masses --      1.0612                 1.0389                 1.0687
 Frc consts  --      5.7524                 5.6629                 5.8624
 IR Inten    --     20.3250                19.7220                30.4956

                     88                     89                     90
                      A                      A                      A
 Frequencies --   3057.1926              3068.8474              3088.2432
 Red. masses --      1.0670                 1.0945                 1.0860
 Frc consts  --      5.8759                 6.0734                 6.1026
 IR Inten    --      8.2686                43.5136                27.6850

                     91                     92                     93
                      A                      A                      A
 Frequencies --   3092.6216              3096.9822              3115.1656
 Red. masses --      1.0881                 1.0957                 1.1016
 Frc consts  --      6.1318                 6.1921                 6.2983
 IR Inten    --      9.3153                49.7386                52.1518

                     94                     95                     96
                      A                      A                      A
 Frequencies --   3117.7597              3181.7118              3233.9295
 Red. masses --      1.0984                 1.0942                 1.0897
 Frc consts  --      6.2905                 6.5264                 6.7145
 IR Inten    --     35.4758                 3.7862                 0.7615

                     97                     98                     99
                      A                      A                      A
 Frequencies --   3243.6672              3257.4890              3700.9234
 Red. masses --      1.0913                 1.0923                 1.0642
 Frc consts  --      6.7648                 6.8290                 8.5883
 IR Inten    --      3.8916                 5.8755                96.8573

 - Thermochemistry -
 -------------------
 Temperature   298.150 Kelvin.  Pressure   1.00000 Atm.
 Atom     1 has atomic number  6 and mass  12.00000

 Molecular mass:   277.09502 amu.
 Principal axes and moments of inertia in atomic units:
                           1         2         3
     Eigenvalues --  2872.642609660.73835**********
           X            0.99980   0.01886  -0.00633
           Y           -0.01885   0.99982   0.00197
           Z            0.00637  -0.00185   0.99998
 This molecule is an asymmetric top.
 Rotational symmetry number  1.
 Warning -- assumption of classical behavior for rotation
           may cause significant error
 Rotational temperatures (Kelvin)      0.03015     0.00897     0.00737
 Rotational constants (GHZ):           0.62825     0.18681     0.15347
 Zero-point vibrational energy     735072.1 (Joules/Mol)
                                  175.68644 (Kcal/Mol)
 Warning -- explicit consideration of  28 degrees of freedom as
           vibrations may cause significant error
 Vibrational temperatures:     29.96    58.49    72.25    84.17    99.28
          (Kelvin)            124.77   179.42   196.01   209.14   225.87
                              244.48   317.97   387.97   422.72   429.34
                              459.00   516.73   564.40   587.59   628.45
                              632.37   672.98   722.07   743.08   751.81
                              780.69   821.24   886.47   962.84   981.20
                             1002.66  1007.58  1060.08  1072.93  1097.78
                             1104.86  1111.32  1136.48  1217.90  1233.85
                             1288.43  1313.34  1370.62  1410.25  1412.83
                             1420.35  1481.16  1498.83  1538.58  1564.14
                             1590.43  1632.18  1648.24  1668.26  1713.75
                             1719.52  1766.62  1787.80  1839.01  1848.74
                             1894.05  1920.47  1945.43  1987.82  1996.05
                             2001.48  2018.57  2037.33  2043.72  2062.66
                             2078.56  2154.06  2174.87  2189.11  2192.73
                             2204.21  2214.09  2226.24  2236.45  2347.74
                             2406.50  2630.25  2631.72  2701.87  4364.15
                             4376.29  4390.25  4398.62  4415.39  4443.29
                             4449.59  4455.87  4482.03  4485.76  4577.77
                             4652.90  4666.91  4686.80  5324.80

 Zero-point correction=                           0.279974 (Hartree/Particle)
 Thermal correction to Energy=                    0.298015
 Thermal correction to Enthalpy=                  0.298960
 Thermal correction to Gibbs Free Energy=         0.232008
 Sum of electronic and zero-point Energies=           -973.251589
 Sum of electronic and thermal Energies=              -973.233548
 Sum of electronic and thermal Enthalpies=            -973.232604
 Sum of electronic and thermal Free Energies=         -973.299555

                     E (Thermal)             CV                S
                      KCal/Mol        Cal/Mol-Kelvin    Cal/Mol-Kelvin
 Total                  187.008             68.118            140.911
 Electronic               0.000              0.000              0.000
 Translational            0.889              2.981             42.756
 Rotational               0.889              2.981             34.145
 Vibrational            185.230             62.157             64.011
 Vibration     1          0.593              1.986              6.554
 Vibration     2          0.594              1.981              5.227
 Vibration     3          0.595              1.978              4.809
 Vibration     4          0.596              1.974              4.507
 Vibration     5          0.598              1.969              4.182
 Vibration     6          0.601              1.958              3.733
 Vibration     7          0.610              1.928              3.026
 Vibration     8          0.614              1.917              2.856
 Vibration     9          0.617              1.908              2.732
 Vibration    10          0.621              1.895              2.586
 Vibration    11          0.625              1.880              2.436
 Vibration    12          0.648              1.809              1.951
 Vibration    13          0.674              1.729              1.598
 Vibration    14          0.689              1.685              1.452
 Vibration    15          0.691              1.677              1.426
 Vibration    16          0.705              1.637              1.315
 Vibration    17          0.734              1.556              1.126
 Vibration    18          0.760              1.487              0.991
 Vibration    19          0.773              1.452              0.932
 Vibration    20          0.797              1.390              0.837
 Vibration    21          0.800              1.384              0.828
 Vibration    22          0.825              1.322              0.744
 Vibration    23          0.857              1.246              0.653
 Vibration    24          0.871              1.214              0.618
 Vibration    25          0.877              1.200              0.604
 Vibration    26          0.898              1.156              0.560
 Vibration    27          0.927              1.094              0.503
 Vibration    28          0.976              0.998              0.423

                           ! Non-Optimized Parameters !
 Normal termination of Gaussian 16 at Mon Dec 14 13:47:02 2020.

 ----------------------------------------------------------------------
 # B3LYP/6-311++G(d,p) empiricaldispersion=gd3bj scf=xqc pop=npa geom=c
 heck
 ----------------------------------------------------------------------

 ---------------------------------------
 CID_43828770_JID_10207_Energie_neutraal
 ---------------------------------------
 Structure from the checkpoint file:  "JID_10207.chk"
 Charge =  0 Multiplicity = 1

 SCF Done:  E(RB3LYP) =  -973.808698503     A.U. after   16 cycles
 Normal termination of Gaussian 16 at Mon Dec 14 13:53:19 2020.

 ----------------------------------------------------------------------
 # B3LYP/6-311++G(d,p) empiricaldispersion=gd3bj scf=xqc pop=npa geom=c
 heck
 ----------------------------------------------------------------------

 -------------------------------------
 CID_43828770_JID_10207_Energie_kation
 -------------------------------------
 Structure from the checkpoint file:  "JID_10207.chk"
 Charge =  1 Multiplicity = 2

 SCF Done:  E(UB3LYP) =  -973.482626994     A.U. after   24 cycles
 Normal termination of Gaussian 16 at Mon Dec 14 14:06:13 2020.
 Gaussian 16:  ES64L-G16RevA.03 25-Dec-2016

 ----------------------------------------------------------------------
 # B3LYP/6-311++G(d,p) empiricaldispersion=gd3bj scf=xqc pop=npa geom=c
 heck
 ----------------------------------------------------------------------

 ------------------------------------
 CID_43828770_JID_10207_Energie_anion
 ------------------------------------
 Structure from the checkpoint file:  "JID_10207.chk"
 Charge = -1 Multiplicity = 2

                         Standard orientation:
 ---------------------------------------------------------------------
 Center     Atomic      Atomic             Coordinates (Angstroms)
 Number     Number       Type             X           Y           Z
 ---------------------------------------------------------------------
      1          6           0       -5.530578   -1.484906    0.363494
      2          6           0       -4.524649   -0.455386    0.887273
      3          6           0       -3.148410   -1.045856    1.231634
      4          6           0       -2.414482   -1.741101    0.075590
      5          6           0       -2.021900   -0.820628   -1.086780
      6          7           0       -1.066237    0.233685   -0.693152
      7          6           0        0.275153   -0.062438   -0.468403
      8          6           0        1.143521    0.956175   -0.024398
      9          6           0        2.492944    0.693325    0.208576
     10          6           0        3.008306   -0.582807    0.001115
     11          6           0        2.147723   -1.597666   -0.448271
     12          6           0        0.803246   -1.349782   -0.679763
     13          6           0        4.448961   -0.814623    0.262898
     14          8           0        5.228682    0.031352    0.648497
     15          8           0        4.824847   -2.097599    0.024325
     16          6           0        0.632024    2.310195    0.191223
     17          8           0        1.252365    3.258947    0.590520
     18          8           0       -0.714615    2.489215   -0.116823
     19          6           0       -1.577447    1.518661   -0.551504
     20          8           0       -2.722542    1.818567   -0.786574
     21          1           0       -5.227791   -1.899973   -0.605080
     22          1           0       -6.517883   -1.031197    0.225725
     23          1           0       -5.642862   -2.323850    1.062026
     24          1           0       -4.408366    0.358363    0.164019
     25          1           0       -4.927279    0.007733    1.797150
     26          1           0       -2.507344   -0.252644    1.638945
     27          1           0       -3.267093   -1.780663    2.039354
     28          1           0       -1.518266   -2.232443    0.471875
     29          1           0       -3.039592   -2.539212   -0.343147
     30          1           0       -1.574197   -1.390797   -1.905939
     31          1           0       -2.891781   -0.302639   -1.485783
     32          1           0        3.137381    1.494858    0.551131
     33          1           0        2.542551   -2.592949   -0.616576
     34          1           0        0.171842   -2.157209   -1.023088
     35          1           0        5.777964   -2.136018    0.225800
 ---------------------------------------------------------------------

 SCF Done:  E(UB3LYP) =  -973.841461191     A.U. after   27 cycles

 The electronic state is 2-A.
 Alpha  occ. eigenvalues --  -19.05333 -19.05285 -18.99239 -18.97911 -18.96820
 Alpha  occ. eigenvalues --  -14.25495 -10.21810 -10.16967 -10.16139 -10.11308
 Alpha  occ. eigenvalues --  -10.08725 -10.08368 -10.08196 -10.07939 -10.07730
 Alpha  occ. eigenvalues --  -10.05662 -10.05062 -10.04739 -10.04653 -10.03154
 Alpha  occ. eigenvalues --   -1.01029  -0.98778  -0.94049  -0.89372  -0.89174
 Alpha  occ. eigenvalues --   -0.85374  -0.73520  -0.71780  -0.66901  -0.64478
 Alpha  occ. eigenvalues --   -0.63621  -0.60541  -0.56288  -0.55234  -0.54128
 Alpha  occ. eigenvalues --   -0.51207  -0.48028  -0.46719  -0.45314  -0.42477
 Alpha  occ. eigenvalues --   -0.40029  -0.38988  -0.37546  -0.36876  -0.36673
 Alpha  occ. eigenvalues --   -0.35562  -0.34473  -0.34160  -0.33182  -0.33115
 Alpha  occ. eigenvalues --   -0.32219  -0.31325  -0.30899  -0.30115  -0.29590
 Alpha  occ. eigenvalues --   -0.29358  -0.28583  -0.28138  -0.27106  -0.26070
 Alpha  occ. eigenvalues --   -0.24771  -0.24468  -0.23779  -0.23526  -0.22367
 Alpha  occ. eigenvalues --   -0.21104  -0.19936  -0.19395  -0.18973  -0.15876
 Alpha  occ. eigenvalues --   -0.14941  -0.14018  -0.11295   0.02582
 Alpha virt. eigenvalues --    0.05930   0.07216   0.07729   0.08003   0.08290
 Alpha virt. eigenvalues --    0.09159   0.10419   0.11049   0.11227   0.12038
 Alpha virt. eigenvalues --    0.12502   0.12632   0.13384   0.13555   0.14089

  Beta  occ. eigenvalues --  -19.05281 -19.05225 -18.99211 -18.97751 -18.96594
  Beta  occ. eigenvalues --  -14.25478 -10.21784 -10.16853 -10.15988 -10.11308
  Beta  occ. eigenvalues --  -10.08368 -10.08266 -10.08195 -10.07938 -10.07730
  Beta  occ. eigenvalues --  -10.05678 -10.05211 -10.04635 -10.04630 -10.02618
  Beta  occ. eigenvalues --   -1.00854  -0.98666  -0.93846  -0.89157  -0.88884
  Beta  occ. eigenvalues --   -0.85146  -0.73162  -0.71730  -0.66800  -0.63992
  Beta  occ. eigenvalues --   -0.63274  -0.60493  -0.56147  -0.54971  -0.53660
  Beta  occ. eigenvalues --   -0.51073  -0.47969  -0.46573  -0.44984  -0.42301
  Beta  occ. eigenvalues --   -0.39829  -0.38918  -0.37406  -0.36736  -0.36400
  Beta  occ. eigenvalues --   -0.35287  -0.34395  -0.34018  -0.33064  -0.32555
  Beta  occ. eigenvalues --   -0.32078  -0.31107  -0.30838  -0.30021  -0.29404
  Beta  occ. eigenvalues --   -0.29091  -0.28051  -0.27993  -0.26888  -0.25288
  Beta  occ. eigenvalues --   -0.24647  -0.24389  -0.23601  -0.23484  -0.22195
  Beta  occ. eigenvalues --   -0.20586  -0.19148  -0.18927  -0.18409  -0.15723
  Beta  occ. eigenvalues --   -0.14722  -0.12792  -0.10104
  Beta virt. eigenvalues --    0.05896   0.07678   0.07936   0.08010   0.08249
  Beta virt. eigenvalues --    0.08905   0.09142   0.10388   0.11051   0.11226
  Beta virt. eigenvalues --    0.12023   0.12497   0.12623   0.13568   0.13910

 Mulliken charges and spin densities:
               1          2
     1  C   -0.610028  -0.007746
     2  C   -0.252130   0.001886
     3  C   -0.298617   0.016008
     4  C   -0.101732  -0.007354
     5  C   -0.244552  -0.025090
     6  N   -0.003391   0.006034
     7  C    0.463835   0.282091
     8  C    0.229247   0.094098
     9  C   -0.664080  -0.015965
    10  C    0.366801  -0.012638
    11  C   -1.119222   0.447055
    12  C   -0.181624  -0.124710
    13  C    0.360217   0.077805
    14  O   -0.378200   0.053106
    15  O   -0.206623   0.000823
    16  C   -0.263815   0.085984
    17  O   -0.347902   0.077532
    18  O   -0.200607   0.022899
    19  C    0.345969   0.019899
    20  O   -0.329224   0.009395
    21  H    0.137034   0.000960
    22  H    0.130686   0.000253
    23  H    0.123668   0.002678
    24  H    0.206672   0.000463
    25  H    0.128802  -0.000123
    26  H    0.194545  -0.001088
    27  H    0.141881   0.003415
    28  H    0.137461   0.006774
    29  H    0.124596  -0.004427
    30  H    0.177337   0.015459
    31  H    0.204193  -0.002682
    32  H    0.222509   0.001072
    33  H    0.162429  -0.032850
    34  H    0.070540   0.009469
    35  H    0.273324  -0.000482
 Sum of Mulliken charges =  -1.00000   1.00000

 Dipole moment (field-independent basis, Debye):
    X=             -6.0981    Y=             -7.4501    Z=             -0.8618  Tot=              9.6661
 Quadrupole moment (field-independent basis, Debye-Ang):
   XX=           -172.6562   YY=           -153.3574   ZZ=           -124.5820
   XY=             -0.4687   XZ=             -6.3218   YZ=             -1.9897

 Summary of Natural Population Analysis:

                                       Natural Population
                Natural  -----------------------------------------------
    Atom  No    Charge         Core      Valence    Rydberg      Total
 -----------------------------------------------------------------------
      C    1   -0.28762      0.99967     2.28372    0.00423     3.28762
      C    2   -0.20010      0.99964     2.19329    0.00718     3.20010
      C    3   -0.18948      0.99963     2.18243    0.00742     3.18948
      C    4   -0.19727      0.99962     2.19101    0.00663     3.19727
      C    5   -0.08786      0.99962     2.07894    0.00930     3.08786
      N    6   -0.24757      0.99960     2.73654    0.01143     3.74757
      C    7    0.18711      0.99948     1.80450    0.00891     2.81289
      C    8   -0.10015      0.99946     2.09290    0.00779     3.10015
      C    9   -0.03750      0.99942     2.02867    0.00941     3.03750
      C   10   -0.10519      0.99946     2.09539    0.01034     3.10519
      C   11    0.03629      0.99957     1.95511    0.00903     2.96371
      C   12   -0.16598      0.99955     2.15883    0.00760     3.16598
      C   13    0.40825      0.99966     1.56738    0.02471     2.59175
      O   14   -0.31161      0.99987     3.30369    0.00804     4.31161
      O   15   -0.35365      0.99988     3.34786    0.00590     4.35365
      C   16    0.41686      0.99959     1.56039    0.02316     2.58314
      O   17   -0.27672      0.99987     3.26999    0.00686     4.27672
      O   18   -0.27242      0.99983     3.26388    0.00871     4.27242
      C   19    0.47492      0.99967     1.50197    0.02343     2.52508
      O   20   -0.32315      0.99986     3.31700    0.00628     4.32315
      H   21    0.09404      0.00000     0.40509    0.00087     0.40596
      H   22    0.09649      0.00000     0.40270    0.00081     0.40351
      H   23    0.09142      0.00000     0.40756    0.00102     0.40858
      H   24    0.11188      0.00000     0.38695    0.00117     0.38812
      H   25    0.09199      0.00000     0.40685    0.00116     0.40801
      H   26    0.10357      0.00000     0.39548    0.00094     0.39643
      H   27    0.09145      0.00000     0.40747    0.00108     0.40855
      H   28    0.10513      0.00000     0.39369    0.00118     0.39487
      H   29    0.09309      0.00000     0.40590    0.00100     0.40691
      H   30    0.09739      0.00000     0.40146    0.00115     0.40261
      H   31    0.11255      0.00000     0.38634    0.00111     0.38745
      H   32    0.11943      0.00000     0.37975    0.00082     0.38057
      H   33    0.09644      0.00000     0.40278    0.00077     0.40356
      H   34    0.09498      0.00000     0.40352    0.00149     0.40502
      H   35    0.23297      0.00000     0.26391    0.00312     0.26703
 =======================================================================
   * Total *    0.00002     19.99295    52.78296    0.22406    72.99998

 Normal termination of Gaussian 16 at Mon Dec 14 14:20:58 2020.
