 Gaussian 16, Revision A.03,

 -----------------------------------------------------------
 # opt freq B3LYP/6-31G(d) empiricaldispersion=gd3bj scf=xqc
 -----------------------------------------------------------

 -------------------------------
 CID_151352401_JID_5513_neutraal
 -------------------------------
 Symbolic Z-matrix:
 Charge =  0 Multiplicity = 1

 SCF Done:  E(RB3LYP) =  -683.651080756     A.U. after   16 cycles
 SCF Done:  E(RB3LYP) =  -683.657514739     A.U. after   14 cycles
 SCF Done:  E(RB3LYP) =  -683.658344085     A.U. after   14 cycles
 SCF Done:  E(RB3LYP) =  -683.658900515     A.U. after   14 cycles
 SCF Done:  E(RB3LYP) =  -683.659160051     A.U. after   13 cycles
 SCF Done:  E(RB3LYP) =  -683.659368913     A.U. after   14 cycles
 SCF Done:  E(RB3LYP) =  -683.659429160     A.U. after   13 cycles
 SCF Done:  E(RB3LYP) =  -683.659422864     A.U. after   13 cycles
 SCF Done:  E(RB3LYP) =  -683.659573614     A.U. after   13 cycles
 SCF Done:  E(RB3LYP) =  -683.657749581     A.U. after   17 cycles
 SCF Done:  E(RB3LYP) =  -683.659918384     A.U. after   10 cycles
 SCF Done:  E(RB3LYP) =  -683.659918805     A.U. after    8 cycles
 SCF Done:  E(RB3LYP) =  -683.659919052     A.U. after    9 cycles
 SCF Done:  E(RB3LYP) =  -683.659919132     A.U. after    8 cycles
 SCF Done:  E(RB3LYP) =  -683.659919163     A.U. after    8 cycles
 SCF Done:  E(RB3LYP) =  -683.659919174     A.U. after    8 cycles
 Optimization completed.
    -- Stationary point found.
 Normal termination of Gaussian 16 at Thu Dec 10 16:31:22 2020.

 --------------------------------------------------------------------
 #N Geom=AllCheck Guess=TCheck SCRF=Check GenChk RB3LYP/6-31G(d) Freq
 --------------------------------------------------------------------

 Structure from the checkpoint file:  "JID_5513.chk"
 -------------------------------
 CID_151352401_JID_5513_neutraal
 -------------------------------
 Charge =  0 Multiplicity = 1

 SCF Done:  E(RB3LYP) =  -683.659919174     A.U. after    1 cycles

  Exact polarizability: 208.503 -11.931 154.151  -3.484   1.324  75.463
 Approx polarizability: 323.631 -38.992 242.516  -9.217   2.292 120.423

                      1                      2                      3
                      A                      A                      A
 Frequencies --     27.2253                33.1756                74.3499
 Red. masses --      7.7408                 5.1448                 2.0085
 Frc consts  --      0.0034                 0.0033                 0.0065
 IR Inten    --      0.1872                 0.0440                 0.3355

                      4                      5                      6
                      A                      A                      A
 Frequencies --     95.6943               116.0157               137.9702
 Red. masses --      1.9778                 2.5914                 1.4632
 Frc consts  --      0.0107                 0.0206                 0.0164
 IR Inten    --      1.1289                 0.3621                 2.2249

                      7                      8                      9
                      A                      A                      A
 Frequencies --    152.8874               165.5563               180.5652
 Red. masses --      1.2444                 1.7970                 1.8462
 Frc consts  --      0.0171                 0.0290                 0.0355
 IR Inten    --      0.7424                 0.6104                 2.5402

                     10                     11                     12
                      A                      A                      A
 Frequencies --    188.7905               195.4352               255.2574
 Red. masses --      1.9273                 2.1183                 3.6714
 Frc consts  --      0.0405                 0.0477                 0.1409
 IR Inten    --      0.1208                 1.0022                 5.9316

                     13                     14                     15
                      A                      A                      A
 Frequencies --    299.5729               319.6472               344.9273
 Red. masses --      1.6296                 2.7894                 2.6407
 Frc consts  --      0.0862                 0.1679                 0.1851
 IR Inten    --     13.4302                 1.5996                 1.5315

                     16                     17                     18
                      A                      A                      A
 Frequencies --    360.4209               367.8549               380.7888
 Red. masses --      3.7416                 3.9997                 2.4932
 Frc consts  --      0.2864                 0.3189                 0.2130
 IR Inten    --      2.7038                 3.2349                 5.7428

                     19                     20                     21
                      A                      A                      A
 Frequencies --    397.4443               418.9110               459.1273
 Red. masses --      3.2084                 2.1212                 5.1797
 Frc consts  --      0.2986                 0.2193                 0.6433
 IR Inten    --      1.4130                 8.8700                 0.5851

                     22                     23                     24
                      A                      A                      A
 Frequencies --    484.5852               521.5435               549.3649
 Red. masses --      5.8246                11.9445                 6.7397
 Frc consts  --      0.8059                 1.9142                 1.1984
 IR Inten    --      0.7196                 2.0942                11.4671

                     25                     26                     27
                      A                      A                      A
 Frequencies --    580.4032               604.2597               630.2303
 Red. masses --      4.1181                 2.9691                 2.6883
 Frc consts  --      0.8173                 0.6387                 0.6291
 IR Inten    --      7.9161                45.8859                 4.7674

                     28                     29                     30
                      A                      A                      A
 Frequencies --    637.4125               668.7018               705.7313
 Red. masses --      2.3461                 4.7128                 3.9007
 Frc consts  --      0.5616                 1.2416                 1.1446
 IR Inten    --    187.5603                12.8363                83.7613

                     31                     32                     33
                      A                      A                      A
 Frequencies --    748.4755               801.0597               855.5988
 Red. masses --      5.4075                 7.1380                 3.0971
 Frc consts  --      1.7848                 2.6987                 1.3358
 IR Inten    --     17.3673                 2.8073                 2.6033

                     34                     35                     36
                      A                      A                      A
 Frequencies --    870.2375              1007.3256              1035.2608
 Red. masses --      2.5877                 1.4709                 1.6917
 Frc consts  --      1.1546                 0.8794                 1.0682
 IR Inten    --      2.4193                 0.8065                 1.8644

                     37                     38                     39
                      A                      A                      A
 Frequencies --   1046.5254              1054.2636              1069.0065
 Red. masses --      1.3927                 1.9394                 1.4802
 Frc consts  --      0.8987                 1.2700                 0.9966
 IR Inten    --      1.8460                19.9321                 0.7828

                     40                     41                     42
                      A                      A                      A
 Frequencies --   1072.5059              1081.6890              1100.1007
 Red. masses --      1.4676                 1.5554                 2.6672
 Frc consts  --      0.9946                 1.0723                 1.9018
 IR Inten    --      0.6045                 1.5897                15.1973

                     43                     44                     45
                      A                      A                      A
 Frequencies --   1113.9773              1147.4916              1203.8355
 Red. masses --      2.1444                 3.6771                 1.6869
 Frc consts  --      1.5678                 2.8527                 1.4404
 IR Inten    --      3.0306                33.0184                 0.9621

                     46                     47                     48
                      A                      A                      A
 Frequencies --   1214.8035              1295.3983              1360.6312
 Red. masses --     11.3979                 4.8667                 5.2189
 Frc consts  --      9.9103                 4.8116                 5.6926
 IR Inten    --    112.8298                 3.4578                18.1872

                     49                     50                     51
                      A                      A                      A
 Frequencies --   1367.7372              1433.3119              1436.9463
 Red. masses --      8.3520                 1.2462                 1.3341
 Frc consts  --      9.2055                 1.5085                 1.6231
 IR Inten    --     12.2079                 0.1844                 4.9708

                     52                     53                     54
                      A                      A                      A
 Frequencies --   1439.1008              1449.4459              1471.0848
 Red. masses --      1.2587                 1.2004                 3.1886
 Frc consts  --      1.5359                 1.4859                 4.0656
 IR Inten    --      0.2308                 0.7916                25.7847

                     55                     56                     57
                      A                      A                      A
 Frequencies --   1485.8080              1511.6437              1516.0215
 Red. masses --      3.2199                 1.0939                 1.0996
 Frc consts  --      4.1881                 1.4727                 1.4890
 IR Inten    --     20.8095                 5.6607                14.1085

                     58                     59                     60
                      A                      A                      A
 Frequencies --   1519.8513              1527.0070              1532.0085
 Red. masses --      1.1001                 1.0463                 1.0761
 Frc consts  --      1.4972                 1.4374                 1.4881
 IR Inten    --      0.6848                 6.4910                 6.2144

                     61                     62                     63
                      A                      A                      A
 Frequencies --   1537.4063              1542.5321              1554.8349
 Red. masses --      1.2140                 1.1469                 1.0816
 Frc consts  --      1.6907                 1.6079                 1.5406
 IR Inten    --     22.5887                 9.7737                12.1143

                     64                     65                     66
                      A                      A                      A
 Frequencies --   1633.9889              1654.5690              1702.8502
 Red. masses --      5.4105                 6.0629                 1.1863
 Frc consts  --      8.5111                 9.7792                 2.0268
 IR Inten    --      3.9910                19.2892                99.3648

                     67                     68                     69
                      A                      A                      A
 Frequencies --   2179.0494              3014.1648              3023.0923
 Red. masses --     13.9926                 1.0538                 1.0473
 Frc consts  --     39.1456                 5.6407                 5.6392
 IR Inten    --    566.0034                40.6131                38.7103

                     70                     71                     72
                      A                      A                      A
 Frequencies --   3043.3032              3044.2331              3071.1724
 Red. masses --      1.0466                 1.0481                 1.0963
 Frc consts  --      5.7113                 5.7228                 6.0925
 IR Inten    --     19.7247                38.5682                21.9656

                     73                     74                     75
                      A                      A                      A
 Frequencies --   3075.8283              3099.2547              3101.5593
 Red. masses --      1.0893                 1.0946                 1.0953
 Frc consts  --      6.0716                 6.1945                 6.2082
 IR Inten    --     20.3260                33.8260                 4.7730

                     76                     77                     78
                      A                      A                      A
 Frequencies --   3158.6081              3162.7015              3166.5809
 Red. masses --      1.0949                 1.0947                 1.0933
 Frc consts  --      6.4359                 6.4516                 6.4590
 IR Inten    --     17.6346                15.4994                 7.9706

                     79                     80                     81
                      A                      A                      A
 Frequencies --   3175.8055              3563.6230              3658.7954
 Red. masses --      1.0934                 1.0480                 1.0973
 Frc consts  --      6.4975                 7.8413                 8.6547
 IR Inten    --      4.2090                 8.1868                10.4105

 - Thermochemistry -
 -------------------
 Temperature   298.150 Kelvin.  Pressure   1.00000 Atm.
 Atom     1 has atomic number  6 and mass  12.00000

 Molecular mass:   206.11676 amu.
 Principal axes and moments of inertia in atomic units:
                           1         2         3
     Eigenvalues --  1856.102474237.476615860.35369
           X            0.99995   0.00454  -0.00908
           Y           -0.00451   0.99999   0.00253
           Z            0.00909  -0.00249   0.99996
 This molecule is an asymmetric top.
 Rotational symmetry number  1.
 Warning -- assumption of classical behavior for rotation
           may cause significant error
 Rotational temperatures (Kelvin)      0.04666     0.02044     0.01478
 Rotational constants (GHZ):           0.97233     0.42590     0.30796
 Zero-point vibrational energy     617787.2 (Joules/Mol)
                                  147.65469 (Kcal/Mol)
 Warning -- explicit consideration of  26 degrees of freedom as
           vibrations may cause significant error
 Vibrational temperatures:     39.17    47.73   106.97   137.68   166.92
          (Kelvin)            198.51   219.97   238.20   259.79   271.63
                              281.19   367.26   431.02   459.90   496.27
                              518.57   529.26   547.87   571.83   602.72
                              660.58   697.21   750.38   790.41   835.07
                              869.39   906.76   917.09   962.11  1015.39
                             1076.89  1152.55  1231.02  1252.08  1449.32
                             1489.51  1505.72  1516.85  1538.06  1543.10
                             1556.31  1582.80  1602.76  1650.98  1732.05
                             1747.83  1863.79  1957.64  1967.87  2062.22
                             2067.45  2070.55  2085.43  2116.56  2137.75
                             2174.92  2181.22  2186.73  2197.02  2204.22
                             2211.98  2219.36  2237.06  2350.95  2380.56
                             2450.02  3135.17  4336.71  4349.56  4378.63
                             4379.97  4418.73  4425.43  4459.14  4462.45
                             4544.53  4550.42  4556.00  4569.28  5127.26
                             5264.19

 Zero-point correction=                           0.235303 (Hartree/Particle)
 Thermal correction to Energy=                    0.251523
 Thermal correction to Enthalpy=                  0.252467
 Thermal correction to Gibbs Free Energy=         0.191322
 Sum of electronic and zero-point Energies=           -683.424616
 Sum of electronic and thermal Energies=              -683.408396
 Sum of electronic and thermal Enthalpies=            -683.407452
 Sum of electronic and thermal Free Energies=         -683.468597

                     E (Thermal)             CV                S
                      KCal/Mol        Cal/Mol-Kelvin    Cal/Mol-Kelvin
 Total                  157.833             59.447            128.690
 Electronic               0.000              0.000              0.000
 Translational            0.889              2.981             41.874
 Rotational               0.889              2.981             32.200
 Vibrational            156.056             53.485             54.617
 Vibration     1          0.593              1.984              6.022
 Vibration     2          0.594              1.983              5.630
 Vibration     3          0.599              1.966              4.035
 Vibration     4          0.603              1.952              3.540
 Vibration     5          0.608              1.936              3.166
 Vibration     6          0.614              1.915              2.832
 Vibration     7          0.619              1.899              2.636
 Vibration     8          0.624              1.885              2.485
 Vibration     9          0.630              1.866              2.323
 Vibration    10          0.633              1.855              2.240
 Vibration    11          0.636              1.846              2.176
 Vibration    12          0.666              1.754              1.694
 Vibration    13          0.692              1.674              1.419
 Vibration    14          0.706              1.636              1.312
 Vibration    15          0.723              1.586              1.189
 Vibration    16          0.735              1.554              1.120
 Vibration    17          0.740              1.538              1.089
 Vibration    18          0.751              1.511              1.036
 Vibration    19          0.764              1.476              0.972
 Vibration    20          0.782              1.429              0.896
 Vibration    21          0.817              1.341              0.769
 Vibration    22          0.841              1.284              0.698
 Vibration    23          0.877              1.202              0.606
 Vibration    24          0.905              1.141              0.545
 Vibration    25          0.937              1.074              0.485
 Vibration    26          0.963              1.023              0.442

                           ! Non-Optimized Parameters !
 Normal termination of Gaussian 16 at Thu Dec 10 16:40:13 2020.

 ----------------------------------------------------------------------
 # B3LYP/6-311++G(d,p) empiricaldispersion=gd3bj scf=xqc pop=npa geom=c
 heck
 ----------------------------------------------------------------------

 ---------------------------------------
 CID_151352401_JID_5513_Energie_neutraal
 ---------------------------------------
 Structure from the checkpoint file:  "JID_5513.chk"
 Charge =  0 Multiplicity = 1

 SCF Done:  E(RB3LYP) =  -683.848461343     A.U. after   19 cycles
 Normal termination of Gaussian 16 at Thu Dec 10 16:44:59 2020.

 ----------------------------------------------------------------------
 # B3LYP/6-311++G(d,p) empiricaldispersion=gd3bj scf=xqc pop=npa geom=c
 heck
 ----------------------------------------------------------------------

 -------------------------------------
 CID_151352401_JID_5513_Energie_kation
 -------------------------------------
 Structure from the checkpoint file:  "JID_5513.chk"
 Charge =  1 Multiplicity = 2

 SCF Done:  E(UB3LYP) =  -683.576809491     A.U. after   27 cycles
 Normal termination of Gaussian 16 at Thu Dec 10 16:53:27 2020.
 Gaussian 16:  ES64L-G16RevA.03 25-Dec-2016

 ----------------------------------------------------------------------
 # B3LYP/6-311++G(d,p) empiricaldispersion=gd3bj scf=xqc pop=npa geom=c
 heck
 ----------------------------------------------------------------------

 ------------------------------------
 CID_151352401_JID_5513_Energie_anion
 ------------------------------------
 Structure from the checkpoint file:  "JID_5513.chk"
 Charge = -1 Multiplicity = 2

                         Standard orientation:
 ---------------------------------------------------------------------
 Center     Atomic      Atomic             Coordinates (Angstroms)
 Number     Number       Type             X           Y           Z
 ---------------------------------------------------------------------
      1          6           0        1.688133    2.793506   -0.106201
      2          6           0        1.229409    1.356043    0.023011
      3          6           0        2.165355    0.313950   -0.101296
      4          6           0        1.740304   -1.028320   -0.030580
      5          6           0        0.389376   -1.343093    0.196820
      6          6           0       -0.502312   -0.279231    0.346884
      7          6           0       -0.126837    1.068063    0.262519
      8          6           0       -1.164021    2.151933    0.439286
      9          8           0       -1.829845   -0.589344    0.639820
     10          7           0       -2.594344   -0.692773   -0.630883
     11          7           0       -3.663094   -0.078142   -0.441710
     12          7           0       -4.682821    0.435207   -0.374805
     13          6           0       -0.062558   -2.776262    0.285931
     14          7           0        2.681022   -2.063289   -0.129783
     15          6           0        3.639048    0.578647   -0.299350
     16          1           0        2.274824    3.114323    0.764931
     17          1           0        0.847292    3.481182   -0.202340
     18          1           0        2.320926    2.933006   -0.989003
     19          1           0       -1.408698    2.645767   -0.510403
     20          1           0       -2.088038    1.738814    0.845971
     21          1           0       -0.822022    2.929081    1.130514
     22          1           0        0.087420   -3.306676   -0.665806
     23          1           0        0.499310   -3.321136    1.055784
     24          1           0       -1.122615   -2.834303    0.531716
     25          1           0        3.491298   -1.845807   -0.695079
     26          1           0        2.289606   -2.958281   -0.392769
     27          1           0        4.235903   -0.026078    0.394730
     28          1           0        3.971163    0.323261   -1.317630
     29          1           0        3.901668    1.623164   -0.131054
 ---------------------------------------------------------------------

 SCF Done:  E(UB3LYP) =  -683.867147888     A.U. after   30 cycles

 The electronic state is 2-A.
 Alpha  occ. eigenvalues --  -18.99098 -14.26047 -14.21209 -14.20852 -14.17672
 Alpha  occ. eigenvalues --  -10.08861 -10.08297 -10.06713 -10.06361 -10.06048
 Alpha  occ. eigenvalues --  -10.05425 -10.04911 -10.04756 -10.04629 -10.04169
 Alpha  occ. eigenvalues --   -0.95999  -0.89231  -0.81374  -0.76043  -0.72316
 Alpha  occ. eigenvalues --   -0.66598  -0.65273  -0.61418  -0.58878  -0.54725
 Alpha  occ. eigenvalues --   -0.53441  -0.46098  -0.45511  -0.42382  -0.40441
 Alpha  occ. eigenvalues --   -0.36746  -0.35521  -0.33783  -0.33022  -0.32804
 Alpha  occ. eigenvalues --   -0.32236  -0.30911  -0.30419  -0.29928  -0.28925
 Alpha  occ. eigenvalues --   -0.28843  -0.28458  -0.27341  -0.27036  -0.26846
 Alpha  occ. eigenvalues --   -0.25070  -0.24135  -0.22644  -0.21985  -0.19646
 Alpha  occ. eigenvalues --   -0.17482  -0.14290  -0.10797  -0.08754  -0.06679
 Alpha  occ. eigenvalues --    0.04157
 Alpha virt. eigenvalues --    0.05993   0.07461   0.08601   0.09653   0.10150
 Alpha virt. eigenvalues --    0.11087   0.11131   0.11639   0.12300   0.12703
 Alpha virt. eigenvalues --    0.12977   0.13222   0.14235   0.14414   0.15414

  Beta  occ. eigenvalues --  -18.98649 -14.25658 -14.21196 -14.20729 -14.16800
  Beta  occ. eigenvalues --  -10.08874 -10.08262 -10.06705 -10.06355 -10.06058
  Beta  occ. eigenvalues --  -10.05372 -10.04902 -10.04713 -10.04609 -10.04167
  Beta  occ. eigenvalues --   -0.94964  -0.88240  -0.81338  -0.75310  -0.72129
  Beta  occ. eigenvalues --   -0.66457  -0.65201  -0.61387  -0.58855  -0.54604
  Beta  occ. eigenvalues --   -0.53356  -0.45790  -0.45478  -0.42034  -0.39918
  Beta  occ. eigenvalues --   -0.36480  -0.35277  -0.33575  -0.32704  -0.32389
  Beta  occ. eigenvalues --   -0.31370  -0.30821  -0.30262  -0.29811  -0.28882
  Beta  occ. eigenvalues --   -0.28802  -0.28364  -0.26947  -0.26310  -0.25397
  Beta  occ. eigenvalues --   -0.24861  -0.24082  -0.22583  -0.21682  -0.18895
  Beta  occ. eigenvalues --   -0.16709  -0.13701  -0.10408  -0.08561  -0.06202
  Beta virt. eigenvalues --    0.06142   0.07475   0.08591   0.09586   0.10091
  Beta virt. eigenvalues --    0.10640   0.11040   0.11509   0.12185   0.12349
  Beta virt. eigenvalues --    0.12608   0.13058   0.13775   0.14306   0.14683

 Mulliken charges and spin densities:
               1          2
     1  C   -0.428592  -0.115855
     2  C   -0.124529  -0.033200
     3  C    0.292611   0.298261
     4  C   -0.454523  -0.054683
     5  C    0.914621   0.384948
     6  C   -1.407927   0.154551
     7  C    0.466007  -0.203462
     8  C   -0.641667  -0.035673
     9  O    0.015784   0.045197
    10  N   -0.577583   0.172382
    11  N    0.436393   0.082043
    12  N   -0.437120   0.414945
    13  C   -0.294300  -0.243967
    14  N   -0.302286   0.007919
    15  C    0.022325  -0.656598
    16  H    0.111823   0.037766
    17  H    0.148765   0.008647
    18  H    0.106193   0.026191
    19  H    0.142977   0.009823
    20  H    0.217167  -0.016303
    21  H    0.096431   0.012591
    22  H    0.087453   0.043967
    23  H    0.052134   0.082099
    24  H    0.172992   0.026401
    25  H    0.080038   0.155591
    26  H    0.154177   0.092872
    27  H    0.077611   0.066229
    28  H   -0.049458   0.206993
    29  H    0.122483   0.030325
 Sum of Mulliken charges =  -1.00000   1.00000

 Dipole moment (field-independent basis, Debye):
    X=              8.1917    Y=              0.8925    Z=              0.2716  Tot=              8.2447
 Quadrupole moment (field-independent basis, Debye-Ang):
   XX=           -160.3004   YY=           -102.3285   ZZ=           -103.0219
   XY=              3.6799   XZ=             -3.7966   YZ=              1.6662

 Summary of Natural Population Analysis:

                                       Natural Population
                Natural  -----------------------------------------------
    Atom  No    Charge         Core      Valence    Rydberg      Total
 -----------------------------------------------------------------------
      C    1   -0.29538      0.99964     2.29103    0.00471     3.29538
      C    2   -0.01499      0.99946     2.00817    0.00735     3.01499
      C    3   -0.03810      0.99945     2.02965    0.00900     3.03810
      C    4    0.08127      0.99942     1.90822    0.01109     2.91873
      C    5   -0.03985      0.99942     2.03232    0.00811     3.03985
      C    6    0.17622      0.99928     1.81073    0.01377     2.82378
      C    7   -0.03664      0.99942     2.02895    0.00826     3.03664
      C    8   -0.29727      0.99964     2.29230    0.00533     3.29727
      O    9   -0.20759      0.99987     3.19922    0.00850     4.20759
      N   10   -0.09206      0.99973     2.57744    0.01489     3.59206
      N   11    0.11416      0.99972     2.36996    0.01615     3.38584
      N   12    0.06130      0.99982     2.42535    0.01354     3.43870
      C   13   -0.29972      0.99964     2.29476    0.00532     3.29972
      N   14   -0.40604      0.99972     2.89593    0.01039     3.90604
      C   15   -0.29865      0.99965     2.29429    0.00472     3.29865
      H   16    0.09800      0.00000     0.40065    0.00135     0.40200
      H   17    0.10414      0.00000     0.39502    0.00084     0.39586
      H   18    0.09887      0.00000     0.40001    0.00112     0.40113
      H   19    0.09999      0.00000     0.39866    0.00135     0.40001
      H   20    0.11815      0.00000     0.38052    0.00134     0.38185
      H   21    0.09286      0.00000     0.40579    0.00135     0.40714
      H   22    0.09478      0.00000     0.40351    0.00171     0.40522
      H   23    0.09570      0.00000     0.40284    0.00145     0.40430
      H   24    0.12157      0.00000     0.37708    0.00134     0.37843
      H   25    0.18294      0.00000     0.31558    0.00148     0.31706
      H   26    0.18490      0.00000     0.31362    0.00148     0.31510
      H   27    0.10139      0.00000     0.39717    0.00144     0.39861
      H   28    0.09692      0.00000     0.40111    0.00196     0.40308
      H   29    0.10312      0.00000     0.39604    0.00084     0.39688
 =======================================================================
   * Total *   -0.00000     14.99387    39.84595    0.16018    55.00000

 Normal termination of Gaussian 16 at Thu Dec 10 17:02:28 2020.
