 Gaussian 16, Revision A.03,

 -----------------------------------------------------------
 # opt freq B3LYP/6-31G(d) empiricaldispersion=gd3bj scf=xqc
 -----------------------------------------------------------

 ------------------------------
 CID_54142335_JID_2517_neutraal
 ------------------------------
 Symbolic Z-matrix:
 Charge =  0 Multiplicity = 1

 SCF Done:  E(RB3LYP) =  -632.610073518     A.U. after   13 cycles
 SCF Done:  E(RB3LYP) =  -632.613745823     A.U. after   11 cycles
 SCF Done:  E(RB3LYP) =  -632.611146168     A.U. after   11 cycles
 SCF Done:  E(RB3LYP) =  -632.612294037     A.U. after   11 cycles
 SCF Done:  E(RB3LYP) =  -632.615138794     A.U. after    9 cycles
 SCF Done:  E(RB3LYP) =  -632.614592614     A.U. after   11 cycles
 SCF Done:  E(RB3LYP) =  -632.615098672     A.U. after   11 cycles
 SCF Done:  E(RB3LYP) =  -632.615779166     A.U. after    8 cycles
 SCF Done:  E(RB3LYP) =  -632.616143290     A.U. after   11 cycles
 SCF Done:  E(RB3LYP) =  -632.616202532     A.U. after   11 cycles
 SCF Done:  E(RB3LYP) =  -632.616288525     A.U. after   10 cycles
 SCF Done:  E(RB3LYP) =  -632.616304392     A.U. after    8 cycles
 SCF Done:  E(RB3LYP) =  -632.616314743     A.U. after    9 cycles
 SCF Done:  E(RB3LYP) =  -632.616320761     A.U. after    9 cycles
 SCF Done:  E(RB3LYP) =  -632.616324161     A.U. after    8 cycles
 SCF Done:  E(RB3LYP) =  -632.616324561     A.U. after    7 cycles
 Optimization completed.
    -- Stationary point found.
 Normal termination of Gaussian 16 at Wed Dec  9 17:33:06 2020.

 --------------------------------------------------------------------
 #N Geom=AllCheck Guess=TCheck SCRF=Check GenChk RB3LYP/6-31G(d) Freq
 --------------------------------------------------------------------

 Structure from the checkpoint file:  "JID_2517.chk"
 ------------------------------
 CID_54142335_JID_2517_neutraal
 ------------------------------
 Charge =  0 Multiplicity = 1

 SCF Done:  E(RB3LYP) =  -632.616324561     A.U. after    1 cycles

  Exact polarizability:  98.952  -2.889  98.025  -2.746  -1.132  86.696
 Approx polarizability: 129.184  -3.080 130.340  -1.121  -3.221 127.953

                      1                      2                      3
                      A                      A                      A
 Frequencies --     68.0153                86.8216               102.0526
 Red. masses --      2.9080                 3.0812                 4.0162
 Frc consts  --      0.0079                 0.0137                 0.0246
 IR Inten    --      2.9496                 2.2332                 1.4384

                      4                      5                      6
                      A                      A                      A
 Frequencies --    137.5164               152.8475               173.4591
 Red. masses --      4.0907                 5.3322                 1.7369
 Frc consts  --      0.0456                 0.0734                 0.0308
 IR Inten    --      1.0656                 5.5829                 2.4945

                      7                      8                      9
                      A                      A                      A
 Frequencies --    183.4892               202.4756               232.3937
 Red. masses --      2.4155                 1.8560                 1.1645
 Frc consts  --      0.0479                 0.0448                 0.0371
 IR Inten    --     10.7845                 9.4824                50.5031

                     10                     11                     12
                      A                      A                      A
 Frequencies --    234.4689               245.8231               263.2330
 Red. masses --      1.7642                 1.9571                 1.2698
 Frc consts  --      0.0571                 0.0697                 0.0518
 IR Inten    --     40.1437                84.8499                16.7067

                     13                     14                     15
                      A                      A                      A
 Frequencies --    268.7662               310.9216               327.2441
 Red. masses --      2.7416                 4.0125                 4.3611
 Frc consts  --      0.1167                 0.2285                 0.2752
 IR Inten    --     20.9287                 3.8725                13.0104

                     16                     17                     18
                      A                      A                      A
 Frequencies --    337.7535               375.5087               407.8276
 Red. masses --      3.5871                 3.0487                 3.2197
 Frc consts  --      0.2411                 0.2533                 0.3155
 IR Inten    --      8.1883                 4.6839                 3.5158

                     19                     20                     21
                      A                      A                      A
 Frequencies --    469.6859               474.1796               503.1593
 Red. masses --      2.2011                 1.4463                 3.0887
 Frc consts  --      0.2861                 0.1916                 0.4607
 IR Inten    --     33.5099                21.8716                 3.8312

                     22                     23                     24
                      A                      A                      A
 Frequencies --    570.3562               645.3900               717.4542
 Red. masses --      2.7036                 1.1882                 2.2678
 Frc consts  --      0.5182                 0.2916                 0.6878
 IR Inten    --     21.2815               190.5716                54.9997

                     25                     26                     27
                      A                      A                      A
 Frequencies --    760.0213               779.7216               806.9551
 Red. masses --      3.9162                 1.8361                 3.6997
 Frc consts  --      1.3328                 0.6577                 1.4194
 IR Inten    --      4.8524                66.4953                32.4172

                     28                     29                     30
                      A                      A                      A
 Frequencies --    863.4744               911.3661               954.9661
 Red. masses --      2.9782                 2.2600                 1.8938
 Frc consts  --      1.3083                 1.1060                 1.0175
 IR Inten    --      9.6462                12.5020                 1.5436

                     31                     32                     33
                      A                      A                      A
 Frequencies --    983.8834              1004.4629              1033.5916
 Red. masses --      2.3466                 1.9238                 1.8100
 Frc consts  --      1.3384                 1.1436                 1.1393
 IR Inten    --     27.3001                19.8791                 4.0588

                     34                     35                     36
                      A                      A                      A
 Frequencies --   1061.4083              1072.4292              1111.6416
 Red. masses --      3.0303                 3.4186                 2.7512
 Frc consts  --      2.0114                 2.3165                 2.0031
 IR Inten    --     25.3953                59.1002                59.7833

                     37                     38                     39
                      A                      A                      A
 Frequencies --   1120.4628              1146.3612              1150.5176
 Red. masses --      2.1968                 2.9886                 1.8099
 Frc consts  --      1.6250                 2.3140                 1.4115
 IR Inten    --     71.0250                26.6164                64.7592

                     40                     41                     42
                      A                      A                      A
 Frequencies --   1170.6351              1182.7082              1206.1107
 Red. masses --      1.4703                 3.0019                 1.3037
 Frc consts  --      1.1871                 2.4740                 1.1174
 IR Inten    --     26.9880                28.3312                57.8666

                     43                     44                     45
                      A                      A                      A
 Frequencies --   1219.9581              1244.3572              1260.0074
 Red. masses --      1.4468                 1.1669                 1.2053
 Frc consts  --      1.2687                 1.0646                 1.1275
 IR Inten    --     18.0119                14.6611                50.6364

                     46                     47                     48
                      A                      A                      A
 Frequencies --   1313.7673              1315.1548              1352.9592
 Red. masses --      1.2172                 1.2931                 1.3979
 Frc consts  --      1.2378                 1.3178                 1.5076
 IR Inten    --     13.5401                 5.9015                14.7873

                     49                     50                     51
                      A                      A                      A
 Frequencies --   1362.6723              1379.9266              1410.8426
 Red. masses --      1.3096                 1.3804                 1.3183
 Frc consts  --      1.4328                 1.5487                 1.5461
 IR Inten    --     13.9937                19.3405                 2.7141

                     52                     53                     54
                      A                      A                      A
 Frequencies --   1421.8052              1437.7105              1439.6508
 Red. masses --      1.2594                 1.3329                 1.3376
 Frc consts  --      1.5000                 1.6233                 1.6334
 IR Inten    --     14.4211                15.0620                25.2221

                     55                     56                     57
                      A                      A                      A
 Frequencies --   1451.1289              1463.0345              1478.6871
 Red. masses --      1.3830                 1.3352                 1.2066
 Frc consts  --      1.7159                 1.6838                 1.5544
 IR Inten    --     22.8072                15.7188                37.5129

                     58                     59                     60
                      A                      A                      A
 Frequencies --   1488.3661              1518.0069              1523.3977
 Red. masses --      1.1727                 1.0598                 1.0623
 Frc consts  --      1.5306                 1.4388                 1.4526
 IR Inten    --     23.2553                 9.0376                 2.8010

                     61                     62                     63
                      A                      A                      A
 Frequencies --   1532.8401              1538.7675              1550.8066
 Red. masses --      1.0651                 1.1350                 1.0699
 Frc consts  --      1.4745                 1.5833                 1.5161
 IR Inten    --      5.3972                 6.6825                 2.9258

                     64                     65                     66
                      A                      A                      A
 Frequencies --   1566.9261              3000.5076              3019.2525
 Red. masses --      1.0967                 1.0478                 1.0848
 Frc consts  --      1.5865                 5.5580                 5.8261
 IR Inten    --     21.2417                69.7145                37.2138

                     67                     68                     69
                      A                      A                      A
 Frequencies --   3043.5172              3048.5207              3054.1145
 Red. masses --      1.0629                 1.0585                 1.0585
 Frc consts  --      5.8011                 5.7959                 5.8170
 IR Inten    --     15.3523                21.8723                37.0134

                     70                     71                     72
                      A                      A                      A
 Frequencies --   3070.4237              3081.6774              3106.8320
 Red. masses --      1.0873                 1.0859                 1.1003
 Frc consts  --      6.0396                 6.0759                 6.2573
 IR Inten    --     51.4521                36.8734                34.6179

                     73                     74                     75
                      A                      A                      A
 Frequencies --   3109.5091              3110.8173              3113.5651
 Red. masses --      1.1018                 1.0987                 1.0948
 Frc consts  --      6.2768                 6.2644                 6.2532
 IR Inten    --     38.1450                16.5999                30.1034

                     76                     77                     78
                      A                      A                      A
 Frequencies --   3132.4356              3556.7602              3664.5090
 Red. masses --      1.1013                 1.0735                 1.0649
 Frc consts  --      6.3667                 8.0012                 8.4256
 IR Inten    --     29.6773                30.3463                53.5189

                     79                     80                     81
                      A                      A                      A
 Frequencies --   3678.8901              3753.2794              3770.1777
 Red. masses --      1.0649                 1.0664                 1.0668
 Frc consts  --      8.4919                 8.8510                 8.9342
 IR Inten    --     84.6965                13.3323                27.5768

 - Thermochemistry -
 -------------------
 Temperature   298.150 Kelvin.  Pressure   1.00000 Atm.
 Atom     1 has atomic number  6 and mass  12.00000

 Molecular mass:   179.11576 amu.
 Principal axes and moments of inertia in atomic units:
                           1         2         3
     Eigenvalues --  1777.354722270.762392851.57747
           X            0.99812  -0.05220  -0.03208
           Y            0.05209   0.99863  -0.00414
           Z            0.03225   0.00246   0.99948
 This molecule is an asymmetric top.
 Rotational symmetry number  1.
 Warning -- assumption of classical behavior for rotation
           may cause significant error
 Rotational temperatures (Kelvin)      0.04873     0.03814     0.03037
 Rotational constants (GHZ):           1.01541     0.79477     0.63289
 Zero-point vibrational energy     672284.1 (Joules/Mol)
                                  160.67975 (Kcal/Mol)
 Warning -- explicit consideration of  22 degrees of freedom as
           vibrations may cause significant error
 Vibrational temperatures:     97.86   124.92   146.83   197.86   219.91
          (Kelvin)            249.57   264.00   291.32   334.36   337.35
                              353.68   378.73   386.69   447.35   470.83
                              485.95   540.27   586.77   675.77   682.24
                              723.93   820.62   928.57  1032.26  1093.50
                             1121.85  1161.03  1242.35  1311.25  1373.98
                             1415.59  1445.20  1487.11  1527.13  1542.99
                             1599.40  1612.10  1649.36  1655.34  1684.28
                             1701.65  1735.32  1755.25  1790.35  1812.87
                             1890.22  1892.21  1946.61  1960.58  1985.41
                             2029.89  2045.66  2068.54  2071.34  2087.85
                             2104.98  2127.50  2141.43  2184.07  2191.83
                             2205.41  2213.94  2231.26  2254.46  4317.06
                             4344.03  4378.94  4386.14  4394.19  4417.65
                             4433.85  4470.04  4473.89  4475.77  4479.73
                             4506.88  5117.38  5272.41  5293.10  5400.13
                             5424.44

 Zero-point correction=                           0.256059 (Hartree/Particle)
 Thermal correction to Energy=                    0.270489
 Thermal correction to Enthalpy=                  0.271433
 Thermal correction to Gibbs Free Energy=         0.216326
 Sum of electronic and zero-point Energies=           -632.360265
 Sum of electronic and thermal Energies=              -632.345835
 Sum of electronic and thermal Enthalpies=            -632.344891
 Sum of electronic and thermal Free Energies=         -632.399998

                     E (Thermal)             CV                S
                      KCal/Mol        Cal/Mol-Kelvin    Cal/Mol-Kelvin
 Total                  169.734             53.779            115.982
 Electronic               0.000              0.000              0.000
 Translational            0.889              2.981             41.455
 Rotational               0.889              2.981             30.821
 Vibrational            167.957             47.817             43.706
 Vibration     1          0.598              1.969              4.210
 Vibration     2          0.601              1.958              3.730
 Vibration     3          0.604              1.948              3.415
 Vibration     4          0.614              1.916              2.838
 Vibration     5          0.619              1.900              2.636
 Vibration     6          0.627              1.875              2.398
 Vibration     7          0.631              1.862              2.293
 Vibration     8          0.639              1.836              2.110
 Vibration     9          0.653              1.791              1.860
 Vibration    10          0.654              1.788              1.844
 Vibration    11          0.660              1.770              1.760
 Vibration    12          0.670              1.740              1.640
 Vibration    13          0.673              1.731              1.604
 Vibration    14          0.700              1.653              1.357
 Vibration    15          0.711              1.621              1.274
 Vibration    16          0.718              1.600              1.223
 Vibration    17          0.746              1.522              1.057
 Vibration    18          0.772              1.453              0.934
 Vibration    19          0.827              1.317              0.738
 Vibration    20          0.831              1.307              0.726
 Vibration    21          0.858              1.243              0.650
 Vibration    22          0.926              1.095              0.504

                           ! Non-Optimized Parameters !
 Normal termination of Gaussian 16 at Wed Dec  9 17:40:51 2020.

 ----------------------------------------------------------------------
 # B3LYP/6-311++G(d,p) empiricaldispersion=gd3bj scf=xqc pop=npa geom=c
 heck
 ----------------------------------------------------------------------

 --------------------------------------
 CID_54142335_JID_2517_Energie_neutraal
 --------------------------------------
 Structure from the checkpoint file:  "JID_2517.chk"
 Charge =  0 Multiplicity = 1

 SCF Done:  E(RB3LYP) =  -632.843851690     A.U. after   13 cycles
 Normal termination of Gaussian 16 at Wed Dec  9 17:45:17 2020.

 ----------------------------------------------------------------------
 # B3LYP/6-311++G(d,p) empiricaldispersion=gd3bj scf=xqc pop=npa geom=c
 heck
 ----------------------------------------------------------------------

 ------------------------------------
 CID_54142335_JID_2517_Energie_kation
 ------------------------------------
 Structure from the checkpoint file:  "JID_2517.chk"
 Charge =  1 Multiplicity = 2

 SCF Done:  E(UB3LYP) =  -632.544888721     A.U. after   22 cycles
 Normal termination of Gaussian 16 at Wed Dec  9 17:52:18 2020.
 Gaussian 16:  ES64L-G16RevA.03 25-Dec-2016

 ----------------------------------------------------------------------
 # B3LYP/6-311++G(d,p) empiricaldispersion=gd3bj scf=xqc pop=npa geom=c
 heck
 ----------------------------------------------------------------------

 -----------------------------------
 CID_54142335_JID_2517_Energie_anion
 -----------------------------------
 Structure from the checkpoint file:  "JID_2517.chk"
 Charge = -1 Multiplicity = 2

                         Standard orientation:
 ---------------------------------------------------------------------
 Center     Atomic      Atomic             Coordinates (Angstroms)
 Number     Number       Type             X           Y           Z
 ---------------------------------------------------------------------
      1          6           0        2.623913   -1.437751   -0.677936
      2          6           0        2.062723   -0.363629    0.255443
      3          6           0        0.979334    0.520724   -0.388740
      4          6           0       -0.237840   -0.260535   -0.950358
      5          6           0       -1.025803   -1.216238   -0.020559
      6          6           0       -1.550796   -0.597532    1.273600
      7          8           0       -2.200450    0.658604    0.975355
      8          8           0       -2.090511   -1.772814   -0.782046
      9          8           0       -1.171668    0.632754   -1.575487
     10          7           0        0.662014    1.646957    0.494099
     11          6           0        0.559487    2.940126   -0.177601
     12          8           0        1.521657   -0.958151    1.442097
     13          1           0        1.861040   -2.178222   -0.937552
     14          1           0        3.453194   -1.969456   -0.195146
     15          1           0        3.009543   -0.995420   -1.603838
     16          1           0        2.867649    0.329953    0.537906
     17          1           0        1.458197    0.950852   -1.277907
     18          1           0        0.123436   -0.888394   -1.771096
     19          1           0       -0.373357   -2.040965    0.278351
     20          1           0       -2.273208   -1.298597    1.708193
     21          1           0       -0.722276   -0.442833    1.972641
     22          1           0       -2.690210    0.949932    1.757912
     23          1           0       -2.391573   -1.039934   -1.349855
     24          1           0       -1.614036    1.104771   -0.846171
     25          1           0       -0.192761    1.468157    1.010327
     26          1           0       -0.162883    2.975021   -1.008556
     27          1           0        0.279800    3.700714    0.559685
     28          1           0        1.540370    3.221503   -0.579590
     29          1           0        2.254643   -1.369902    1.923568
 ---------------------------------------------------------------------

 SCF Done:  E(UB3LYP) =  -632.834539896     A.U. after   24 cycles

 The electronic state is 2-A.
 Alpha  occ. eigenvalues --  -19.02956 -19.02029 -19.01551 -19.01137 -14.18595
 Alpha  occ. eigenvalues --  -10.12151 -10.11722 -10.11486 -10.10732 -10.09827
 Alpha  occ. eigenvalues --  -10.08308 -10.06095  -0.94385  -0.91908  -0.91803
 Alpha  occ. eigenvalues --   -0.90427  -0.79603  -0.67897  -0.64766  -0.60614
 Alpha  occ. eigenvalues --   -0.56948  -0.53630  -0.50140  -0.47099  -0.44084
 Alpha  occ. eigenvalues --   -0.42651  -0.39477  -0.38861  -0.37056  -0.35612
 Alpha  occ. eigenvalues --   -0.34867  -0.34178  -0.32199  -0.31975  -0.31500
 Alpha  occ. eigenvalues --   -0.29870  -0.29348  -0.28519  -0.27559  -0.26357
 Alpha  occ. eigenvalues --   -0.25627  -0.23456  -0.23157  -0.21228  -0.19290
 Alpha  occ. eigenvalues --   -0.18712  -0.17436  -0.16481  -0.11662   0.04262
 Alpha virt. eigenvalues --    0.05977   0.07694   0.08427   0.09572   0.09844
 Alpha virt. eigenvalues --    0.10532   0.10746   0.11262   0.12340   0.12923
 Alpha virt. eigenvalues --    0.13298   0.13428   0.13873   0.15402   0.15985

  Beta  occ. eigenvalues --  -19.02892 -19.02021 -19.01512 -19.01132 -14.18584
  Beta  occ. eigenvalues --  -10.12144 -10.11707 -10.11485 -10.10707 -10.09823
  Beta  occ. eigenvalues --  -10.08295 -10.06057  -0.94345  -0.91805  -0.91709
  Beta  occ. eigenvalues --   -0.90413  -0.79583  -0.67856  -0.64707  -0.60557
  Beta  occ. eigenvalues --   -0.56899  -0.53569  -0.50088  -0.47053  -0.44011
  Beta  occ. eigenvalues --   -0.42573  -0.39413  -0.38821  -0.37024  -0.35574
  Beta  occ. eigenvalues --   -0.34837  -0.34147  -0.32170  -0.31929  -0.31479
  Beta  occ. eigenvalues --   -0.29833  -0.29307  -0.28490  -0.27517  -0.26327
  Beta  occ. eigenvalues --   -0.25588  -0.23433  -0.23118  -0.21202  -0.19264
  Beta  occ. eigenvalues --   -0.18669  -0.17389  -0.16455  -0.11646
  Beta virt. eigenvalues --    0.06847   0.07679   0.08178   0.08885   0.10163
  Beta virt. eigenvalues --    0.10249   0.10670   0.11139   0.11459   0.12568
  Beta virt. eigenvalues --    0.13181   0.13442   0.13697   0.14303   0.15437

 Mulliken charges and spin densities:
               1          2
     1  C    0.794734  -1.368736
     2  C   -0.086270   0.089521
     3  C   -1.264869   0.749379
     4  C    1.453147  -1.765349
     5  C   -1.743566   1.253260
     6  C    1.188330  -1.488133
     7  O   -0.402415   0.059532
     8  O   -0.163391   0.006736
     9  O   -0.181272   0.007306
    10  N   -0.006469  -0.019637
    11  C    0.168867  -0.446344
    12  O   -0.250666   0.000945
    13  H   -0.020718   0.186086
    14  H   -0.679179   0.823174
    15  H   -0.089177   0.207556
    16  H   -0.218812   0.407468
    17  H    0.078650   0.141926
    18  H    0.157574   0.069094
    19  H    0.167269   0.027342
    20  H   -0.189229   0.370010
    21  H    0.034714   0.184924
    22  H   -0.395219   0.706194
    23  H    0.256155  -0.011763
    24  H    0.212110   0.073396
    25  H    0.386966  -0.104348
    26  H    0.066346   0.040283
    27  H   -0.103674   0.241297
    28  H   -0.024221   0.148011
    29  H   -0.145716   0.410868
 Sum of Mulliken charges =  -1.00000   1.00000

 Dipole moment (field-independent basis, Debye):
    X=             -0.4126    Y=              1.0006    Z=             -3.8751  Tot=              4.0234
 Quadrupole moment (field-independent basis, Debye-Ang):
   XX=           -135.4115   YY=           -112.3972   ZZ=           -110.8764
   XY=              8.9601   XZ=              1.8424   YZ=             -2.1535

 Summary of Natural Population Analysis:

                                       Natural Population
                Natural  -----------------------------------------------
    Atom  No    Charge         Core      Valence    Rydberg      Total
 -----------------------------------------------------------------------
      C    1   -0.29892      0.99964     2.29338    0.00590     3.29892
      C    2    0.06325      0.99954     1.92196    0.01526     2.93675
      C    3   -0.02590      0.99953     2.00992    0.01645     3.02590
      C    4    0.05036      0.99952     1.93604    0.01408     2.94964
      C    5    0.03861      0.99953     1.94809    0.01377     2.96139
      C    6   -0.02909      0.99956     2.01639    0.01314     3.02909
      O    7   -0.39545      0.99989     3.38728    0.00828     4.39545
      O    8   -0.37803      0.99990     3.37146    0.00666     4.37803
      O    9   -0.38767      0.99990     3.38133    0.00644     4.38767
      N   10   -0.35070      0.99973     2.83885    0.01212     3.85070
      C   11   -0.17535      0.99965     2.16890    0.00680     3.17535
      O   12   -0.37907      0.99989     3.37158    0.00760     4.37907
      H   13    0.09871      0.00000     0.40012    0.00116     0.40129
      H   14    0.10318      0.00000     0.39484    0.00198     0.39682
      H   15    0.09953      0.00000     0.39943    0.00104     0.40047
      H   16    0.08274      0.00000     0.41483    0.00243     0.41726
      H   17    0.09810      0.00000     0.40026    0.00163     0.40190
      H   18    0.09284      0.00000     0.40532    0.00184     0.40716
      H   19    0.10214      0.00000     0.39612    0.00174     0.39786
      H   20    0.08709      0.00000     0.41151    0.00140     0.41291
      H   21    0.09689      0.00000     0.40095    0.00217     0.40311
      H   22    0.24554      0.00000     0.23373    0.02073     0.25446
      H   23    0.23470      0.00000     0.26219    0.00312     0.26530
      H   24    0.24406      0.00000     0.25229    0.00365     0.25594
      H   25    0.18542      0.00000     0.31026    0.00432     0.31458
      H   26    0.08205      0.00000     0.41635    0.00160     0.41795
      H   27    0.09325      0.00000     0.40583    0.00091     0.40675
      H   28    0.08678      0.00000     0.41201    0.00121     0.41322
      H   29    0.23493      0.00000     0.25873    0.00634     0.26507
 =======================================================================
   * Total *   -0.00000     11.99628    36.81996    0.18376    49.00000

 Normal termination of Gaussian 16 at Wed Dec  9 17:59:36 2020.
