 Gaussian 16, Revision A.03,

 -----------------------------------------------------------
 # opt freq B3LYP/6-31G(d) empiricaldispersion=gd3bj scf=xqc
 -----------------------------------------------------------

 ------------------------------
 CID_84665872_JID_4523_neutraal
 ------------------------------
 Symbolic Z-matrix:
 Charge =  0 Multiplicity = 1

 SCF Done:  E(RB3LYP) =  -704.048469404     A.U. after   15 cycles
 SCF Done:  E(RB3LYP) =  -704.052916627     A.U. after   13 cycles
 SCF Done:  E(RB3LYP) =  -704.053340229     A.U. after   13 cycles
 SCF Done:  E(RB3LYP) =  -704.055663413     A.U. after   13 cycles
 SCF Done:  E(RB3LYP) =  -704.056716522     A.U. after   13 cycles
 SCF Done:  E(RB3LYP) =  -704.057610944     A.U. after   14 cycles
 SCF Done:  E(RB3LYP) =  -704.057977784     A.U. after   12 cycles
 SCF Done:  E(RB3LYP) =  -704.058270555     A.U. after   12 cycles
 SCF Done:  E(RB3LYP) =  -704.058422948     A.U. after   12 cycles
 SCF Done:  E(RB3LYP) =  -704.058567825     A.U. after   12 cycles
 SCF Done:  E(RB3LYP) =  -704.058656326     A.U. after    9 cycles
 SCF Done:  E(RB3LYP) =  -704.058657570     A.U. after    9 cycles
 SCF Done:  E(RB3LYP) =  -704.058658343     A.U. after    9 cycles
 SCF Done:  E(RB3LYP) =  -704.058658498     A.U. after    8 cycles
 SCF Done:  E(RB3LYP) =  -704.058658554     A.U. after    7 cycles
 Optimization completed.
    -- Stationary point found.
 Normal termination of Gaussian 16 at Thu Dec 10 10:01:03 2020.

 --------------------------------------------------------------------
 #N Geom=AllCheck Guess=TCheck SCRF=Check GenChk RB3LYP/6-31G(d) Freq
 --------------------------------------------------------------------

 Structure from the checkpoint file:  "JID_4523.chk"
 ------------------------------
 CID_84665872_JID_4523_neutraal
 ------------------------------
 Charge =  0 Multiplicity = 1

 SCF Done:  E(RB3LYP) =  -704.058658554     A.U. after    1 cycles

  Exact polarizability: 135.439   1.515 141.612  -1.060  -0.063  54.568
 Approx polarizability: 217.855   5.926 223.888  -1.543  -0.279  84.064

                      1                      2                      3
                      A                      A                      A
 Frequencies --     36.4255                65.0603                80.8614
 Red. masses --      8.1613                 4.0335                 1.4906
 Frc consts  --      0.0064                 0.0101                 0.0057
 IR Inten    --      0.2249                10.3139                 8.6322

                      4                      5                      6
                      A                      A                      A
 Frequencies --    129.1879               159.1896               170.8679
 Red. masses --      2.9021                 2.9649                 2.3871
 Frc consts  --      0.0285                 0.0443                 0.0411
 IR Inten    --      4.7718                 5.7525                 1.4436

                      7                      8                      9
                      A                      A                      A
 Frequencies --    198.4289               288.9164               291.9694
 Red. masses --      7.4754                 3.5312                 5.2383
 Frc consts  --      0.1734                 0.1737                 0.2631
 IR Inten    --      1.7837                 1.2817                 4.4123

                     10                     11                     12
                      A                      A                      A
 Frequencies --    348.9022               368.6907               385.1932
 Red. masses --      4.7477                 4.6353                 7.9457
 Frc consts  --      0.3405                 0.3712                 0.6946
 IR Inten    --      0.8749                 9.7191                 0.0059

                     13                     14                     15
                      A                      A                      A
 Frequencies --    395.2262               462.1616               468.5745
 Red. masses --      6.6410                 6.3265                 3.5091
 Frc consts  --      0.6112                 0.7962                 0.4539
 IR Inten    --      0.1439                10.3905                 0.7019

                     16                     17                     18
                      A                      A                      A
 Frequencies --    480.2793               605.9658               634.3953
 Red. masses --      6.6254                 3.7128                 1.4261
 Frc consts  --      0.9004                 0.8032                 0.3382
 IR Inten    --      1.3023                 1.6785                78.5396

                     19                     20                     21
                      A                      A                      A
 Frequencies --    673.1198               694.2668               726.5481
 Red. masses --      4.3765                 4.2303                 4.3158
 Frc consts  --      1.1683                 1.2014                 1.3423
 IR Inten    --     63.5765                24.2876                19.2782

                     22                     23                     24
                      A                      A                      A
 Frequencies --    744.2794               798.5854               801.9135
 Red. masses --      6.4457                 7.5553                 6.5760
 Frc consts  --      2.1037                 2.8389                 2.4915
 IR Inten    --      3.1444                40.3485                29.2315

                     25                     26                     27
                      A                      A                      A
 Frequencies --    819.5014               871.1038               892.9647
 Red. masses --      1.0861                 1.4283                 1.3148
 Frc consts  --      0.4298                 0.6386                 0.6177
 IR Inten    --     94.3162               123.0691                17.8586

                     28                     29                     30
                      A                      A                      A
 Frequencies --    930.3919               946.6235               962.2285
 Red. masses --      5.5506                 3.6485                 6.4628
 Frc consts  --      2.8309                 1.9263                 3.5256
 IR Inten    --     56.5268                 1.5603                 2.2375

                     31                     32                     33
                      A                      A                      A
 Frequencies --   1025.6995              1069.2437              1090.8927
 Red. masses --      1.6411                 1.7572                 4.8246
 Frc consts  --      1.0172                 1.1837                 3.3828
 IR Inten    --      1.2257                 3.9231                57.8353

                     34                     35                     36
                      A                      A                      A
 Frequencies --   1124.8845              1188.6470              1193.0193
 Red. masses --      9.8862                 1.6329                 1.6448
 Frc consts  --      7.3705                 1.3593                 1.3793
 IR Inten    --     20.7274               164.2433               151.5682

                     37                     38                     39
                      A                      A                      A
 Frequencies --   1208.7760              1226.3476              1228.4716
 Red. masses --      1.2501                 1.3891                 1.1494
 Frc consts  --      1.0762                 1.2309                 1.0220
 IR Inten    --      0.7830                 6.2071                 0.4135

                     40                     41                     42
                      A                      A                      A
 Frequencies --   1269.8079              1317.6593              1340.2500
 Red. masses --      2.6443                 3.5428                 1.5146
 Frc consts  --      2.5121                 3.6241                 1.6029
 IR Inten    --     14.7458                77.6755                21.0637

                     43                     44                     45
                      A                      A                      A
 Frequencies --   1358.2284              1403.4068              1418.8486
 Red. masses --      3.9129                 1.7823                 2.8369
 Frc consts  --      4.2530                 2.0682                 3.3649
 IR Inten    --     68.9432                15.5955                54.6181

                     46                     47                     48
                      A                      A                      A
 Frequencies --   1435.4916              1508.8317              1515.5344
 Red. masses --      2.2650                 3.2735                 3.3854
 Frc consts  --      2.7499                 4.3909                 4.5813
 IR Inten    --    208.7888               176.1503                14.8616

                     49                     50                     51
                      A                      A                      A
 Frequencies --   1529.1791              1555.2932              1644.4857
 Red. masses --      1.2655                 1.0884                 2.6248
 Frc consts  --      1.7435                 1.5512                 4.1822
 IR Inten    --     19.6856                 4.3899                38.3139

                     52                     53                     54
                      A                      A                      A
 Frequencies --   1666.1388              1691.7676              1789.6960
 Red. masses --      6.0941                 1.4577                 9.2546
 Frc consts  --      9.9675                 2.4582                17.4650
 IR Inten    --      4.5573                85.9941               311.3704

                     55                     56                     57
                      A                      A                      A
 Frequencies --   2981.7968              3031.0225              3040.5684
 Red. masses --      1.0706                 1.0921                 1.0690
 Frc consts  --      5.6085                 5.9115                 5.8231
 IR Inten    --     91.1238                67.4179                26.8049

                     58                     59                     60
                      A                      A                      A
 Frequencies --   3096.9699              3178.8739              3435.9875
 Red. masses --      1.0955                 1.0910                 1.0629
 Frc consts  --      6.1909                 6.4958                 7.3936
 IR Inten    --     22.2028                13.7277               217.6370

                     61                     62                     63
                      A                      A                      A
 Frequencies --   3485.5598              3561.2748              3686.3993
 Red. masses --      1.0488                 1.0943                 1.0638
 Frc consts  --      7.5077                 8.1774                 8.5174
 IR Inten    --      1.3142                 8.5978                65.1835

 - Thermochemistry -
 -------------------
 Temperature   298.150 Kelvin.  Pressure   1.00000 Atm.
 Atom     1 has atomic number  6 and mass  12.00000

 Molecular mass:   195.05316 amu.
 Principal axes and moments of inertia in atomic units:
                           1         2         3
     Eigenvalues --  2099.156722509.021944573.63001
           X            0.99912   0.04193  -0.00144
           Y           -0.04193   0.99912   0.00039
           Z            0.00146  -0.00033   1.00000
 This molecule is an asymmetric top.
 Rotational symmetry number  1.
 Warning -- assumption of classical behavior for rotation
           may cause significant error
 Rotational temperatures (Kelvin)      0.04126     0.03452     0.01894
 Rotational constants (GHZ):           0.85975     0.71930     0.39460
 Zero-point vibrational energy     464933.9 (Joules/Mol)
                                  111.12187 (Kcal/Mol)
 Warning -- explicit consideration of  17 degrees of freedom as
           vibrations may cause significant error
 Vibrational temperatures:     52.41    93.61   116.34   185.87   229.04
          (Kelvin)            245.84   285.49   415.69   420.08   501.99
                              530.46   554.21   568.64   664.95   674.17
                              691.01   871.85   912.75   968.47   998.90
                             1045.34  1070.85  1148.99  1153.77  1179.08
                             1253.32  1284.78  1338.63  1361.98  1384.43
                             1475.75  1538.40  1569.55  1618.46  1710.20
                             1716.49  1739.16  1764.44  1767.50  1826.97
                             1895.82  1928.32  1954.19  2019.19  2041.41
                             2065.35  2170.87  2180.52  2200.15  2237.72
                             2366.05  2397.20  2434.08  2574.97  4290.14
                             4360.97  4374.70  4455.85  4573.69  4943.62
                             5014.94  5123.88  5303.91

 Zero-point correction=                           0.177084 (Hartree/Particle)
 Thermal correction to Energy=                    0.189279
 Thermal correction to Enthalpy=                  0.190223
 Thermal correction to Gibbs Free Energy=         0.137796
 Sum of electronic and zero-point Energies=           -703.881575
 Sum of electronic and thermal Energies=              -703.869380
 Sum of electronic and thermal Enthalpies=            -703.868436
 Sum of electronic and thermal Free Energies=         -703.920862

                     E (Thermal)             CV                S
                      KCal/Mol        Cal/Mol-Kelvin    Cal/Mol-Kelvin
 Total                  118.774             45.834            110.340
 Electronic               0.000              0.000              0.000
 Translational            0.889              2.981             41.709
 Rotational               0.889              2.981             31.555
 Vibrational            116.997             39.873             37.076
 Vibration     1          0.594              1.982              5.445
 Vibration     2          0.597              1.971              4.297
 Vibration     3          0.600              1.962              3.870
 Vibration     4          0.612              1.924              2.958
 Vibration     5          0.621              1.892              2.559
 Vibration     6          0.626              1.878              2.426
 Vibration     7          0.637              1.842              2.148
 Vibration     8          0.685              1.694              1.480
 Vibration     9          0.687              1.689              1.463
 Vibration    10          0.726              1.577              1.171
 Vibration    11          0.741              1.537              1.085
 Vibration    12          0.754              1.502              1.019
 Vibration    13          0.762              1.480              0.980
 Vibration    14          0.820              1.334              0.760
 Vibration    15          0.826              1.320              0.742
 Vibration    16          0.837              1.294              0.709
 Vibration    17          0.965              1.019              0.440

                           ! Non-Optimized Parameters !
 Normal termination of Gaussian 16 at Thu Dec 10 10:07:02 2020.

 ----------------------------------------------------------------------
 # B3LYP/6-311++G(d,p) empiricaldispersion=gd3bj scf=xqc pop=npa geom=c
 heck
 ----------------------------------------------------------------------

 --------------------------------------
 CID_84665872_JID_4523_Energie_neutraal
 --------------------------------------
 Structure from the checkpoint file:  "JID_4523.chk"
 Charge =  0 Multiplicity = 1

 SCF Done:  E(RB3LYP) =  -704.276297361     A.U. after   14 cycles
 Normal termination of Gaussian 16 at Thu Dec 10 10:09:04 2020.

 ----------------------------------------------------------------------
 # B3LYP/6-311++G(d,p) empiricaldispersion=gd3bj scf=xqc pop=npa geom=c
 heck
 ----------------------------------------------------------------------

 ------------------------------------
 CID_84665872_JID_4523_Energie_kation
 ------------------------------------
 Structure from the checkpoint file:  "JID_4523.chk"
 Charge =  1 Multiplicity = 2

 SCF Done:  E(UB3LYP) =  -703.978666507     A.U. after   22 cycles
 Normal termination of Gaussian 16 at Thu Dec 10 10:14:07 2020.
 Gaussian 16:  ES64L-G16RevA.03 25-Dec-2016

 ----------------------------------------------------------------------
 # B3LYP/6-311++G(d,p) empiricaldispersion=gd3bj scf=xqc pop=npa geom=c
 heck
 ----------------------------------------------------------------------

 -----------------------------------
 CID_84665872_JID_4523_Energie_anion
 -----------------------------------
 Structure from the checkpoint file:  "JID_4523.chk"
 Charge = -1 Multiplicity = 2

                         Standard orientation:
 ---------------------------------------------------------------------
 Center     Atomic      Atomic             Coordinates (Angstroms)
 Number     Number       Type             X           Y           Z
 ---------------------------------------------------------------------
      1          6           0        2.768406   -1.275318   -0.032828
      2          6           0        1.268304   -1.147368   -0.009165
      3          6           0        0.281373   -2.129678   -0.010729
      4          6           0       -1.054124   -1.744466   -0.002457
      5          6           0       -1.414688   -0.374308    0.000601
      6          6           0       -0.414419    0.625316   -0.001694
      7          6           0        0.925546    0.198495   -0.002670
      8          6           0        2.194263    1.010786   -0.011318
      9          8           0        3.257813    0.055579    0.105926
     10          6           0       -0.675852    2.081260   -0.010259
     11          8           0        0.205714    2.923656   -0.069976
     12          8           0       -1.978377    2.430811    0.055773
     13          8           0       -2.725508   -0.079724    0.001002
     14          7           0       -2.177089   -2.651169   -0.000490
     15          1           0        3.127758   -1.721044   -0.975651
     16          1           0        3.161165   -1.888465    0.790844
     17          1           0        0.536272   -3.187401   -0.016478
     18          1           0        2.296160    1.592944   -0.937271
     19          1           0        2.253064    1.718931    0.821186
     20          1           0       -1.974671    3.406352    0.038949
     21          1           0       -3.158018   -0.968299   -0.011562
     22          1           0       -2.158148   -3.276903   -0.802868
     23          1           0       -2.193951   -3.228817    0.837598
 ---------------------------------------------------------------------

 SCF Done:  E(UB3LYP) =  -704.281580398     A.U. after   33 cycles
 SCF Done:  E(UB3LYP) =  -704.281580398     a.u. after    1 cycles

 The electronic state is 2-A.
 Alpha  occ. eigenvalues --  -19.00796 -18.99933 -18.98503 -18.93585 -14.19713
 Alpha  occ. eigenvalues --  -10.12519 -10.08781 -10.08267 -10.07249 -10.04738
 Alpha  occ. eigenvalues --  -10.02115 -10.01956 -10.01776 -10.01400  -0.94877
 Alpha  occ. eigenvalues --   -0.92094  -0.90128  -0.85083  -0.77736  -0.69884
 Alpha  occ. eigenvalues --   -0.62364  -0.59865  -0.58005  -0.51019  -0.47498
 Alpha  occ. eigenvalues --   -0.45817  -0.44178  -0.39244  -0.38048  -0.36779
 Alpha  occ. eigenvalues --   -0.34555  -0.33898  -0.32846  -0.31921  -0.31379
 Alpha  occ. eigenvalues --   -0.29840  -0.28714  -0.27277  -0.25640  -0.25161
 Alpha  occ. eigenvalues --   -0.23767  -0.23052  -0.20594  -0.19259  -0.18008
 Alpha  occ. eigenvalues --   -0.16888  -0.15641  -0.12490  -0.12105  -0.10817
 Alpha  occ. eigenvalues --   -0.07425   0.05372
 Alpha virt. eigenvalues --    0.07404   0.09645   0.10341   0.10898   0.11447
 Alpha virt. eigenvalues --    0.12438   0.12516   0.13731   0.14376   0.15581
 Alpha virt. eigenvalues --    0.15883   0.16621   0.17791   0.18171   0.18433

  Beta  occ. eigenvalues --  -19.00712 -18.99897 -18.98501 -18.93296 -14.19722
  Beta  occ. eigenvalues --  -10.12291 -10.08774 -10.08179 -10.07269 -10.04668
  Beta  occ. eigenvalues --  -10.02203 -10.01715 -10.01619 -10.00994  -0.94581
  Beta  occ. eigenvalues --   -0.91989  -0.90109  -0.84643  -0.77633  -0.69515
  Beta  occ. eigenvalues --   -0.62056  -0.59515  -0.57683  -0.50332  -0.47344
  Beta  occ. eigenvalues --   -0.45685  -0.43943  -0.39115  -0.37901  -0.36567
  Beta  occ. eigenvalues --   -0.34421  -0.33757  -0.32615  -0.31787  -0.31053
  Beta  occ. eigenvalues --   -0.28965  -0.28428  -0.27116  -0.25063  -0.24907
  Beta  occ. eigenvalues --   -0.23610  -0.22931  -0.20432  -0.18473  -0.17790
  Beta  occ. eigenvalues --   -0.15706  -0.15554  -0.12214  -0.11821  -0.09047
  Beta  occ. eigenvalues --   -0.06566
  Beta virt. eigenvalues --    0.07424   0.09564   0.10163   0.10337   0.11346
  Beta virt. eigenvalues --    0.12281   0.12448   0.12561   0.13633   0.14464
  Beta virt. eigenvalues --    0.15761   0.16037   0.16547   0.17708   0.18430

 Mulliken charges and spin densities:
               1          2
     1  C   -0.180249  -0.025929
     2  C    0.555804  -0.131617
     3  C   -0.659075   0.479066
     4  C   -0.113333  -0.048253
     5  C   -0.332709   0.062740
     6  C    0.075667   0.142414
     7  C   -0.255254   0.138261
     8  C   -0.230733   0.002922
     9  O   -0.186250   0.003409
    10  C    0.123241   0.126222
    11  O   -0.417987   0.094741
    12  O   -0.230247   0.015251
    13  O   -0.315543   0.016584
    14  N   -0.480213  -0.021806
    15  H    0.084895   0.036977
    16  H    0.111196   0.019512
    17  H    0.093885  -0.034735
    18  H    0.177204   0.006718
    19  H    0.181971   0.006487
    20  H    0.272210  -0.001552
    21  H    0.333254  -0.000001
    22  H    0.202862   0.047070
    23  H    0.189402   0.065519
 Sum of Mulliken charges =  -1.00000   1.00000

 Dipole moment (field-independent basis, Debye):
    X=             -1.6000    Y=             -2.9222    Z=             -0.0889  Tot=              3.3328
 Quadrupole moment (field-independent basis, Debye-Ang):
   XX=           -110.4623   YY=            -99.8489   ZZ=            -88.2497
   XY=             -0.7224   XZ=             -0.3892   YZ=              0.5127

 Summary of Natural Population Analysis:

                                       Natural Population
                Natural  -----------------------------------------------
    Atom  No    Charge         Core      Valence    Rydberg      Total
 -----------------------------------------------------------------------
      C    1    0.03726      0.99957     1.94451    0.01866     2.96274
      C    2   -0.08898      0.99948     2.07633    0.01316     3.08898
      C    3   -0.04130      0.99953     2.02215    0.01961     3.04130
      C    4    0.08806      0.99945     1.90178    0.01070     2.91194
      C    5    0.17552      0.99942     1.80602    0.01904     2.82448
      C    6   -0.09185      0.99939     2.07892    0.01354     3.09185
      C    7    0.04473      0.99945     1.94648    0.00934     2.95527
      C    8   -0.01271      0.99956     2.00100    0.01216     3.01271
      O    9   -0.31810      0.99990     3.30375    0.01445     4.31810
      C   10    0.42979      0.99957     1.54571    0.02493     2.57021
      O   11   -0.31388      0.99987     3.30789    0.00612     4.31388
      O   12   -0.33719      0.99988     3.33197    0.00535     4.33719
      O   13   -0.34076      0.99987     3.33287    0.00801     4.34076
      N   14   -0.45680      0.99977     2.93891    0.01813     3.95680
      H   15    0.07328      0.00000     0.42436    0.00236     0.42672
      H   16    0.07493      0.00000     0.42267    0.00240     0.42507
      H   17    0.08557      0.00000     0.41268    0.00175     0.41443
      H   18    0.08852      0.00000     0.40978    0.00170     0.41148
      H   19    0.09425      0.00000     0.40410    0.00165     0.40575
      H   20    0.22488      0.00000     0.26987    0.00524     0.27512
      H   21    0.24054      0.00000     0.25669    0.00277     0.25946
      H   22    0.17945      0.00000     0.31846    0.00209     0.32055
      H   23    0.18113      0.00000     0.31684    0.00204     0.31887
 =======================================================================
   * Total *    0.01634     13.99472    36.77373    0.21521    50.98366

 Normal termination of Gaussian 16 at Thu Dec 10 10:20:27 2020.
