 Gaussian 16, Revision A.03,

 -----------------------------------------------------------
 # opt freq B3LYP/6-31G(d) empiricaldispersion=gd3bj scf=xqc
 -----------------------------------------------------------

 -----------------------------
 CID_3490704_JID_6346_neutraal
 -----------------------------
 Symbolic Z-matrix:
 Charge =  0 Multiplicity = 1

 SCF Done:  E(RB3LYP) =  -685.965116362     A.U. after   14 cycles
 SCF Done:  E(RB3LYP) =  -685.969602170     A.U. after   12 cycles
 SCF Done:  E(RB3LYP) =  -685.970628902     A.U. after   12 cycles
 SCF Done:  E(RB3LYP) =  -685.971505797     A.U. after   12 cycles
 SCF Done:  E(RB3LYP) =  -685.972005585     A.U. after   14 cycles
 SCF Done:  E(RB3LYP) =  -685.972841247     A.U. after   11 cycles
 SCF Done:  E(RB3LYP) =  -685.973146258     A.U. after   11 cycles
 SCF Done:  E(RB3LYP) =  -685.973289073     A.U. after   12 cycles
 SCF Done:  E(RB3LYP) =  -685.973364307     A.U. after   11 cycles
 SCF Done:  E(RB3LYP) =  -685.973422771     A.U. after   11 cycles
 SCF Done:  E(RB3LYP) =  -685.973466242     A.U. after    6 cycles
 SCF Done:  E(RB3LYP) =  -685.973466270     A.U. after    7 cycles
 SCF Done:  E(RB3LYP) =  -685.973466296     A.U. after    7 cycles
 SCF Done:  E(RB3LYP) =  -685.973466322     A.U. after    7 cycles
 SCF Done:  E(RB3LYP) =  -685.973466340     A.U. after    7 cycles
 Optimization completed.
    -- Stationary point found.
 Normal termination of Gaussian 16 at Thu Dec 10 22:27:24 2020.

 --------------------------------------------------------------------
 #N Geom=AllCheck Guess=TCheck SCRF=Check GenChk RB3LYP/6-31G(d) Freq
 --------------------------------------------------------------------

 Structure from the checkpoint file:  "JID_6346.chk"
 -----------------------------
 CID_3490704_JID_6346_neutraal
 -----------------------------
 Charge =  0 Multiplicity = 1

 SCF Done:  E(RB3LYP) =  -685.973466340     A.U. after    1 cycles

  Exact polarizability: 207.944 -11.764 132.455 -15.248  -2.585 105.236
 Approx polarizability: 275.390 -25.064 217.208 -35.225  -2.782 180.152

                      1                      2                      3
                      A                      A                      A
 Frequencies --     22.9279                36.1685                37.7952
 Red. masses --      3.8557                 4.3774                 4.5197
 Frc consts  --      0.0012                 0.0034                 0.0038
 IR Inten    --      1.0363                 0.3638                 0.4594

                      4                      5                      6
                      A                      A                      A
 Frequencies --     67.9583                84.8460               117.7745
 Red. masses --      4.2635                 2.5563                 1.2682
 Frc consts  --      0.0116                 0.0108                 0.0104
 IR Inten    --      1.1428                 0.5231                 0.3001

                      7                      8                      9
                      A                      A                      A
 Frequencies --    152.4505               188.8928               216.4370
 Red. masses --      4.2111                 1.6492                 3.6213
 Frc consts  --      0.0577                 0.0347                 0.0999
 IR Inten    --      0.5761                 0.3175                 0.1763

                     10                     11                     12
                      A                      A                      A
 Frequencies --    227.1145               257.8374               288.1540
 Red. masses --      2.5026                 1.6810                 4.1702
 Frc consts  --      0.0761                 0.0658                 0.2040
 IR Inten    --      3.6203                 2.9480                 1.2950

                     13                     14                     15
                      A                      A                      A
 Frequencies --    323.5289               328.9856               376.4317
 Red. masses --      3.6181                 2.2656                 2.2872
 Frc consts  --      0.2231                 0.1445                 0.1910
 IR Inten    --      1.9469                 1.0047                10.9601

                     16                     17                     18
                      A                      A                      A
 Frequencies --    434.3032               457.6417               493.2623
 Red. masses --      2.7091                 2.8503                 2.2006
 Frc consts  --      0.3011                 0.3517                 0.3155
 IR Inten    --      0.8846                 4.8688                89.5874

                     19                     20                     21
                      A                      A                      A
 Frequencies --    502.2299               552.3759               598.8385
 Red. masses --      3.5596                 4.5893                 2.8157
 Frc consts  --      0.5290                 0.8250                 0.5949
 IR Inten    --     43.7801                 3.8342                 5.9789

                     22                     23                     24
                      A                      A                      A
 Frequencies --    605.0155               651.6017               696.8454
 Red. masses --      2.3911                 4.5454                 3.5157
 Frc consts  --      0.5157                 1.1371                 1.0059
 IR Inten    --     15.0841                 6.6444                22.3914

                     25                     26                     27
                      A                      A                      A
 Frequencies --    707.7385               736.0110               772.2176
 Red. masses --      3.2509                 3.9520                 3.7906
 Frc consts  --      0.9594                 1.2614                 1.3318
 IR Inten    --      9.0260                 0.7153                17.1606

                     28                     29                     30
                      A                      A                      A
 Frequencies --    794.5077               820.2632               833.4746
 Red. masses --      1.9814                 1.4473                 1.9061
 Frc consts  --      0.7369                 0.5737                 0.7801
 IR Inten    --      4.7810                17.3788                 9.9677

                     31                     32                     33
                      A                      A                      A
 Frequencies --    849.6007               863.9632               887.7208
 Red. masses --      1.3844                 1.4399                 1.3821
 Frc consts  --      0.5888                 0.6332                 0.6417
 IR Inten    --      9.1096                13.5896                 4.5097

                     34                     35                     36
                      A                      A                      A
 Frequencies --    911.9747               938.9258               965.6951
 Red. masses --      2.2507                 1.3071                 2.2926
 Frc consts  --      1.1029                 0.6789                 1.2596
 IR Inten    --      1.0409                 1.1120                 0.1857

                     37                     38                     39
                      A                      A                      A
 Frequencies --    977.0834               989.4130              1039.2723
 Red. masses --      6.4719                 2.1601                 1.9439
 Frc consts  --      3.6404                 1.2459                 1.2370
 IR Inten    --     12.1712                 4.2190                15.1686

                     40                     41                     42
                      A                      A                      A
 Frequencies --   1042.3325              1071.3470              1082.0522
 Red. masses --      2.9071                 1.5335                 2.4445
 Frc consts  --      1.8609                 1.0370                 1.6863
 IR Inten    --     25.6836                 2.1639                 8.1666

                     43                     44                     45
                      A                      A                      A
 Frequencies --   1134.5337              1149.8385              1168.2135
 Red. masses --      1.8963                 2.1068                 1.9838
 Frc consts  --      1.4381                 1.6412                 1.5951
 IR Inten    --     10.7979                45.6108                27.5012

                     46                     47                     48
                      A                      A                      A
 Frequencies --   1175.4698              1209.2579              1214.5241
 Red. masses --      1.8679                 1.5961                 1.9028
 Frc consts  --      1.5206                 1.3751                 1.6537
 IR Inten    --      3.4676                 9.1530                11.1783

                     49                     50                     51
                      A                      A                      A
 Frequencies --   1227.9652              1257.0982              1288.7523
 Red. masses --      1.5919                 1.9847                 2.0729
 Frc consts  --      1.4143                 1.8479                 2.0285
 IR Inten    --     45.8325                 2.8528                16.8102

                     52                     53                     54
                      A                      A                      A
 Frequencies --   1314.6678              1317.3755              1331.9415
 Red. masses --      1.5902                 2.5428                 2.2193
 Frc consts  --      1.6193                 2.6001                 2.3197
 IR Inten    --      4.1190                23.9389               106.5734

                     55                     56                     57
                      A                      A                      A
 Frequencies --   1341.4934              1368.1894              1383.9548
 Red. masses --      1.4090                 2.8244                 2.4230
 Frc consts  --      1.4939                 3.1151                 2.7343
 IR Inten    --     23.6924                88.8282                16.1430

                     58                     59                     60
                      A                      A                      A
 Frequencies --   1394.4139              1408.1467              1437.7010
 Red. masses --      3.8316                 1.3546                 1.2578
 Frc consts  --      4.3895                 1.5825                 1.5318
 IR Inten    --     24.1553                 3.3011                13.7694

                     61                     62                     63
                      A                      A                      A
 Frequencies --   1445.7154              1470.6101              1485.9259
 Red. masses --      1.2511                 2.5620                 2.5033
 Frc consts  --      1.5406                 3.2646                 3.2565
 IR Inten    --      1.1919                16.6835                 1.3707

                     64                     65                     66
                      A                      A                      A
 Frequencies --   1512.9752              1517.7751              1523.2321
 Red. masses --      1.0684                 1.1100                 1.1036
 Frc consts  --      1.4410                 1.5065                 1.5086
 IR Inten    --      5.5577                13.1892                 6.8628

                     67                     68                     69
                      A                      A                      A
 Frequencies --   1525.6900              1533.8238              1539.9471
 Red. masses --      1.1057                 1.2536                 1.1008
 Frc consts  --      1.5165                 1.7376                 1.5381
 IR Inten    --     13.4403                 8.5835                 3.9327

                     70                     71                     72
                      A                      A                      A
 Frequencies --   1543.5716              1555.9169              1568.8084
 Red. masses --      1.5485                 3.1139                 2.7373
 Frc consts  --      2.1738                 4.4414                 3.9692
 IR Inten    --      3.9562                48.0749               110.0116

                     73                     74                     75
                      A                      A                      A
 Frequencies --   1635.9861              1678.7959              3049.5847
 Red. masses --      4.5278                 5.8776                 1.0387
 Frc consts  --      7.1399                 9.7600                 5.6915
 IR Inten    --     61.8236               189.6515                20.0054

                     76                     77                     78
                      A                      A                      A
 Frequencies --   3051.9745              3065.2835              3068.0500
 Red. masses --      1.0360                 1.0612                 1.0630
 Frc consts  --      5.6854                 5.8746                 5.8951
 IR Inten    --     23.5863                40.8493                27.2476

                     79                     80                     81
                      A                      A                      A
 Frequencies --   3097.6165              3103.6775              3117.9234
 Red. masses --      1.1039                 1.0983                 1.1017
 Frc consts  --      6.2407                 6.2333                 6.3103
 IR Inten    --     11.6071                12.1539                 7.7756

                     82                     83                     84
                      A                      A                      A
 Frequencies --   3119.8691              3133.9452              3135.0985
 Red. masses --      1.1029                 1.1018                 1.1026
 Frc consts  --      6.3247                 6.3757                 6.3853
 IR Inten    --     36.7239                18.5149                43.1661

                     85                     86                     87
                      A                      A                      A
 Frequencies --   3170.5529              3187.9375              3207.9349
 Red. masses --      1.0865                 1.0945                 1.0888
 Frc consts  --      6.4352                 6.5539                 6.6019
 IR Inten    --     15.8535                23.9232                15.6854

                     88                     89                     90
                      A                      A                      A
 Frequencies --   3273.3741              3289.5842              3585.8904
 Red. masses --      1.0963                 1.0984                 1.0756
 Frc consts  --      6.9209                 7.0029                 8.1485
 IR Inten    --     11.1018                 0.4217                12.2030

 - Thermochemistry -
 -------------------
 Temperature   298.150 Kelvin.  Pressure   1.00000 Atm.
 Atom     1 has atomic number  6 and mass  12.00000

 Molecular mass:   216.13750 amu.
 Principal axes and moments of inertia in atomic units:
                           1         2         3
     Eigenvalues --  1289.349727380.316617660.30397
           X            0.99998   0.00558  -0.00383
           Y           -0.00559   0.99998  -0.00197
           Z            0.00382   0.00199   0.99999
 This molecule is an asymmetric top.
 Rotational symmetry number  1.
 Warning -- assumption of classical behavior for rotation
           may cause significant error
 Rotational temperatures (Kelvin)      0.06718     0.01174     0.01131
 Rotational constants (GHZ):           1.39973     0.24453     0.23560
 Zero-point vibrational energy     713713.7 (Joules/Mol)
                                  170.58168 (Kcal/Mol)
 Warning -- explicit consideration of  22 degrees of freedom as
           vibrations may cause significant error
 Vibrational temperatures:     32.99    52.04    54.38    97.78   122.07
          (Kelvin)            169.45   219.34   271.77   311.40   326.77
                              370.97   414.59   465.49   473.34   541.60
                              624.87   658.44   709.69   722.60   794.75
                              861.59   870.48   937.51  1002.61  1018.28
                             1058.96  1111.05  1143.12  1180.18  1199.18
                             1222.39  1243.05  1277.23  1312.13  1350.90
                             1389.42  1405.81  1423.54  1495.28  1499.68
                             1541.43  1556.83  1632.34  1654.36  1680.80
                             1691.24  1739.85  1747.43  1766.77  1808.68
                             1854.23  1891.51  1895.41  1916.37  1930.11
                             1968.52  1991.20  2006.25  2026.01  2068.53
                             2080.06  2115.88  2137.92  2176.83  2183.74
                             2191.59  2195.13  2206.83  2215.64  2220.86
                             2238.62  2257.17  2353.82  2415.41  4387.67
                             4391.11  4410.26  4414.24  4456.78  4465.50
                             4486.00  4488.80  4509.05  4510.71  4561.72
                             4586.73  4615.50  4709.66  4732.98  5159.30

 Zero-point correction=                           0.271839 (Hartree/Particle)
 Thermal correction to Energy=                    0.286913
 Thermal correction to Enthalpy=                  0.287857
 Thermal correction to Gibbs Free Energy=         0.227512
 Sum of electronic and zero-point Energies=           -685.701627
 Sum of electronic and thermal Energies=              -685.686554
 Sum of electronic and thermal Enthalpies=            -685.685610
 Sum of electronic and thermal Free Energies=         -685.745955

                     E (Thermal)             CV                S
                      KCal/Mol        Cal/Mol-Kelvin    Cal/Mol-Kelvin
 Total                  180.040             56.614            127.007
 Electronic               0.000              0.000              0.000
 Translational            0.889              2.981             42.015
 Rotational               0.889              2.981             32.655
 Vibrational            178.263             50.653             52.336
 Vibration     1          0.593              1.985              6.363
 Vibration     2          0.594              1.982              5.459
 Vibration     3          0.594              1.982              5.371
 Vibration     4          0.598              1.969              4.212
 Vibration     5          0.601              1.960              3.776
 Vibration     6          0.608              1.935              3.137
 Vibration     7          0.619              1.900              2.641
 Vibration     8          0.633              1.855              2.239
 Vibration     9          0.645              1.816              1.989
 Vibration    10          0.651              1.800              1.902
 Vibration    11          0.667              1.750              1.676
 Vibration    12          0.685              1.696              1.485
 Vibration    13          0.708              1.628              1.292
 Vibration    14          0.712              1.618              1.265
 Vibration    15          0.747              1.520              1.053
 Vibration    16          0.795              1.395              0.845
 Vibration    17          0.816              1.344              0.773
 Vibration    18          0.849              1.265              0.675
 Vibration    19          0.858              1.245              0.653
 Vibration    20          0.908              1.134              0.539
 Vibration    21          0.957              1.034              0.452
 Vibration    22          0.964              1.021              0.441

 Optimization completed.
    -- Stationary point found.
 Normal termination of Gaussian 16 at Thu Dec 10 22:37:51 2020.

 ----------------------------------------------------------------------
 # B3LYP/6-311++G(d,p) empiricaldispersion=gd3bj scf=xqc pop=npa geom=c
 heck
 ----------------------------------------------------------------------

 -------------------------------------
 CID_3490704_JID_6346_Energie_neutraal
 -------------------------------------
 Structure from the checkpoint file:  "JID_6346.chk"
 Charge =  0 Multiplicity = 1

 SCF Done:  E(RB3LYP) =  -686.156629620     A.U. after   15 cycles
 Normal termination of Gaussian 16 at Thu Dec 10 22:43:13 2020.

 ----------------------------------------------------------------------
 # B3LYP/6-311++G(d,p) empiricaldispersion=gd3bj scf=xqc pop=npa geom=c
 heck
 ----------------------------------------------------------------------

 -----------------------------------
 CID_3490704_JID_6346_Energie_kation
 -----------------------------------
 Structure from the checkpoint file:  "JID_6346.chk"
 Charge =  1 Multiplicity = 2

 SCF Done:  E(UB3LYP) =  -685.881428173     A.U. after   24 cycles
 Normal termination of Gaussian 16 at Thu Dec 10 22:53:52 2020.
 Gaussian 16:  ES64L-G16RevA.03 25-Dec-2016

 ----------------------------------------------------------------------
 # B3LYP/6-311++G(d,p) empiricaldispersion=gd3bj scf=xqc pop=npa geom=c
 heck
 ----------------------------------------------------------------------

 ----------------------------------
 CID_3490704_JID_6346_Energie_anion
 ----------------------------------
 Structure from the checkpoint file:  "JID_6346.chk"
 Charge = -1 Multiplicity = 2

                         Standard orientation:
 ---------------------------------------------------------------------
 Center     Atomic      Atomic             Coordinates (Angstroms)
 Number     Number       Type             X           Y           Z
 ---------------------------------------------------------------------
      1          6           0        4.890009    0.989544    0.459296
      2          6           0        4.401806    0.452673   -0.891123
      3          7           0        3.505026   -0.691751   -0.799659
      4          6           0        2.234774   -0.607294   -0.247263
      5          6           0        1.543452    0.614055   -0.132114
      6          6           0        0.245154    0.681001    0.372340
      7          6           0       -0.398811   -0.502079    0.787639
      8          6           0        0.288345   -1.714832    0.676321
      9          6           0        1.580698   -1.778795    0.174562
     10          6           0       -1.804458   -0.480791    1.325551
     11          7           0       -2.790663   -0.180780    0.282544
     12          6           0       -2.767814   -0.479919   -1.035297
     13          7           0       -3.881272   -0.062504   -1.622196
     14          6           0       -4.568498    0.494367   -0.585259
     15          7           0       -3.954671    0.450233    0.590714
     16          6           0       -0.450726    2.017394    0.464699
     17          1           0        4.046858    1.296016    1.086208
     18          1           0        5.547316    1.855256    0.318664
     19          1           0        5.451222    0.220312    1.002019
     20          1           0        3.897513    1.243774   -1.456777
     21          1           0        5.254240    0.140701   -1.503928
     22          1           0        3.973282   -1.567668   -0.605889
     23          1           0        2.022312    1.535739   -0.444301
     24          1           0       -0.201393   -2.632122    0.995420
     25          1           0        2.090469   -2.736284    0.098534
     26          1           0       -2.054770   -1.446428    1.778391
     27          1           0       -1.950636    0.287685    2.089349
     28          1           0       -1.933001   -0.974629   -1.509601
     29          1           0       -5.542561    0.950656   -0.698723
     30          1           0       -0.792981    2.224282    1.486198
     31          1           0        0.217860    2.829346    0.165413
     32          1           0       -1.338257    2.055031   -0.176914
 ---------------------------------------------------------------------

 SCF Done:  E(UB3LYP) =  -686.147342510     A.U. after   33 cycles
 SCF Done:  E(UB3LYP) =  -686.147342510     a.u. after    1 cycles

 The electronic state is 2-A.
 Alpha  occ. eigenvalues --  -14.31812 -14.25922 -14.22686 -14.22471 -10.15531
 Alpha  occ. eigenvalues --  -10.13986 -10.13891 -10.12195 -10.10486 -10.09715
 Alpha  occ. eigenvalues --  -10.08486 -10.08433 -10.08399 -10.07425 -10.07277
 Alpha  occ. eigenvalues --  -10.06090  -0.99987  -0.84087  -0.82689  -0.77559
 Alpha  occ. eigenvalues --   -0.75124  -0.68822  -0.67646  -0.64753  -0.61855
 Alpha  occ. eigenvalues --   -0.59456  -0.54960  -0.53730  -0.51996  -0.50651
 Alpha  occ. eigenvalues --   -0.49007  -0.45363  -0.42986  -0.41119  -0.39839
 Alpha  occ. eigenvalues --   -0.38219  -0.36960  -0.36047  -0.35342  -0.34649
 Alpha  occ. eigenvalues --   -0.33712  -0.32733  -0.32349  -0.32059  -0.31372
 Alpha  occ. eigenvalues --   -0.30068  -0.27979  -0.27542  -0.26527  -0.25420
 Alpha  occ. eigenvalues --   -0.25308  -0.24711  -0.21239  -0.20735  -0.20133
 Alpha  occ. eigenvalues --   -0.18874  -0.15942  -0.10859   0.04050
 Alpha virt. eigenvalues --    0.05975   0.06501   0.07217   0.07373   0.07684
 Alpha virt. eigenvalues --    0.08074   0.08454   0.08745   0.09046   0.10212
 Alpha virt. eigenvalues --    0.10467   0.10713   0.10756   0.11253   0.12126

  Beta  occ. eigenvalues --  -14.31806 -14.25911 -14.22686 -14.22443 -10.15517
  Beta  occ. eigenvalues --  -10.13985 -10.13880 -10.12185 -10.10457 -10.09713
  Beta  occ. eigenvalues --  -10.08476 -10.08423 -10.08389 -10.07411 -10.07258
  Beta  occ. eigenvalues --  -10.06049  -0.99974  -0.84035  -0.82676  -0.77538
  Beta  occ. eigenvalues --   -0.75101  -0.68791  -0.67620  -0.64704  -0.61817
  Beta  occ. eigenvalues --   -0.59421  -0.54935  -0.53678  -0.51962  -0.50602
  Beta  occ. eigenvalues --   -0.48951  -0.45339  -0.42932  -0.41082  -0.39788
  Beta  occ. eigenvalues --   -0.38199  -0.36919  -0.35997  -0.35310  -0.34627
  Beta  occ. eigenvalues --   -0.33690  -0.32688  -0.32306  -0.32017  -0.31343
  Beta  occ. eigenvalues --   -0.30040  -0.27931  -0.27502  -0.26488  -0.25401
  Beta  occ. eigenvalues --   -0.25265  -0.24672  -0.21204  -0.20712  -0.20107
  Beta  occ. eigenvalues --   -0.18829  -0.15921  -0.10825
  Beta virt. eigenvalues --    0.06245   0.06569   0.07160   0.07423   0.07777
  Beta virt. eigenvalues --    0.07934   0.08231   0.09087   0.09236   0.09340
  Beta virt. eigenvalues --    0.10235   0.10658   0.10777   0.11202   0.11813

 Mulliken charges and spin densities:
               1          2
     1  C    1.058624  -1.518005
     2  C   -0.140331  -0.120042
     3  N   -0.108352   0.082197
     4  C    1.793559  -2.481350
     5  C    1.536339  -1.609764
     6  C    0.112090   0.368197
     7  C   -0.144903   1.048731
     8  C   -0.386467  -0.125738
     9  C   -2.080912   2.023659
    10  C    0.743820  -1.577232
    11  N    0.073701  -0.009373
    12  C   -0.180308   0.008276
    13  N   -0.134824  -0.006316
    14  C   -0.071287  -0.070137
    15  N   -0.220132   0.066051
    16  C   -0.476302  -0.211359
    17  H   -0.161062   0.288326
    18  H   -0.308310   0.429861
    19  H   -0.223907   0.379464
    20  H   -0.037045   0.168862
    21  H   -0.886379   1.087146
    22  H   -0.018130   0.273130
    23  H    0.103011   0.058370
    24  H   -0.315454   0.473112
    25  H   -1.084713   1.263915
    26  H   -0.060421   0.285794
    27  H    0.117851   0.057711
    28  H    0.183581   0.024691
    29  H    0.138027   0.011539
    30  H    0.103386   0.054321
    31  H   -0.112473   0.257006
    32  H    0.187727   0.018955
 Sum of Mulliken charges =  -1.00000   1.00000

 Dipole moment (field-independent basis, Debye):
    X=             -9.6312    Y=              3.3278    Z=              0.7948  Tot=             10.2209
 Quadrupole moment (field-independent basis, Debye-Ang):
   XX=           -214.4453   YY=           -140.3035   ZZ=           -130.0326
   XY=              4.9251   XZ=              1.1669   YZ=              1.3873

 Summary of Natural Population Analysis:

                                       Natural Population
                Natural  -----------------------------------------------
    Atom  No    Charge         Core      Valence    Rydberg      Total
 -----------------------------------------------------------------------
      C    1   -0.29371      0.99966     2.28918    0.00487     3.29371
      C    2   -0.08792      0.99963     2.07709    0.01119     3.08792
      N    3   -0.30762      0.99968     2.79558    0.01236     3.80762
      C    4    0.10297      0.99949     1.88571    0.01183     2.89703
      C    5   -0.13000      0.99948     2.12230    0.00822     3.13000
      C    6    0.00121      0.99948     1.98981    0.00950     2.99879
      C    7   -0.06641      0.99945     2.05664    0.01032     3.06641
      C    8   -0.08349      0.99952     2.07355    0.01042     3.08349
      C    9   -0.12077      0.99952     2.11098    0.01026     3.12077
      C   10   -0.08826      0.99957     2.07624    0.01244     3.08826
      N   11   -0.11139      0.99965     2.59874    0.01300     3.61139
      C   12    0.11026      0.99963     1.87497    0.01515     2.88974
      N   13   -0.26640      0.99974     2.75573    0.01094     3.76640
      C   14    0.08114      0.99971     1.89966    0.01949     2.91886
      N   15   -0.15861      0.99974     2.64843    0.01044     3.65861
      C   16   -0.29485      0.99963     2.29055    0.00466     3.29485
      H   17    0.09915      0.00000     0.39960    0.00125     0.40085
      H   18    0.10030      0.00000     0.39816    0.00154     0.39970
      H   19    0.10104      0.00000     0.39716    0.00180     0.39896
      H   20    0.09040      0.00000     0.40816    0.00144     0.40960
      H   21    0.10075      0.00000     0.39689    0.00235     0.39925
      H   22    0.19037      0.00000     0.30342    0.00621     0.30963
      H   23    0.10140      0.00000     0.39688    0.00172     0.39860
      H   24    0.10094      0.00000     0.39765    0.00141     0.39906
      H   25    0.10438      0.00000     0.39299    0.00263     0.39562
      H   26    0.10524      0.00000     0.39352    0.00124     0.39476
      H   27    0.10891      0.00000     0.38961    0.00147     0.39109
      H   28    0.10714      0.00000     0.39137    0.00149     0.39286
      H   29    0.09103      0.00000     0.40817    0.00080     0.40897
      H   30    0.10264      0.00000     0.39629    0.00107     0.39736
      H   31    0.10395      0.00000     0.39526    0.00079     0.39605
      H   32    0.10618      0.00000     0.39269    0.00113     0.39382
 =======================================================================
   * Total *   -0.00000     15.99360    41.80297    0.20342    58.00000

 Normal termination of Gaussian 16 at Thu Dec 10 23:07:44 2020.
