 Gaussian 16, Revision A.03,

 -----------------------------------------------------------
 # opt freq B3LYP/6-31G(d) empiricaldispersion=gd3bj scf=xqc
 -----------------------------------------------------------

 -------------------------------
 CID_139248911_JID_1241_neutraal
 -------------------------------
 Symbolic Z-matrix:
 Charge =  0 Multiplicity = 1

 SCF Done:  E(RB3LYP) =  -504.224391218     A.U. after   13 cycles
 SCF Done:  E(RB3LYP) =  -504.227046675     A.U. after   11 cycles
 SCF Done:  E(RB3LYP) =  -504.232183974     A.U. after   11 cycles
 SCF Done:  E(RB3LYP) =  -504.233326754     A.U. after   11 cycles
 SCF Done:  E(RB3LYP) =  -504.235064673     A.U. after   11 cycles
 SCF Done:  E(RB3LYP) =  -504.236765701     A.U. after   11 cycles
 SCF Done:  E(RB3LYP) =  -504.238382068     A.U. after   11 cycles
 SCF Done:  E(RB3LYP) =  -504.239762922     A.U. after   11 cycles
 SCF Done:  E(RB3LYP) =  -504.240463940     A.U. after   11 cycles
 SCF Done:  E(RB3LYP) =  -504.240997646     A.U. after   10 cycles
 SCF Done:  E(RB3LYP) =  -504.247327724     A.U. after   11 cycles
 SCF Done:  E(RB3LYP) =  -504.247351399     A.U. after    9 cycles
 SCF Done:  E(RB3LYP) =  -504.247362932     A.U. after    9 cycles
 SCF Done:  E(RB3LYP) =  -504.247364748     A.U. after    7 cycles
 SCF Done:  E(RB3LYP) =  -504.247365196     A.U. after    7 cycles
 SCF Done:  E(RB3LYP) =  -504.247365324     A.U. after    6 cycles
 Optimization completed.
    -- Stationary point found.

 1\1\GINC-NODE303\FOpt\RB3LYP\6-31G(d)\C9H18O2\VSC10255\08-Dec-2020\0\\
 # opt freq B3LYP/6-31G(d) empiricaldispersion=gd3bj scf=xqc\\CID_13924
 8911_JID_1241_neutraal\\0,1\C,1.2881615962,0.377893551,1.0414813712\C,
 0.4945443219,-0.4535408021,0.0284451024\C,0.4894976524,-1.9636669367,0
 .312768652\C,-0.0445026407,-2.4096592456,1.6863391829\C,-1.482299158,-
 2.0142174896,1.9786120757\C,-2.6251083592,-2.5388102652,1.1377703098\C
 ,-2.4950077807,-2.9605563062,2.5870629324\C,-2.1103275468,-4.389447606
 ,2.9218710125\C,-3.5187602898,-2.4032558501,3.584231416\O,-4.130293384

 Normal termination of Gaussian 16 at Tue Dec  8 19:40:06 2020.

 --------------------------------------------------------------------
 #N Geom=AllCheck Guess=TCheck SCRF=Check GenChk RB3LYP/6-31G(d) Freq
 --------------------------------------------------------------------

 Structure from the checkpoint file:  "JID_1241.chk"
 -------------------------------
 CID_139248911_JID_1241_neutraal
 -------------------------------
 Charge =  0 Multiplicity = 1

 SCF Done:  E(RB3LYP) =  -504.247365324     A.U. after    1 cycles

  Exact polarizability: 116.960  -3.365  95.036   1.848  -0.864  87.837
 Approx polarizability: 142.530  -2.228 135.241   1.251  -0.998 133.130

                      1                      2                      3
                      A                      A                      A
 Frequencies --     37.2164                92.2654               105.3379
 Red. masses --      3.1247                 3.4264                 3.2540
 Frc consts  --      0.0025                 0.0172                 0.0213
 IR Inten    --      0.0149                 0.3612                 1.6665

                      4                      5                      6
                      A                      A                      A
 Frequencies --    155.9923               159.7372               180.6030
 Red. masses --      1.8997                 2.5447                 1.3914
 Frc consts  --      0.0272                 0.0383                 0.0267
 IR Inten    --      1.0954                 3.4246                 1.3809

                      7                      8                      9
                      A                      A                      A
 Frequencies --    224.3537               235.2678               282.5761
 Red. masses --      2.1706                 1.5793                 2.8937
 Frc consts  --      0.0644                 0.0515                 0.1361
 IR Inten    --      0.5980                 0.4225                 5.8040

                     10                     11                     12
                      A                      A                      A
 Frequencies --    286.8792               304.2717               349.8816
 Red. masses --      2.0235                 2.6347                 1.8854
 Frc consts  --      0.0981                 0.1437                 0.1360
 IR Inten    --      4.2324                16.4856                11.8843

                     13                     14                     15
                      A                      A                      A
 Frequencies --    364.7686               402.5476               418.7781
 Red. masses --      2.3903                 1.3305                 2.1914
 Frc consts  --      0.1874                 0.1270                 0.2264
 IR Inten    --     12.5839                86.6468                10.1492

                     16                     17                     18
                      A                      A                      A
 Frequencies --    448.0823               481.3535               545.9634
 Red. masses --      2.2342                 2.7211                 3.2964
 Frc consts  --      0.2643                 0.3715                 0.5789
 IR Inten    --      9.3389                24.5584                 3.2795

                     19                     20                     21
                      A                      A                      A
 Frequencies --    555.8414               650.6558               679.0395
 Red. masses --      2.3812                 1.1541                 2.4895
 Frc consts  --      0.4335                 0.2879                 0.6763
 IR Inten    --     16.7748               140.2994                 6.8707

                     22                     23                     24
                      A                      A                      A
 Frequencies --    736.6960               778.0164               812.8015
 Red. masses --      2.6552                 1.4484                 2.5975
 Frc consts  --      0.8490                 0.5165                 1.0111
 IR Inten    --      7.7295                 2.0664                 0.7320

                     25                     26                     27
                      A                      A                      A
 Frequencies --    885.2485               903.1034               906.3787
 Red. masses --      1.4126                 2.3867                 1.4469
 Frc consts  --      0.6522                 1.1469                 0.7003
 IR Inten    --      1.9353                 2.1287                 3.8372

                     28                     29                     30
                      A                      A                      A
 Frequencies --    931.4937               954.2328               975.8330
 Red. masses --      2.1271                 1.6780                 1.5605
 Frc consts  --      1.0874                 0.9002                 0.8755
 IR Inten    --     10.0515                 8.2687                 5.6410

                     31                     32                     33
                      A                      A                      A
 Frequencies --    988.0171              1024.4709              1054.6068
 Red. masses --      1.6950                 1.4807                 1.3196
 Frc consts  --      0.9749                 0.9156                 0.8647
 IR Inten    --      2.4203                 5.8713                 4.6048

                     34                     35                     36
                      A                      A                      A
 Frequencies --   1072.9208              1101.0858              1111.6587
 Red. masses --      2.0544                 1.6545                 3.9105
 Frc consts  --      1.3934                 1.1819                 2.8472
 IR Inten    --     17.7768                28.6744                72.3707

                     37                     38                     39
                      A                      A                      A
 Frequencies --   1129.5632              1136.5323              1167.4162
 Red. masses --      1.8370                 1.7847                 2.5620
 Frc consts  --      1.3809                 1.3583                 2.0572
 IR Inten    --     12.1563                 6.2984                14.2843

                     40                     41                     42
                      A                      A                      A
 Frequencies --   1212.0672              1251.5931              1266.6065
 Red. masses --      2.7979                 1.6549                 1.2810
 Frc consts  --      2.4218                 1.5274                 1.2108
 IR Inten    --     17.1875                 4.4627                 6.4028

                     43                     44                     45
                      A                      A                      A
 Frequencies --   1277.4073              1293.1152              1315.7656
 Red. masses --      1.2564                 1.6667                 1.5059
 Frc consts  --      1.2079                 1.6420                 1.5361
 IR Inten    --     13.7730                29.5433                15.1589

                     46                     47                     48
                      A                      A                      A
 Frequencies --   1336.0833              1375.5817              1388.7711
 Red. masses --      1.2081                 1.4647                 1.7090
 Frc consts  --      1.2706                 1.6329                 1.9420
 IR Inten    --      0.6939                14.1475                 6.8360

                     49                     50                     51
                      A                      A                      A
 Frequencies --   1409.1459              1420.0846              1432.5240
 Red. masses --      1.3692                 1.5155                 1.3640
 Frc consts  --      1.6019                 1.8007                 1.6492
 IR Inten    --      1.9282                 1.9180                 1.8245

                     52                     53                     54
                      A                      A                      A
 Frequencies --   1444.8190              1447.0949              1487.8491
 Red. masses --      1.2726                 1.2793                 1.2197
 Frc consts  --      1.5652                 1.5784                 1.5909
 IR Inten    --      3.2586                 5.9376                90.7773

                     55                     56                     57
                      A                      A                      A
 Frequencies --   1500.9250              1509.8623              1515.8952
 Red. masses --      1.1554                 1.2922                 1.1133
 Frc consts  --      1.5335                 1.7356                 1.5074
 IR Inten    --      7.0275                 6.2808                 6.7523

                     58                     59                     60
                      A                      A                      A
 Frequencies --   1525.3885              1531.3336              1532.0098
 Red. masses --      1.0734                 1.0462                 1.0701
 Frc consts  --      1.4715                 1.4455                 1.4797
 IR Inten    --      5.7940                 3.1050                 6.6235

                     61                     62                     63
                      A                      A                      A
 Frequencies --   1537.6401              1542.5925              1551.1121
 Red. masses --      1.0667                 1.1227                 1.0756
 Frc consts  --      1.4860                 1.5740                 1.5247
 IR Inten    --      3.3340                 7.4929                 6.1905

                     64                     65                     66
                      A                      A                      A
 Frequencies --   2975.2760              3004.6267              3030.1167
 Red. masses --      1.0713                 1.0723                 1.0616
 Frc consts  --      5.5873                 5.7037                 5.7426
 IR Inten    --     78.7941                38.8291                25.9389

                     67                     68                     69
                      A                      A                      A
 Frequencies --   3043.0643              3049.7454              3059.2768
 Red. masses --      1.0385                 1.0386                 1.0813
 Frc consts  --      5.6659                 5.6913                 5.9624
 IR Inten    --     28.7233                21.8209                26.0965

                     70                     71                     72
                      A                      A                      A
 Frequencies --   3060.2969              3072.7039              3074.4343
 Red. masses --      1.0837                 1.0914                 1.0874
 Frc consts  --      5.9799                 6.0715                 6.0556
 IR Inten    --     28.4921                68.4863                44.3046

                     73                     74                     75
                      A                      A                      A
 Frequencies --   3099.0335              3107.1861              3112.4724
 Red. masses --      1.1016                 1.1002                 1.1019
 Frc consts  --      6.2336                 6.2583                 6.2894
 IR Inten    --     32.7819                34.4029                34.1545

                     76                     77                     78
                      A                      A                      A
 Frequencies --   3128.4334              3130.3831              3140.3985
 Red. masses --      1.1015                 1.0965                 1.0557
 Frc consts  --      6.3517                 6.3306                 6.1342
 IR Inten    --     23.9100                32.3154                16.5842

                     79                     80                     81
                      A                      A                      A
 Frequencies --   3229.5533              3662.9927              3741.3835
 Red. masses --      1.1166                 1.0644                 1.0656
 Frc consts  --      6.8617                 8.4144                 8.7883
 IR Inten    --      3.6237               131.2830                23.9469

 - Thermochemistry -
 -------------------
 Temperature   298.150 Kelvin.  Pressure   1.00000 Atm.
 Atom     1 has atomic number  6 and mass  12.00000

 Molecular mass:   158.13068 amu.
 Principal axes and moments of inertia in atomic units:
                           1         2         3
     Eigenvalues --   974.599382745.996393251.83185
           X            0.99967  -0.02530   0.00328
           Y            0.02531   0.99967  -0.00322
           Z           -0.00320   0.00330   0.99999
 This molecule is an asymmetric top.
 Rotational symmetry number  1.
 Warning -- assumption of classical behavior for rotation
           may cause significant error
 Rotational temperatures (Kelvin)      0.08887     0.03154     0.02664
 Rotational constants (GHZ):           1.85178     0.65723     0.55499
 Zero-point vibrational energy     690593.0 (Joules/Mol)
                                  165.05569 (Kcal/Mol)
 Warning -- explicit consideration of  19 degrees of freedom as
           vibrations may cause significant error
 Vibrational temperatures:     53.55   132.75   151.56   224.44   229.83
          (Kelvin)            259.85   322.79   338.50   406.56   412.76
                              437.78   503.40   524.82   579.18   602.53
                              644.69   692.56   785.52   799.73   936.15
                              976.99  1059.94  1119.39  1169.44  1273.68
                             1299.36  1304.08  1340.21  1372.93  1404.01
                             1421.54  1473.99  1517.34  1543.69  1584.22
                             1599.43  1625.19  1635.22  1679.65  1743.89
                             1800.76  1822.36  1837.90  1860.50  1893.09
                             1922.33  1979.16  1998.13  2027.45  2043.18
                             2061.08  2078.77  2082.05  2140.68  2159.50
                             2172.36  2181.04  2194.69  2203.25  2204.22
                             2212.32  2219.45  2231.70  4280.76  4322.99
                             4359.66  4378.29  4387.90  4401.62  4403.08
                             4420.94  4423.43  4458.82  4470.55  4478.15
                             4501.12  4503.92  4518.33  4646.61  5270.23
                             5383.02

 Zero-point correction=                           0.263033 (Hartree/Particle)
 Thermal correction to Energy=                    0.275795
 Thermal correction to Enthalpy=                  0.276740
 Thermal correction to Gibbs Free Energy=         0.224695
 Sum of electronic and zero-point Energies=           -503.984332
 Sum of electronic and thermal Energies=              -503.971570
 Sum of electronic and thermal Enthalpies=            -503.970626
 Sum of electronic and thermal Free Energies=         -504.022670

                     E (Thermal)             CV                S
                      KCal/Mol        Cal/Mol-Kelvin    Cal/Mol-Kelvin
 Total                  173.064             48.942            109.536
 Electronic               0.000              0.000              0.000
 Translational            0.889              2.981             41.084
 Rotational               0.889              2.981             30.543
 Vibrational            171.287             42.980             37.909
 Vibration     1          0.594              1.982              5.402
 Vibration     2          0.602              1.955              3.611
 Vibration     3          0.605              1.945              3.353
 Vibration     4          0.620              1.896              2.598
 Vibration     5          0.622              1.892              2.553
 Vibration     6          0.630              1.866              2.322
 Vibration     7          0.649              1.804              1.924
 Vibration     8          0.655              1.787              1.838
 Vibration     9          0.682              1.706              1.518
 Vibration    10          0.684              1.698              1.492
 Vibration    11          0.695              1.666              1.393
 Vibration    12          0.727              1.575              1.167
 Vibration    13          0.738              1.545              1.102
 Vibration    14          0.768              1.465              0.953
 Vibration    15          0.782              1.429              0.896
 Vibration    16          0.807              1.365              0.802
 Vibration    17          0.838              1.291              0.706
 Vibration    18          0.901              1.149              0.553
 Vibration    19          0.911              1.127              0.532

                           ! Non-Optimized Parameters !

 1\1\GINC-NODE303\Freq\RB3LYP\6-31G(d)\C9H18O2\VSC10255\08-Dec-2020\0\\
 #N Geom=AllCheck Guess=TCheck SCRF=Check GenChk RB3LYP/6-31G(d) Freq\\
 CID_139248911_JID_1241_neutraal\\0,1\C,1.2881615962,0.377893551,1.0414
 813712\C,0.4945443219,-0.4535408021,0.0284451024\C,0.4894976524,-1.963
 6669367,0.312768652\C,-0.0445026407,-2.4096592456,1.6863391829\C,-1.48
 2299158,-2.0142174896,1.9786120757\C,-2.6251083592,-2.5388102652,1.137
 7703098\C,-2.4950077807,-2.9605563062,2.5870629324\C,-2.1103275468,-4.
 389447606,2.9218710125\C,-3.5187602898,-2.4032558501,3.584231416\O,-4.

 Normal termination of Gaussian 16 at Tue Dec  8 19:46:15 2020.

 ----------------------------------------------------------------------
 # B3LYP/6-311++G(d,p) empiricaldispersion=gd3bj scf=xqc pop=npa geom=c
 heck
 ----------------------------------------------------------------------

 ---------------------------------------
 CID_139248911_JID_1241_Energie_neutraal
 ---------------------------------------
 Structure from the checkpoint file:  "JID_1241.chk"
 Charge =  0 Multiplicity = 1

 SCF Done:  E(RB3LYP) =  -504.407310953     A.U. after   13 cycles
 Normal termination of Gaussian 16 at Tue Dec  8 19:48:43 2020.

 ----------------------------------------------------------------------
 # B3LYP/6-311++G(d,p) empiricaldispersion=gd3bj scf=xqc pop=npa geom=c
 heck
 ----------------------------------------------------------------------

 -------------------------------------
 CID_139248911_JID_1241_Energie_kation
 -------------------------------------
 Structure from the checkpoint file:  "JID_1241.chk"
 Charge =  1 Multiplicity = 2

 SCF Done:  E(UB3LYP) =  -504.070432270     A.U. after   25 cycles
 Normal termination of Gaussian 16 at Tue Dec  8 19:54:51 2020.
 Gaussian 16:  ES64L-G16RevA.03 25-Dec-2016

 ------------------------------------
 CID_139248911_JID_1241_Energie_anion
 ------------------------------------
 Structure from the checkpoint file:  "JID_1241.chk"
 Charge = -1 Multiplicity = 2

                         Standard orientation:
 ---------------------------------------------------------------------
 Center     Atomic      Atomic             Coordinates (Angstroms)
 Number     Number       Type             X           Y           Z
 ---------------------------------------------------------------------
      1          6           0        3.405266   -0.898353   -0.676474
      2          6           0        2.929560   -0.213732    0.608964
      3          6           0        2.173961    1.105073    0.382755
      4          6           0        0.922350    1.043381   -0.511909
      5          6           0       -0.175516    0.114151   -0.021726
      6          6           0       -0.879968    0.360038    1.294144
      7          6           0       -1.640296    0.495742   -0.009210
      8          6           0       -2.083112    1.867990   -0.481074
      9          6           0       -2.684882   -0.578386   -0.337973
     10          8           0       -2.487206   -1.830339    0.285427
     11          8           0        0.066084   -1.248827   -0.384835
     12          1           0        2.563468   -1.217873   -1.298918
     13          1           0        4.012380   -1.782320   -0.451881
     14          1           0        4.020412   -0.215041   -1.274219
     15          1           0        2.308063   -0.904049    1.200672
     16          1           0        3.797055   -0.004865    1.248255
     17          1           0        1.885580    1.514671    1.359769
     18          1           0        2.870493    1.829856   -0.060932
     19          1           0        0.531227    2.061583   -0.598432
     20          1           0        1.190424    0.732385   -1.528625
     21          1           0       -1.120727   -0.509044    1.899394
     22          1           0       -0.630135    1.261560    1.849028
     23          1           0       -2.169384    1.907261   -1.574293
     24          1           0       -3.066794    2.108248   -0.059772
     25          1           0       -1.396725    2.660044   -0.169842
     26          1           0       -3.662952   -0.218718    0.003068
     27          1           0       -2.743005   -0.680569   -1.435641
     28          1           0       -1.593744   -2.103719    0.007836
     29          1           0        0.769162   -1.581505    0.194820
 ---------------------------------------------------------------------

 SCF Done:  E(UB3LYP) =  -504.393393516     A.U. after   26 cycles

 The electronic state is 2-A.
 Alpha  occ. eigenvalues --  -19.03778 -19.01162 -10.13153 -10.11674 -10.08733
 Alpha  occ. eigenvalues --  -10.06693 -10.06634 -10.06424 -10.06358 -10.06016
 Alpha  occ. eigenvalues --  -10.05234  -0.94429  -0.91492  -0.76399  -0.69438
 Alpha  occ. eigenvalues --   -0.63788  -0.61914  -0.57687  -0.55420  -0.50087
 Alpha  occ. eigenvalues --   -0.47172  -0.44591  -0.41752  -0.38888  -0.37762
 Alpha  occ. eigenvalues --   -0.36605  -0.35131  -0.34135  -0.32724  -0.31438
 Alpha  occ. eigenvalues --   -0.30195  -0.29665  -0.29388  -0.27630  -0.27503
 Alpha  occ. eigenvalues --   -0.26698  -0.24590  -0.23095  -0.22991  -0.22664
 Alpha  occ. eigenvalues --   -0.21599  -0.17348  -0.16790  -0.16497   0.04535
 Alpha virt. eigenvalues --    0.06625   0.07711   0.08112   0.09033   0.09338
 Alpha virt. eigenvalues --    0.09610   0.10405   0.10796   0.11824   0.12288
 Alpha virt. eigenvalues --    0.12401   0.12969   0.13383   0.13914   0.14600

  Beta  occ. eigenvalues --  -19.03753 -19.01156 -10.13150 -10.11661 -10.08731
  Beta  occ. eigenvalues --  -10.06659 -10.06613 -10.06407 -10.06324 -10.05989
  Beta  occ. eigenvalues --  -10.05198  -0.94383  -0.91475  -0.76380  -0.69387
  Beta  occ. eigenvalues --   -0.63742  -0.61865  -0.57639  -0.55351  -0.50026
  Beta  occ. eigenvalues --   -0.47091  -0.44534  -0.41718  -0.38859  -0.37717
  Beta  occ. eigenvalues --   -0.36564  -0.35079  -0.34103  -0.32694  -0.31411
  Beta  occ. eigenvalues --   -0.30159  -0.29626  -0.29339  -0.27590  -0.27463
  Beta  occ. eigenvalues --   -0.26661  -0.24561  -0.23049  -0.22944  -0.22617
  Beta  occ. eigenvalues --   -0.21560  -0.17332  -0.16770  -0.16474
  Beta virt. eigenvalues --    0.06826   0.07577   0.08443   0.08642   0.09574
  Beta virt. eigenvalues --    0.09844   0.10127   0.10939   0.11097   0.12241
  Beta virt. eigenvalues --    0.12562   0.12785   0.13315   0.13772   0.14178

 Mulliken charges and spin densities:
               1          2
     1  C    1.453593  -2.084995
     2  C   -0.684353   0.563503
     3  C    0.490445  -0.760781
     4  C    0.390373  -0.640432
     5  C   -1.134316   0.607411
     6  C    0.508791  -1.412251
     7  C   -0.090759   1.173528
     8  C    1.235808  -1.700748
     9  C   -0.173040  -0.248347
    10  O   -0.257041   0.013746
    11  O   -0.232009  -0.005787
    12  H   -0.225664   0.379669
    13  H   -0.385954   0.527826
    14  H   -0.096556   0.231504
    15  H   -0.303278   0.406833
    16  H   -0.759297   0.949669
    17  H    0.041617   0.082963
    18  H   -0.578818   0.748723
    19  H   -0.167156   0.332701
    20  H    0.138571   0.039464
    21  H    0.191894   0.007706
    22  H   -0.250584   0.419562
    23  H   -0.197641   0.349626
    24  H   -0.052340   0.177094
    25  H   -0.389010   0.536314
    26  H    0.063955   0.096623
    27  H    0.025007   0.132186
    28  H    0.124933   0.125589
    29  H    0.312828  -0.048900
 Sum of Mulliken charges =  -1.00000   1.00000

 Dipole moment (field-independent basis, Debye):
    X=             -4.6176    Y=             -1.4889    Z=             -0.5819  Tot=              4.8865
 Quadrupole moment (field-independent basis, Debye-Ang):
   XX=           -144.8357   YY=           -117.5142   ZZ=           -100.9014
   XY=              0.0010   XZ=             -3.6060   YZ=              0.6465

 Summary of Natural Population Analysis:

                                       Natural Population
                Natural  -----------------------------------------------
    Atom  No    Charge         Core      Valence    Rydberg      Total
 -----------------------------------------------------------------------
      C    1   -0.29181      0.99966     2.28614    0.00601     3.29181
      C    2   -0.19051      0.99964     2.18237    0.00850     3.19051
      C    3   -0.18621      0.99962     2.17748    0.00911     3.18621
      C    4   -0.20189      0.99957     2.19256    0.00975     3.20189
      C    5    0.12989      0.99940     1.85475    0.01596     2.87011
      C    6   -0.20955      0.99954     2.19977    0.01023     3.20955
      C    7   -0.05695      0.99952     2.04501    0.01242     3.05695
      C    8   -0.28293      0.99962     2.27675    0.00656     3.28293
      C    9    0.00014      0.99954     1.98833    0.01199     2.99986
      O   10   -0.37940      0.99990     3.37261    0.00689     4.37940
      O   11   -0.38178      0.99988     3.37493    0.00697     4.38178
      H   12    0.09904      0.00000     0.39979    0.00117     0.40096
      H   13    0.10016      0.00000     0.39845    0.00139     0.39984
      H   14    0.09729      0.00000     0.40153    0.00119     0.40271
      H   15    0.08322      0.00000     0.41498    0.00180     0.41678
      H   16    0.10130      0.00000     0.39654    0.00216     0.39870
      H   17    0.09778      0.00000     0.40043    0.00179     0.40222
      H   18    0.09768      0.00000     0.40082    0.00150     0.40232
      H   19    0.10657      0.00000     0.39163    0.00180     0.39343
      H   20    0.10313      0.00000     0.39541    0.00146     0.39687
      H   21    0.11206      0.00000     0.38655    0.00139     0.38794
      H   22    0.10614      0.00000     0.39268    0.00118     0.39386
      H   23    0.10128      0.00000     0.39744    0.00128     0.39872
      H   24    0.09959      0.00000     0.39929    0.00112     0.40041
      H   25    0.10559      0.00000     0.39297    0.00144     0.39441
      H   26    0.08442      0.00000     0.41426    0.00132     0.41558
      H   27    0.07754      0.00000     0.42117    0.00129     0.42246
      H   28    0.24066      0.00000     0.25592    0.00341     0.25934
      H   29    0.23755      0.00000     0.25933    0.00312     0.26245
 =======================================================================
   * Total *    0.00000     10.99591    32.86990    0.13419    44.00000

 Normal termination of Gaussian 16 at Tue Dec  8 20:00:34 2020.
