 Gaussian 16, Revision A.03,

 -----------------------------------------------------------
 # opt freq B3LYP/6-31G(d) empiricaldispersion=gd3bj scf=xqc
 -----------------------------------------------------------

 ------------------------------
 CID_102550736_JID_390_neutraal
 ------------------------------
 Symbolic Z-matrix:
 Charge =  0 Multiplicity = 1

 SCF Done:  E(RB3LYP) =  -785.290384163     A.U. after   13 cycles
 SCF Done:  E(RB3LYP) =  -785.293012685     A.U. after   11 cycles
 SCF Done:  E(RB3LYP) =  -785.294225852     A.U. after   11 cycles
 SCF Done:  E(RB3LYP) =  -785.295439968     A.U. after   11 cycles
 SCF Done:  E(RB3LYP) =  -785.296363016     A.U. after   11 cycles
 SCF Done:  E(RB3LYP) =  -785.296527211     A.U. after   11 cycles
 SCF Done:  E(RB3LYP) =  -785.296662516     A.U. after   10 cycles
 SCF Done:  E(RB3LYP) =  -785.296761260     A.U. after   10 cycles
 SCF Done:  E(RB3LYP) =  -785.296767995     A.U. after    9 cycles
 SCF Done:  E(RB3LYP) =  -785.296769492     A.U. after    8 cycles
 SCF Done:  E(RB3LYP) =  -785.296770299     A.U. after    8 cycles
 SCF Done:  E(RB3LYP) =  -785.296770585     A.U. after    7 cycles
 SCF Done:  E(RB3LYP) =  -785.296770647     A.U. after    7 cycles
 Optimization completed.
    -- Stationary point found.
 Normal termination of Gaussian 16 at Tue Dec  8 10:33:51 2020.

 --------------------------------------------------------------------
 #N Geom=AllCheck Guess=TCheck SCRF=Check GenChk RB3LYP/6-31G(d) Freq
 --------------------------------------------------------------------

 Structure from the checkpoint file:  "JID_390.chk"
 ------------------------------
 CID_102550736_JID_390_neutraal
 ------------------------------
 Charge =  0 Multiplicity = 1

 SCF Done:  E(RB3LYP) =  -785.296770647     A.U. after    1 cycles

  Exact polarizability: 127.592  -2.824 103.424  -6.303  -0.747  87.500
 Approx polarizability: 157.591  -2.855 148.347 -10.040  -1.969 134.600

                      1                      2                      3
                      A                      A                      A
 Frequencies --     38.7909                50.0768                61.1512
 Red. masses --      3.1803                 3.2461                 3.7377
 Frc consts  --      0.0028                 0.0048                 0.0082
 IR Inten    --      0.1036                 0.2137                 1.3508

                      4                      5                      6
                      A                      A                      A
 Frequencies --    122.7287               159.2552               169.9054
 Red. masses --      2.9326                 2.4344                 2.0199
 Frc consts  --      0.0260                 0.0364                 0.0344
 IR Inten    --      0.4414                 0.1999                 1.2116

                      7                      8                      9
                      A                      A                      A
 Frequencies --    184.8009               208.1302               242.2297
 Red. masses --      1.5436                 3.1655                 2.1147
 Frc consts  --      0.0311                 0.0808                 0.0731
 IR Inten    --      0.1256                 2.7760                 2.0371

                     10                     11                     12
                      A                      A                      A
 Frequencies --    255.9775               270.9909               295.6422
 Red. masses --      1.1625                 1.2112                 1.7428
 Frc consts  --      0.0449                 0.0524                 0.0898
 IR Inten    --      1.4195                 0.1424                 2.2165

                     13                     14                     15
                      A                      A                      A
 Frequencies --    325.4914               335.2963               366.6885
 Red. masses --      1.7358                 2.0514                 2.5538
 Frc consts  --      0.1083                 0.1359                 0.2023
 IR Inten    --     25.1248                20.9097                 3.9293

                     16                     17                     18
                      A                      A                      A
 Frequencies --    426.4123               437.2110               526.8769
 Red. masses --      2.0819                 1.9028                 2.9275
 Frc consts  --      0.2230                 0.2143                 0.4788
 IR Inten    --      3.5778                 1.9334                 5.9165

                     19                     20                     21
                      A                      A                      A
 Frequencies --    583.3517               667.0366               723.0141
 Red. masses --      2.0761                 3.6089                 6.1632
 Frc consts  --      0.4163                 0.9461                 1.8982
 IR Inten    --      7.3463                 0.9282                 0.1150

                     22                     23                     24
                      A                      A                      A
 Frequencies --    779.0863               848.1106               882.6501
 Red. masses --      2.8872                 3.3518                 1.4849
 Frc consts  --      1.0325                 1.4205                 0.6816
 IR Inten    --      3.6045                15.2039                45.4881

                     25                     26                     27
                      A                      A                      A
 Frequencies --    910.0124               933.9734               978.1352
 Red. masses --      1.8290                 1.6703                 1.9014
 Frc consts  --      0.8924                 0.8585                 1.0718
 IR Inten    --    149.9601                 9.2372                27.9383

                     28                     29                     30
                      A                      A                      A
 Frequencies --    988.8747              1010.7421              1034.7747
 Red. masses --      1.2225                 1.4241                 1.7955
 Frc consts  --      0.7044                 0.8572                 1.1328
 IR Inten    --      3.2477                12.6898                 0.6085

                     31                     32                     33
                      A                      A                      A
 Frequencies --   1083.8716              1090.9319              1097.1005
 Red. masses --      2.0554                 1.5375                 1.7917
 Frc consts  --      1.4226                 1.0781                 1.2706
 IR Inten    --     56.3644                13.1716                30.5994

                     34                     35                     36
                      A                      A                      A
 Frequencies --   1124.1801              1137.0985              1166.9308
 Red. masses --      1.9251                 1.2579                 1.2235
 Frc consts  --      1.4334                 0.9583                 0.9816
 IR Inten    --      0.9031                11.2023                 2.9927

                     37                     38                     39
                      A                      A                      A
 Frequencies --   1189.9339              1197.9207              1263.7654
 Red. masses --      1.3903                 1.5533                 1.3721
 Frc consts  --      1.1598                 1.3133                 1.2911
 IR Inten    --      3.7952                 5.0892                 9.6252

                     40                     41                     42
                      A                      A                      A
 Frequencies --   1276.3033              1340.4654              1341.4896
 Red. masses --      1.4218                 1.5016                 1.8984
 Frc consts  --      1.3646                 1.5897                 2.0128
 IR Inten    --     13.0226                 0.6750                36.6946

                     43                     44                     45
                      A                      A                      A
 Frequencies --   1360.2931              1390.5898              1397.7097
 Red. masses --      1.6363                 1.1759                 1.2910
 Frc consts  --      1.7839                 1.3398                 1.4859
 IR Inten    --      7.5176                 1.4819                 3.9989

                     46                     47                     48
                      A                      A                      A
 Frequencies --   1401.4739              1423.8033              1443.6072
 Red. masses --      1.5117                 1.2742                 1.3960
 Frc consts  --      1.7494                 1.5220                 1.7140
 IR Inten    --      9.9643                18.2005                 1.2153

                     49                     50                     51
                      A                      A                      A
 Frequencies --   1470.1604              1492.0152              1498.6116
 Red. masses --      1.1504                 1.1292                 1.0534
 Frc consts  --      1.4650                 1.4810                 1.3939
 IR Inten    --      1.0036                 1.6083                 7.3442

                     52                     53                     54
                      A                      A                      A
 Frequencies --   1501.1566              1507.4169              1512.3673
 Red. masses --      1.0674                 1.0819                 1.0709
 Frc consts  --      1.4172                 1.4485                 1.4432
 IR Inten    --      3.1608                23.7714                 3.3567

                     55                     56                     57
                      A                      A                      A
 Frequencies --   1513.7166              1523.6592              1529.4589
 Red. masses --      1.0612                 1.0745                 1.1080
 Frc consts  --      1.4326                 1.4697                 1.5271
 IR Inten    --     13.3378                12.1514                 9.8891

                     58                     59                     60
                      A                      A                      A
 Frequencies --   1540.7420              1556.4389              1705.9017
 Red. masses --      1.0558                 1.0572                 1.0886
 Frc consts  --      1.4767                 1.5089                 1.8665
 IR Inten    --      6.0497                 8.5210                29.3193

                     61                     62                     63
                      A                      A                      A
 Frequencies --   2934.0054              2945.7026              3026.9744
 Red. masses --      1.0612                 1.0633                 1.0718
 Frc consts  --      5.3824                 5.4359                 5.7859
 IR Inten    --     48.8672               135.5511                10.7648

                     64                     65                     66
                      A                      A                      A
 Frequencies --   3039.3073              3041.7734              3054.1257
 Red. masses --      1.0608                 1.0727                 1.0337
 Frc consts  --      5.7735                 5.8476                 5.6810
 IR Inten    --     12.3349                73.9506                33.0651

                     67                     68                     69
                      A                      A                      A
 Frequencies --   3056.4882              3058.6866              3061.5011
 Red. masses --      1.0698                 1.0650                 1.0690
 Frc consts  --      5.8886                 5.8704                 5.9035
 IR Inten    --     45.2548                11.6998                64.9553

                     70                     71                     72
                      A                      A                      A
 Frequencies --   3074.0743              3081.9873              3107.5611
 Red. masses --      1.0968                 1.1048                 1.1020
 Frc consts  --      6.1066                 6.1832                 6.2698
 IR Inten    --     36.0139                38.6418                41.4791

                     73                     74                     75
                      A                      A                      A
 Frequencies --   3111.9196              3115.1786              3131.1419
 Red. masses --      1.1025                 1.1012                 1.1075
 Frc consts  --      6.2907                 6.2961                 6.3975
 IR Inten    --     38.5072                27.4396                10.7467

                     76                     77                     78
                      A                      A                      A
 Frequencies --   3155.6312              3465.1189              3548.8193
 Red. masses --      1.1032                 1.0493                 1.0923
 Frc consts  --      6.4728                 7.4234                 8.1053
 IR Inten    --      8.0499                 0.9070                 3.1592

 - Thermochemistry -
 -------------------
 Temperature   298.150 Kelvin.  Pressure   1.00000 Atm.
 Atom     1 has atomic number  6 and mass  12.00000

 Molecular mass:   162.11907 amu.
 Principal axes and moments of inertia in atomic units:
                           1         2         3
     Eigenvalues --   971.065633141.545913645.68013
           X            0.99991  -0.01103  -0.00723
           Y            0.01107   0.99992   0.00541
           Z            0.00717  -0.00549   0.99996
 This molecule is an asymmetric top.
 Rotational symmetry number  1.
 Warning -- assumption of classical behavior for rotation
           may cause significant error
 Rotational temperatures (Kelvin)      0.08919     0.02757     0.02376
 Rotational constants (GHZ):           1.85852     0.57448     0.49504
 Zero-point vibrational energy     669349.7 (Joules/Mol)
                                  159.97841 (Kcal/Mol)
 Warning -- explicit consideration of  19 degrees of freedom as
           vibrations may cause significant error
 Vibrational temperatures:     55.81    72.05    87.98   176.58   229.13
          (Kelvin)            244.46   265.89   299.45   348.51   368.29
                              389.90   425.36   468.31   482.42   527.58
                              613.51   629.05   758.06   839.31   959.72
                             1040.26  1120.93  1220.24  1269.94  1309.30
                             1343.78  1407.32  1422.77  1454.23  1488.81
                             1559.45  1569.61  1578.48  1617.44  1636.03
                             1678.95  1712.05  1723.54  1818.28  1836.32
                             1928.63  1930.10  1957.16  2000.75  2010.99
                             2016.41  2048.54  2077.03  2115.23  2146.68
                             2156.17  2159.83  2168.84  2175.96  2177.90
                             2192.21  2200.55  2216.78  2239.37  2454.41
                             4221.38  4238.21  4355.14  4372.89  4376.43
                             4394.21  4397.60  4400.77  4404.82  4422.91
                             4434.29  4471.09  4477.36  4482.05  4505.01
                             4540.25  4985.53  5105.96

 Zero-point correction=                           0.254942 (Hartree/Particle)
 Thermal correction to Energy=                    0.268245
 Thermal correction to Enthalpy=                  0.269190
 Thermal correction to Gibbs Free Energy=         0.214850
 Sum of electronic and zero-point Energies=           -785.041829
 Sum of electronic and thermal Energies=              -785.028525
 Sum of electronic and thermal Enthalpies=            -785.027581
 Sum of electronic and thermal Free Energies=         -785.081921

                     E (Thermal)             CV                S
                      KCal/Mol        Cal/Mol-Kelvin    Cal/Mol-Kelvin
 Total                  168.327             48.017            114.368
 Electronic               0.000              0.000              0.000
 Translational            0.889              2.981             41.158
 Rotational               0.889              2.981             30.787
 Vibrational            166.549             42.056             42.422
 Vibration     1          0.594              1.981              5.320
 Vibration     2          0.595              1.978              4.814
 Vibration     3          0.597              1.973              4.420
 Vibration     4          0.610              1.930              3.057
 Vibration     5          0.621              1.892              2.559
 Vibration     6          0.625              1.880              2.437
 Vibration     7          0.631              1.861              2.279
 Vibration     8          0.641              1.828              2.060
 Vibration     9          0.658              1.776              1.786
 Vibration    10          0.666              1.753              1.689
 Vibration    11          0.675              1.727              1.590
 Vibration    12          0.690              1.682              1.441
 Vibration    13          0.710              1.625              1.282
 Vibration    14          0.716              1.605              1.234
 Vibration    15          0.740              1.541              1.094
 Vibration    16          0.788              1.413              0.870
 Vibration    17          0.798              1.389              0.835
 Vibration    18          0.882              1.191              0.594
 Vibration    19          0.940              1.067              0.479

 Optimization completed.
    -- Stationary point found.
 Normal termination of Gaussian 16 at Tue Dec  8 10:41:41 2020.

 ----------------------------------------------------------------------
 # B3LYP/6-311++G(d,p) empiricaldispersion=gd3bj scf=xqc pop=npa geom=c
 heck
 ----------------------------------------------------------------------

 --------------------------------------
 CID_102550736_JID_390_Energie_neutraal
 --------------------------------------
 Structure from the checkpoint file:  "JID_390.chk"
 Charge =  0 Multiplicity = 1

 SCF Done:  E(RB3LYP) =  -785.442460930     A.U. after   14 cycles
 Normal termination of Gaussian 16 at Tue Dec  8 10:45:33 2020.

 ----------------------------------------------------------------------
 # B3LYP/6-311++G(d,p) empiricaldispersion=gd3bj scf=xqc pop=npa geom=c
 heck
 ----------------------------------------------------------------------

 ------------------------------------
 CID_102550736_JID_390_Energie_kation
 ------------------------------------
 Structure from the checkpoint file:  "JID_390.chk"
 Charge =  1 Multiplicity = 2

 SCF Done:  E(UB3LYP) =  -785.164001089     A.U. after   24 cycles
 Normal termination of Gaussian 16 at Tue Dec  8 10:51:50 2020.
 Gaussian 16:  ES64L-G16RevA.03 25-Dec-2016

 ----------------------------------------------------------------------
 # B3LYP/6-311++G(d,p) empiricaldispersion=gd3bj scf=xqc pop=npa geom=c
 heck
 ----------------------------------------------------------------------

 -----------------------------------
 CID_102550736_JID_390_Energie_anion
 -----------------------------------
 Structure from the checkpoint file:  "JID_390.chk"
 Charge = -1 Multiplicity = 2

                         Standard orientation:
 ---------------------------------------------------------------------
 Center     Atomic      Atomic             Coordinates (Angstroms)
 Number     Number       Type             X           Y           Z
 ---------------------------------------------------------------------
      1          6           0       -2.046552   -1.894485   -0.174869
      2          7           0       -2.467414   -0.560099   -0.547413
      3          6           0       -3.534398   -0.040669    0.282933
      4          6           0       -1.434585    0.406410   -0.896264
      5          6           0       -0.727086    1.186736    0.236796
      6          6           0        0.061947    0.314837    1.238511
      7          6           0        1.132686   -0.624225    0.674936
      8         16           0        2.548620    0.266462   -0.092108
      9          6           0        3.645647   -1.164598   -0.372098
     10          7           0        0.038869    2.264654   -0.402133
     11          1           0       -2.908854   -2.570912   -0.229956
     12          1           0       -1.625641   -1.988652    0.844415
     13          1           0       -1.295398   -2.255343   -0.885566
     14          1           0       -3.256684    0.104863    1.345077
     15          1           0       -3.869613    0.925102   -0.111096
     16          1           0       -4.385730   -0.731806    0.259192
     17          1           0       -0.684434   -0.109903   -1.509553
     18          1           0       -1.888429    1.170038   -1.540144
     19          1           0       -1.511141    1.682237    0.825277
     20          1           0        0.529438    0.979239    1.978161
     21          1           0       -0.649530   -0.306692    1.797419
     22          1           0        1.537309   -1.234327    1.490371
     23          1           0        0.707496   -1.306659   -0.066743
     24          1           0        3.899553   -1.654448    0.573382
     25          1           0        3.183585   -1.890859   -1.047857
     26          1           0        4.562146   -0.787862   -0.832951
     27          1           0        0.537081    2.806260    0.302577
     28          1           0        0.754780    1.870425   -1.011132
 ---------------------------------------------------------------------

 SCF Done:  E(UB3LYP) =  -785.428427487     A.U. after   27 cycles

 The electronic state is 2-A.
 Alpha  occ. eigenvalues --  -88.73674 -14.20207 -14.19377 -10.09853 -10.09437
 Alpha  occ. eigenvalues --  -10.08956 -10.08835 -10.08644 -10.08262 -10.07304
 Alpha  occ. eigenvalues --   -7.82286  -5.78680  -5.78327  -5.77649  -0.82342
 Alpha  occ. eigenvalues --   -0.78834  -0.70534  -0.65521  -0.62159  -0.60659
 Alpha  occ. eigenvalues --   -0.56912  -0.51747  -0.49218  -0.45392  -0.40410
 Alpha  occ. eigenvalues --   -0.38555  -0.37520  -0.35454  -0.34593  -0.33533
 Alpha  occ. eigenvalues --   -0.33123  -0.32265  -0.30927  -0.29192  -0.29129
 Alpha  occ. eigenvalues --   -0.28208  -0.26906  -0.26674  -0.25182  -0.24395
 Alpha  occ. eigenvalues --   -0.23031  -0.21521  -0.14768  -0.12233  -0.10686
 Alpha  occ. eigenvalues --    0.04481
 Alpha virt. eigenvalues --    0.06324   0.07562   0.08074   0.08714   0.09461
 Alpha virt. eigenvalues --    0.09842   0.10612   0.10821   0.11301   0.12086
 Alpha virt. eigenvalues --    0.12220   0.13158   0.13370   0.14180   0.14520

  Beta  occ. eigenvalues --  -88.73669 -14.20202 -14.19374 -10.09849 -10.09409
  Beta  occ. eigenvalues --  -10.08946 -10.08777 -10.08610 -10.08226 -10.07288
  Beta  occ. eigenvalues --   -7.82281  -5.78674  -5.78315  -5.77646  -0.82325
  Beta  occ. eigenvalues --   -0.78824  -0.70499  -0.65482  -0.62121  -0.60603
  Beta  occ. eigenvalues --   -0.56846  -0.51686  -0.49142  -0.45338  -0.40382
  Beta  occ. eigenvalues --   -0.38533  -0.37488  -0.35409  -0.34566  -0.33491
  Beta  occ. eigenvalues --   -0.33080  -0.32214  -0.30895  -0.29152  -0.29095
  Beta  occ. eigenvalues --   -0.28171  -0.26869  -0.26639  -0.25141  -0.24371
  Beta  occ. eigenvalues --   -0.23000  -0.21458  -0.14757  -0.12212  -0.10657
  Beta virt. eigenvalues --    0.06718   0.07304   0.08013   0.08770   0.09131
  Beta virt. eigenvalues --    0.09995   0.10496   0.11004   0.11163   0.11555
  Beta virt. eigenvalues --    0.12453   0.12682   0.13360   0.13721   0.14330

 Mulliken charges and spin densities:
               1          2
     1  C    0.645616  -1.018480
     2  N   -0.246126   0.332762
     3  C    0.446973  -0.837233
     4  C    0.266789  -1.002337
     5  C   -0.648725   0.599168
     6  C    0.045436  -0.639551
     7  C   -0.241081   0.313676
     8  S   -0.316600   0.223626
     9  C    0.948939  -1.492913
    10  N   -0.308673   0.013957
    11  H   -0.350218   0.498800
    12  H   -0.253641   0.376542
    13  H   -0.504214   0.645433
    14  H   -0.184511   0.303555
    15  H   -0.154352   0.292872
    16  H   -0.218772   0.352237
    17  H   -0.007251   0.163754
    18  H    0.246118  -0.040653
    19  H    0.062989   0.142732
    20  H    0.042783   0.111118
    21  H   -0.030782   0.186517
    22  H   -0.433427   0.659416
    23  H    1.081174  -0.977947
    24  H   -0.326597   0.485956
    25  H   -0.571749   0.747396
    26  H   -0.310486   0.472687
    27  H    0.145445   0.068524
    28  H    0.174941   0.018386
 Sum of Mulliken charges =  -1.00000   1.00000

 Dipole moment (field-independent basis, Debye):
    X=             -0.5760    Y=              4.9559    Z=             -0.0561  Tot=              4.9896
 Quadrupole moment (field-independent basis, Debye-Ang):
   XX=           -148.0842   YY=           -117.3801   ZZ=           -107.4889
   XY=              4.4166   XZ=              1.4322   YZ=              1.7840

 Summary of Natural Population Analysis:

                                       Natural Population
                Natural  -----------------------------------------------
    Atom  No    Charge         Core      Valence    Rydberg      Total
 -----------------------------------------------------------------------
      C    1   -0.17483      0.99963     2.16548    0.00972     3.17483
      N    2   -0.28259      0.99974     2.76855    0.01430     3.78259
      C    3   -0.17673      0.99964     2.16817    0.00892     3.17673
      C    4   -0.08335      0.99958     2.07213    0.01164     3.08335
      C    5   -0.02363      0.99960     2.01169    0.01234     3.02363
      C    6   -0.20443      0.99960     2.19296    0.01188     3.20443
      C    7   -0.24959      0.99959     2.23902    0.01098     3.24959
      S    8    0.07176      4.99962     2.90879    0.01982     7.92824
      C    9   -0.34828      0.99963     2.34246    0.00619     3.34828
      N   10   -0.42545      0.99977     2.91649    0.00919     3.92545
      H   11    0.09453      0.00000     0.40400    0.00147     0.40547
      H   12    0.07922      0.00000     0.41901    0.00177     0.42078
      H   13    0.09629      0.00000     0.40206    0.00165     0.40371
      H   14    0.07982      0.00000     0.41858    0.00160     0.42018
      H   15    0.09436      0.00000     0.40460    0.00104     0.40564
      H   16    0.09553      0.00000     0.40329    0.00118     0.40447
      H   17    0.09544      0.00000     0.40303    0.00153     0.40456
      H   18    0.09853      0.00000     0.39998    0.00149     0.40147
      H   19    0.08987      0.00000     0.40836    0.00177     0.41013
      H   20    0.09731      0.00000     0.40117    0.00153     0.40269
      H   21    0.10647      0.00000     0.39152    0.00201     0.39353
      H   22    0.10452      0.00000     0.39344    0.00203     0.39548
      H   23    0.10115      0.00000     0.39637    0.00248     0.39885
      H   24    0.10294      0.00000     0.39434    0.00272     0.39706
      H   25    0.10387      0.00000     0.39336    0.00277     0.39613
      H   26    0.10634      0.00000     0.39230    0.00137     0.39366
      H   27    0.17272      0.00000     0.32524    0.00204     0.32728
      H   28    0.17821      0.00000     0.31886    0.00293     0.32179
 =======================================================================
   * Total *    0.00000     13.99640    30.85523    0.14836    45.00000

 Normal termination of Gaussian 16 at Tue Dec  8 11:00:16 2020.
