 Gaussian 16, Revision A.03,

 -----------------------------------------------------------
 # opt freq B3LYP/6-31G(d) empiricaldispersion=gd3bj scf=xqc
 -----------------------------------------------------------

 ------------------------------
 CID_150227295_JID_558_neutraal
 ------------------------------
 Symbolic Z-matrix:
 Charge =  0 Multiplicity = 1

 SCF Done:  E(RB3LYP) =  -527.757376681     A.U. after   16 cycles
 SCF Done:  E(RB3LYP) =  -527.764670469     A.U. after   14 cycles
 SCF Done:  E(RB3LYP) =  -527.768433804     A.U. after   14 cycles
 SCF Done:  E(RB3LYP) =  -527.771412892     A.U. after   14 cycles
 SCF Done:  E(RB3LYP) =  -527.773543060     A.U. after   14 cycles
 SCF Done:  E(RB3LYP) =  -527.774094790     A.U. after   16 cycles
 SCF Done:  E(RB3LYP) =  -527.774917954     A.U. after   14 cycles
 SCF Done:  E(RB3LYP) =  -527.775606063     A.U. after   13 cycles
 SCF Done:  E(RB3LYP) =  -527.775999814     A.U. after   13 cycles
 SCF Done:  E(RB3LYP) =  -527.776280552     A.U. after   13 cycles
 SCF Done:  E(RB3LYP) =  -527.789036510     A.U. after    9 cycles
 SCF Done:  E(RB3LYP) =  -527.789036947     A.U. after    8 cycles
 SCF Done:  E(RB3LYP) =  -527.789037035     A.U. after    8 cycles
 SCF Done:  E(RB3LYP) =  -527.789037052     A.U. after    7 cycles
 SCF Done:  E(RB3LYP) =  -527.789037048     A.U. after    7 cycles
 SCF Done:  E(RB3LYP) =  -527.789037041     A.U. after    7 cycles
 Optimization completed.
    -- Stationary point found.
 Normal termination of Gaussian 16 at Tue Dec  8 12:50:15 2020.

 --------------------------------------------------------------------
 #N Geom=AllCheck Guess=TCheck SCRF=Check GenChk RB3LYP/6-31G(d) Freq
 --------------------------------------------------------------------

 Structure from the checkpoint file:  "JID_558.chk"
 ------------------------------
 CID_150227295_JID_558_neutraal
 ------------------------------
 Charge =  0 Multiplicity = 1

 SCF Done:  E(RB3LYP) =  -527.789037041     A.U. after    1 cycles

  Exact polarizability:  69.517   6.237  87.156  -3.040  -9.371  68.990
 Approx polarizability:  93.290  14.232 150.758  -5.726 -33.317 105.528

                      1                      2                      3
                      A                      A                      A
 Frequencies --     36.9071                89.3368               106.0271
 Red. masses --      5.1111                 5.6950                 2.4826
 Frc consts  --      0.0041                 0.0268                 0.0164
 IR Inten    --      0.7771                 0.0992                 0.8228

                      4                      5                      6
                      A                      A                      A
 Frequencies --    117.2265               127.2601               162.0549
 Red. masses --      2.0523                 2.3257                 1.3503
 Frc consts  --      0.0166                 0.0222                 0.0209
 IR Inten    --      3.4053                 1.3019                 1.2308

                      7                      8                      9
                      A                      A                      A
 Frequencies --    196.9583               207.1512               277.3228
 Red. masses --      2.1026                 2.6901                 4.7681
 Frc consts  --      0.0481                 0.0680                 0.2161
 IR Inten    --      1.5080                 8.3518                 5.0584

                     10                     11                     12
                      A                      A                      A
 Frequencies --    289.7775               323.7799               365.9803
 Red. masses --      3.9801                 3.7307                 4.1493
 Frc consts  --      0.1969                 0.2304                 0.3274
 IR Inten    --      4.9935                 4.4646                 2.2895

                     13                     14                     15
                      A                      A                      A
 Frequencies --    447.3638               561.5499               579.2192
 Red. masses --      2.1699                 9.5949                 4.2194
 Frc consts  --      0.2559                 1.7827                 0.8340
 IR Inten    --      7.3479                 6.4109                15.1483

                     16                     17                     18
                      A                      A                      A
 Frequencies --    638.8120               721.4605               840.2351
 Red. masses --      5.8459                 3.7985                 5.2850
 Frc consts  --      1.4056                 1.1649                 2.1983
 IR Inten    --     21.8335                 8.9895                17.4876

                     19                     20                     21
                      A                      A                      A
 Frequencies --    864.8332               938.1548               962.4534
 Red. masses --      3.4434                 3.4888                 1.8639
 Frc consts  --      1.5174                 1.8091                 1.0173
 IR Inten    --     23.0979                32.4006                33.0819

                     22                     23                     24
                      A                      A                      A
 Frequencies --   1001.1040              1068.6015              1106.5707
 Red. masses --      3.2773                 3.2356                 4.4887
 Frc consts  --      1.9352                 2.1769                 3.2384
 IR Inten    --     46.0954                10.4162                96.3887

                     25                     26                     27
                      A                      A                      A
 Frequencies --   1131.6264              1183.5219              1189.5527
 Red. masses --      2.9786                 2.4535                 1.3918
 Frc consts  --      2.2474                 2.0248                 1.1603
 IR Inten    --    147.4828                71.3882                13.9022

                     28                     29                     30
                      A                      A                      A
 Frequencies --   1192.6832              1226.6421              1229.1874
 Red. masses --      1.3241                 1.7721                 1.5548
 Frc consts  --      1.1097                 1.5710                 1.3841
 IR Inten    --     13.6322                10.5098                17.0124

                     31                     32                     33
                      A                      A                      A
 Frequencies --   1254.9945              1318.6699              1397.5721
 Red. masses --      4.2577                 1.1473                 1.4117
 Frc consts  --      3.9510                 1.1754                 1.6246
 IR Inten    --     71.2283                17.0266                35.5873

                     34                     35                     36
                      A                      A                      A
 Frequencies --   1420.7425              1431.3140              1485.6703
 Red. masses --      1.4200                 1.1985                 1.0849
 Frc consts  --      1.6888                 1.4466                 1.4109
 IR Inten    --     10.3404                17.2654                 3.5825

                     37                     38                     39
                      A                      A                      A
 Frequencies --   1492.6124              1504.7194              1513.9483
 Red. masses --      1.1381                 1.1658                 1.0546
 Frc consts  --      1.4939                 1.5551                 1.4242
 IR Inten    --      0.7648                 3.5495                 3.3397

                     40                     41                     42
                      A                      A                      A
 Frequencies --   1517.2628              1519.0872              1532.2992
 Red. masses --      1.1452                 1.1089                 1.0542
 Frc consts  --      1.5534                 1.5077                 1.4583
 IR Inten    --      7.4708                 1.1107                 9.8670

                     43                     44                     45
                      A                      A                      A
 Frequencies --   1542.3547              2242.5268              3007.4130
 Red. masses --      1.0548                13.9301                 1.0804
 Frc consts  --      1.4785                41.2742                 5.7574
 IR Inten    --      6.6059               347.7605                24.6156

                     46                     47                     48
                      A                      A                      A
 Frequencies --   3021.3558              3033.3799              3054.9741
 Red. masses --      1.0441                 1.0679                 1.0291
 Frc consts  --      5.6157                 5.7894                 5.6590
 IR Inten    --     65.2612                79.0774                34.7089

                     49                     50                     51
                      A                      A                      A
 Frequencies --   3095.1006              3105.2796              3124.3758
 Red. masses --      1.0948                 1.0985                 1.1061
 Frc consts  --      6.1794                 6.2412                 6.3619
 IR Inten    --     35.0033                15.5397                32.6795

                     52                     53                     54
                      A                      A                      A
 Frequencies --   3141.3732              3157.9312              3505.2991
 Red. masses --      1.1067                 1.1021                 1.0753
 Frc consts  --      6.4345                 6.4757                 7.7848
 IR Inten    --     38.8238                18.3044                 2.4974

 - Thermochemistry -
 -------------------
 Temperature   298.150 Kelvin.  Pressure   1.00000 Atm.
 Atom     1 has atomic number  6 and mass  12.00000

 Molecular mass:   146.08038 amu.
 Principal axes and moments of inertia in atomic units:
                           1         2         3
     Eigenvalues --  1053.209591612.641801965.59638
           X            0.99819  -0.05902   0.01117
           Y            0.05879   0.99808   0.01954
           Z           -0.01230  -0.01885   0.99975
 This molecule is an asymmetric top.
 Rotational symmetry number  1.
 Warning -- assumption of classical behavior for rotation
           may cause significant error
 Rotational temperatures (Kelvin)      0.08224     0.05371     0.04406
 Rotational constants (GHZ):           1.71356     1.11912     0.91816
 Zero-point vibrational energy     428284.7 (Joules/Mol)
                                  102.36250 (Kcal/Mol)
 Warning -- explicit consideration of  15 degrees of freedom as
           vibrations may cause significant error
 Vibrational temperatures:     53.10   128.54   152.55   168.66   183.10
          (Kelvin)            233.16   283.38   298.04   399.01   416.93
                              465.85   526.56   643.66   807.95   833.37
                              919.11  1038.02  1208.91  1244.30  1349.80
                             1384.76  1440.37  1537.48  1592.11  1628.16
                             1702.82  1711.50  1716.01  1764.86  1768.53
                             1805.66  1897.27  2010.79  2044.13  2059.34
                             2137.55  2147.54  2164.96  2178.23  2183.00
                             2185.63  2204.64  2219.10  3226.50  4327.00
                             4347.06  4364.36  4395.43  4453.16  4467.80
                             4495.28  4519.74  4543.56  5043.34

 Zero-point correction=                           0.163125 (Hartree/Particle)
 Thermal correction to Energy=                    0.174399
 Thermal correction to Enthalpy=                  0.175343
 Thermal correction to Gibbs Free Energy=         0.125501
 Sum of electronic and zero-point Energies=           -527.625912
 Sum of electronic and thermal Energies=              -527.614638
 Sum of electronic and thermal Enthalpies=            -527.613694
 Sum of electronic and thermal Free Energies=         -527.663536

                     E (Thermal)             CV                S
                      KCal/Mol        Cal/Mol-Kelvin    Cal/Mol-Kelvin
 Total                  109.437             38.564            104.902
 Electronic               0.000              0.000              0.000
 Translational            0.889              2.981             40.848
 Rotational               0.889              2.981             29.591
 Vibrational            107.659             32.603             34.463
 Vibration     1          0.594              1.982              5.419
 Vibration     2          0.602              1.957              3.675
 Vibration     3          0.605              1.944              3.340
 Vibration     4          0.608              1.935              3.146
 Vibration     5          0.611              1.926              2.987
 Vibration     6          0.622              1.889              2.526
 Vibration     7          0.636              1.844              2.161
 Vibration     8          0.641              1.830              2.069
 Vibration     9          0.678              1.715              1.550
 Vibration    10          0.686              1.693              1.475
 Vibration    11          0.708              1.628              1.291
 Vibration    12          0.739              1.542              1.097
 Vibration    13          0.806              1.367              0.804
 Vibration    14          0.917              1.114              0.521
 Vibration    15          0.936              1.076              0.487

 Optimization completed.
    -- Stationary point found.
 Normal termination of Gaussian 16 at Tue Dec  8 13:08:22 2020.

 ----------------------------------------------------------------------
 # B3LYP/6-311++G(d,p) empiricaldispersion=gd3bj scf=xqc pop=npa geom=c
 heck
 ----------------------------------------------------------------------

 --------------------------------------
 CID_150227295_JID_558_Energie_neutraal
 --------------------------------------
 Structure from the checkpoint file:  "JID_558.chk"
 Charge =  0 Multiplicity = 1

 SCF Done:  E(RB3LYP) =  -527.948299194     A.U. after   15 cycles
 Normal termination of Gaussian 16 at Tue Dec  8 13:11:48 2020.

 ----------------------------------------------------------------------
 # B3LYP/6-311++G(d,p) empiricaldispersion=gd3bj scf=xqc pop=npa geom=c
 heck
 ----------------------------------------------------------------------

 ------------------------------------
 CID_150227295_JID_558_Energie_kation
 ------------------------------------
 Structure from the checkpoint file:  "JID_558.chk"
 Charge =  1 Multiplicity = 2

 SCF Done:  E(UB3LYP) =  -527.622671940     A.U. after   27 cycles
 Normal termination of Gaussian 16 at Tue Dec  8 13:23:57 2020.
 Gaussian 16:  ES64L-G16RevA.03 25-Dec-2016

 ----------------------------------------------------------------------
 # B3LYP/6-311++G(d,p) empiricaldispersion=gd3bj scf=xqc pop=npa geom=c
 heck
 ----------------------------------------------------------------------

 -----------------------------------
 CID_150227295_JID_558_Energie_anion
 -----------------------------------
 Structure from the checkpoint file:  "JID_558.chk"
 Charge = -1 Multiplicity = 2

                         Standard orientation:
 ---------------------------------------------------------------------
 Center     Atomic      Atomic             Coordinates (Angstroms)
 Number     Number       Type             X           Y           Z
 ---------------------------------------------------------------------
      1          6           0       -1.404728   -0.582346   -1.677333
      2          8           0       -1.997976   -0.551746   -0.379067
      3          6           0       -1.137195   -0.301582    0.707130
      4          6           0       -0.104055   -1.397640    0.982961
      5          7           0        0.990946   -1.447426   -0.000580
      6          7           0        2.082535   -0.568583    0.398849
      7          7           0        2.106096    0.465656   -0.296387
      8          7           0        2.254524    1.462225   -0.826883
      9          8           0       -0.440030    0.911358    0.590818
     10          6           0       -1.276282    2.058386    0.537652
     11          1           0       -2.232451   -0.488308   -2.385252
     12          1           0       -0.868767   -1.519405   -1.857852
     13          1           0       -0.705483    0.248208   -1.817881
     14          1           0       -1.825802   -0.261845    1.565786
     15          1           0        0.279363   -1.265707    2.004718
     16          1           0       -0.626430   -2.358931    0.927914
     17          1           0        1.420070   -2.368404    0.057773
     18          1           0       -1.944411    2.030599   -0.330201
     19          1           0       -1.885364    2.141519    1.449904
     20          1           0       -0.611836    2.921365    0.463617
 ---------------------------------------------------------------------

 SCF Done:  E(UB3LYP) =  -527.939700573     A.U. after   30 cycles

 The electronic state is 2-A.
 Alpha  occ. eigenvalues --  -19.01838 -19.01469 -14.30447 -14.22178 -14.21612
 Alpha  occ. eigenvalues --  -14.20542 -10.15253 -10.10590 -10.09254 -10.07317
 Alpha  occ. eigenvalues --   -0.98183  -0.96075  -0.89778  -0.85181  -0.73582
 Alpha  occ. eigenvalues --   -0.63950  -0.58170  -0.55816  -0.47431  -0.42053
 Alpha  occ. eigenvalues --   -0.40948  -0.39688  -0.36725  -0.35749  -0.35495
 Alpha  occ. eigenvalues --   -0.33303  -0.31818  -0.31593  -0.30363  -0.29701
 Alpha  occ. eigenvalues --   -0.28435  -0.25511  -0.24622  -0.21316  -0.19100
 Alpha  occ. eigenvalues --   -0.17123  -0.16249  -0.11768  -0.09795   0.05284
 Alpha virt. eigenvalues --    0.07466   0.08575   0.08908   0.10129   0.11491
 Alpha virt. eigenvalues --    0.11681   0.12094   0.13184   0.13853   0.15023
 Alpha virt. eigenvalues --    0.15124   0.16176   0.17559   0.18245   0.19212

  Beta  occ. eigenvalues --  -19.01826 -19.01468 -14.30161 -14.22245 -14.21169
  Beta  occ. eigenvalues --  -14.20394 -10.15245 -10.10574 -10.09238 -10.07276
  Beta  occ. eigenvalues --   -0.97612  -0.96042  -0.89768  -0.84877  -0.73292
  Beta  occ. eigenvalues --   -0.63857  -0.58134  -0.55650  -0.47340  -0.41859
  Beta  occ. eigenvalues --   -0.40850  -0.39559  -0.36587  -0.35579  -0.34466
  Beta  occ. eigenvalues --   -0.33196  -0.31577  -0.31534  -0.29727  -0.29446
  Beta  occ. eigenvalues --   -0.28213  -0.25462  -0.24553  -0.20619  -0.18933
  Beta  occ. eigenvalues --   -0.17087  -0.16188  -0.11632  -0.09633
  Beta virt. eigenvalues --    0.07601   0.08947   0.09266   0.10461   0.11425
  Beta virt. eigenvalues --    0.11908   0.11959   0.12699   0.13389   0.14258
  Beta virt. eigenvalues --    0.15209   0.15400   0.16406   0.17670   0.18414

 Mulliken charges and spin densities:
               1          2
     1  C    0.065757  -0.367026
     2  O   -0.135838   0.015461
     3  C   -1.120362   0.707106
     4  C    2.337354  -2.616826
     5  N   -0.501024   0.253710
     6  N   -0.510895  -0.153964
     7  N    0.685065   0.063630
     8  N   -0.502822   0.477351
     9  O   -0.089363  -0.006957
    10  C    0.183080  -0.393311
    11  H   -0.085856   0.211931
    12  H   -0.024181   0.183554
    13  H    0.174428  -0.033492
    14  H   -0.353020   0.489688
    15  H   -0.333257   0.490718
    16  H   -0.484113   0.680615
    17  H   -0.293430   0.588256
    18  H    0.066423   0.071241
    19  H   -0.105546   0.226817
    20  H    0.027600   0.111497
 Sum of Mulliken charges =  -1.00000   1.00000

 Dipole moment (field-independent basis, Debye):
    X=             -3.0000    Y=              3.5815    Z=             -1.6989  Tot=              4.9713
 Quadrupole moment (field-independent basis, Debye-Ang):
   XX=            -97.1038   YY=            -95.1098   ZZ=            -83.7526
   XY=             -1.4926   XZ=              1.7131   YZ=              3.8039

 Summary of Natural Population Analysis:

                                       Natural Population
                Natural  -----------------------------------------------
    Atom  No    Charge         Core      Valence    Rydberg      Total
 -----------------------------------------------------------------------
      C    1   -0.10511      0.99959     2.09613    0.00938     3.10511
      O    2   -0.30924      0.99988     3.29949    0.00987     4.30924
      C    3    0.21893      0.99957     1.76008    0.02143     2.78107
      C    4   -0.10772      0.99958     2.09377    0.01436     3.10772
      N    5   -0.24846      0.99973     2.73384    0.01489     3.74846
      N    6   -0.15155      0.99972     2.63541    0.01641     3.65155
      N    7    0.14196      0.99970     2.34256    0.01578     3.35804
      N    8    0.00183      0.99981     2.48481    0.01355     3.49817
      O    9   -0.30313      0.99987     3.29154    0.01172     4.30313
      C   10   -0.09982      0.99960     2.09099    0.00922     3.09982
      H   11    0.08063      0.00000     0.41847    0.00091     0.41937
      H   12    0.09010      0.00000     0.40842    0.00149     0.40990
      H   13    0.08846      0.00000     0.41011    0.00144     0.41154
      H   14    0.07584      0.00000     0.42200    0.00217     0.42416
      H   15    0.09453      0.00000     0.40221    0.00326     0.40547
      H   16    0.09995      0.00000     0.39800    0.00205     0.40005
      H   17    0.18084      0.00000     0.31144    0.00772     0.31916
      H   18    0.08270      0.00000     0.41614    0.00117     0.41730
      H   19    0.07767      0.00000     0.42100    0.00133     0.42233
      H   20    0.09162      0.00000     0.40755    0.00084     0.40838
 =======================================================================
   * Total *    0.00000      9.99706    28.84395    0.15898    39.00000

 Normal termination of Gaussian 16 at Tue Dec  8 13:30:24 2020.
