 Gaussian 16, Revision A.03,

 -----------------------------------------------------------
 # opt freq B3LYP/6-31G(d) empiricaldispersion=gd3bj scf=xqc
 -----------------------------------------------------------

 -------------------------------
 CID_104449617_JID_4501_neutraal
 -------------------------------
 Symbolic Z-matrix:
 Charge =  0 Multiplicity = 1

 SCF Done:  E(RB3LYP) =  -645.595479893     A.U. after   15 cycles
 SCF Done:  E(RB3LYP) =  -645.597776635     A.U. after   12 cycles
 SCF Done:  E(RB3LYP) =  -645.598451016     A.U. after   12 cycles
 SCF Done:  E(RB3LYP) =  -645.599130610     A.U. after   12 cycles
 SCF Done:  E(RB3LYP) =  -645.599380489     A.U. after   12 cycles
 SCF Done:  E(RB3LYP) =  -645.599548602     A.U. after   11 cycles
 SCF Done:  E(RB3LYP) =  -645.599690419     A.U. after   11 cycles
 SCF Done:  E(RB3LYP) =  -645.599920649     A.U. after   12 cycles
 SCF Done:  E(RB3LYP) =  -645.600083677     A.U. after   13 cycles
 SCF Done:  E(RB3LYP) =  -645.600229048     A.U. after   10 cycles
 SCF Done:  E(RB3LYP) =  -645.611166230     A.U. after    9 cycles
 SCF Done:  E(RB3LYP) =  -645.611167024     A.U. after    8 cycles
 SCF Done:  E(RB3LYP) =  -645.611167184     A.U. after    7 cycles
 SCF Done:  E(RB3LYP) =  -645.611167212     A.U. after    7 cycles
 Optimization completed.
    -- Stationary point found.
 Normal termination of Gaussian 16 at Mon Dec 14 14:00:29 2020.

 --------------------------------------------------------------------
 #N Geom=AllCheck Guess=TCheck SCRF=Check GenChk RB3LYP/6-31G(d) Freq
 --------------------------------------------------------------------

 Structure from the checkpoint file:  "JID_4501.chk"
 -------------------------------
 CID_104449617_JID_4501_neutraal
 -------------------------------
 Charge =  0 Multiplicity = 1

 SCF Done:  E(RB3LYP) =  -645.611167212     A.U. after    1 cycles

  Exact polarizability: 138.122  -4.319 113.811  14.078   0.813  86.357
 Approx polarizability: 185.475   0.621 192.093  28.416   6.868 135.623

                      1                      2                      3
                      A                      A                      A
 Frequencies --     25.3511                43.7582                61.7690
 Red. masses --      5.3299                 5.4149                 3.2556
 Frc consts  --      0.0020                 0.0061                 0.0073
 IR Inten    --      2.5993                 1.9710                 1.1085

                      4                      5                      6
                      A                      A                      A
 Frequencies --     65.4815                91.8821               111.4659
 Red. masses --      6.2054                 4.4595                 3.9182
 Frc consts  --      0.0157                 0.0222                 0.0287
 IR Inten    --     14.1744                 1.9022                 2.8151

                      7                      8                      9
                      A                      A                      A
 Frequencies --    189.6484               211.4287               244.2033
 Red. masses --      3.2079                 2.9161                 3.2901
 Frc consts  --      0.0680                 0.0768                 0.1156
 IR Inten    --      1.0364                 2.7403                 2.2240

                     10                     11                     12
                      A                      A                      A
 Frequencies --    265.0194               301.7118               358.4861
 Red. masses --      3.2475                 3.2165                 2.5494
 Frc consts  --      0.1344                 0.1725                 0.1930
 IR Inten    --      2.3570                 5.5308                 6.8648

                     13                     14                     15
                      A                      A                      A
 Frequencies --    382.6905               490.3184               561.9257
 Red. masses --      3.0026                 3.0999                 4.8425
 Frc consts  --      0.2591                 0.4391                 0.9009
 IR Inten    --      0.4334                10.5453                 9.2335

                     16                     17                     18
                      A                      A                      A
 Frequencies --    597.2087               651.5901               687.3790
 Red. masses --      2.7718                 4.4821                 1.7516
 Frc consts  --      0.5825                 1.1212                 0.4876
 IR Inten    --     23.4284                 1.0100                39.0194

                     19                     20                     21
                      A                      A                      A
 Frequencies --    701.9792               718.6847               761.8617
 Red. masses --      2.6300                 3.3881                 2.1922
 Frc consts  --      0.7636                 1.0311                 0.7497
 IR Inten    --     29.5072                19.0262                 2.6790

                     22                     23                     24
                      A                      A                      A
 Frequencies --    767.0441               796.1249               805.9824
 Red. masses --      3.0264                 1.5177                 1.1928
 Frc consts  --      1.0491                 0.5667                 0.4565
 IR Inten    --     59.6179                10.6869                31.9456

                     25                     26                     27
                      A                      A                      A
 Frequencies --    820.4972               842.5019               861.8060
 Red. masses --      1.2546                 1.7251                 1.2915
 Frc consts  --      0.4976                 0.7215                 0.5652
 IR Inten    --      5.7267                 8.5746                 2.9630

                     28                     29                     30
                      A                      A                      A
 Frequencies --    871.3977               927.7923               942.4155
 Red. masses --      2.7180                 2.7716                 3.4582
 Frc consts  --      1.2160                 1.4057                 1.8096
 IR Inten    --      2.5692                 2.6674                24.1539

                     31                     32                     33
                      A                      A                      A
 Frequencies --    969.4506               990.9709              1033.7792
 Red. masses --      5.2379                 2.0280                 2.6580
 Frc consts  --      2.9004                 1.1734                 1.6736
 IR Inten    --      8.7639                19.6464                 7.6192

                     34                     35                     36
                      A                      A                      A
 Frequencies --   1051.9821              1072.0614              1083.3002
 Red. masses --      2.7542                 1.3144                 2.1480
 Frc consts  --      1.7958                 0.8900                 1.4852
 IR Inten    --     33.1124                 6.8953                 4.7288

                     37                     38                     39
                      A                      A                      A
 Frequencies --   1100.6443              1104.8185              1119.0589
 Red. masses --      1.3443                 1.3778                 1.4610
 Frc consts  --      0.9595                 0.9909                 1.0780
 IR Inten    --      3.0492                19.6479                 3.9786

                     40                     41                     42
                      A                      A                      A
 Frequencies --   1137.0676              1149.0215              1159.4242
 Red. masses --      1.1222                 2.5824                 2.2833
 Frc consts  --      0.8548                 2.0088                 1.8085
 IR Inten    --      2.0221                 3.0049                16.6571

                     43                     44                     45
                      A                      A                      A
 Frequencies --   1188.2141              1222.7148              1239.8761
 Red. masses --      2.0349                 1.3519                 2.0941
 Frc consts  --      1.6927                 1.1908                 1.8967
 IR Inten    --      5.0112                 0.2525                 8.4126

                     46                     47                     48
                      A                      A                      A
 Frequencies --   1266.2360              1274.1429              1308.2663
 Red. masses --      1.7554                 3.0616                 2.0642
 Frc consts  --      1.6583                 2.9284                 2.0816
 IR Inten    --     75.4156                16.0491               108.2971

                     49                     50                     51
                      A                      A                      A
 Frequencies --   1317.2622              1328.1465              1358.3431
 Red. masses --      1.4839                 2.5402                 1.5493
 Frc consts  --      1.5170                 2.6401                 1.6843
 IR Inten    --     13.8850                12.7698                 1.6416

                     52                     53                     54
                      A                      A                      A
 Frequencies --   1405.4227              1406.9120              1432.6312
 Red. masses --      1.3407                 1.4265                 1.3717
 Frc consts  --      1.5603                 1.6636                 1.6587
 IR Inten    --     16.5477                 1.3842                12.9279

                     55                     56                     57
                      A                      A                      A
 Frequencies --   1472.9099              1478.8234              1487.7360
 Red. masses --      1.7209                 1.0944                 1.5944
 Frc consts  --      2.1996                 1.4101                 2.0792
 IR Inten    --    106.7633                 2.1808                69.0076

                     58                     59                     60
                      A                      A                      A
 Frequencies --   1501.9745              1512.5709              1518.9408
 Red. masses --      2.7406                 1.3026                 1.4311
 Frc consts  --      3.6426                 1.7559                 1.9454
 IR Inten    --     11.0854                 2.1161                14.6488

                     61                     62                     63
                      A                      A                      A
 Frequencies --   1519.8747              1535.8355              1538.7490
 Red. masses --      1.3327                 1.4999                 1.5670
 Frc consts  --      1.8139                 2.0845                 2.1861
 IR Inten    --      4.7438                 9.6256                40.6656

                     64                     65                     66
                      A                      A                      A
 Frequencies --   1761.6662              3066.3789              3074.9416
 Red. masses --      7.2211                 1.0664                 1.0626
 Frc consts  --     13.2038                 5.9078                 5.9199
 IR Inten    --    212.9984                18.2712                31.1016

                     67                     68                     69
                      A                      A                      A
 Frequencies --   3096.3910              3112.5959              3134.1080
 Red. masses --      1.0626                 1.1031                 1.0999
 Frc consts  --      6.0023                 6.2968                 6.3653
 IR Inten    --     18.6481                 6.2658                22.2382

                     70                     71                     72
                      A                      A                      A
 Frequencies --   3151.9612              3155.2914              3163.8596
 Red. masses --      1.1037                 1.0528                 1.0552
 Frc consts  --      6.4607                 6.1758                 6.2232
 IR Inten    --     12.2063                11.6464                13.1254

                     73                     74                     75
                      A                      A                      A
 Frequencies --   3196.2028              3240.6731              3258.3009
 Red. masses --      1.0900                 1.1198                 1.1173
 Frc consts  --      6.5609                 6.9286                 6.9891
 IR Inten    --      9.2642                 2.4622                 5.2363

                     76                     77                     78
                      A                      A                      A
 Frequencies --   3280.2015              3297.8646              3589.1691
 Red. masses --      1.0922                 1.1072                 1.0756
 Frc consts  --      6.9238                 7.0946                 8.1641
 IR Inten    --      3.0574                 2.3214                29.0931

 - Thermochemistry -
 -------------------
 Temperature   298.150 Kelvin.  Pressure   1.00000 Atm.
 Atom     1 has atomic number  6 and mass  12.00000

 Molecular mass:   194.11676 amu.
 Principal axes and moments of inertia in atomic units:
                           1         2         3
     Eigenvalues --  1151.124624499.877034867.80562
           X            0.99991  -0.01218   0.00548
           Y            0.01212   0.99987   0.01105
           Z           -0.00561  -0.01098   0.99992
 This molecule is an asymmetric top.
 Rotational symmetry number  1.
 Warning -- assumption of classical behavior for rotation
           may cause significant error
 Rotational temperatures (Kelvin)      0.07524     0.01925     0.01779
 Rotational constants (GHZ):           1.56781     0.40106     0.37075
 Zero-point vibrational energy     622214.7 (Joules/Mol)
                                  148.71288 (Kcal/Mol)
 Warning -- explicit consideration of  16 degrees of freedom as
           vibrations may cause significant error
 Vibrational temperatures:     36.47    62.96    88.87    94.21   132.20
          (Kelvin)            160.37   272.86   304.20   351.35   381.30
                              434.10   515.78   550.61   705.46   808.49
                              859.25   937.49   988.99  1009.99  1034.03
                             1096.15  1103.61  1145.45  1159.63  1180.51
                             1212.17  1239.95  1253.75  1334.89  1355.93
                             1394.82  1425.79  1487.38  1513.57  1542.46
                             1558.63  1583.58  1589.59  1610.08  1635.99
                             1653.19  1668.15  1709.58  1759.21  1783.91
                             1821.83  1833.21  1882.30  1895.25  1910.91
                             1954.35  2022.09  2024.23  2061.24  2119.19
                             2127.70  2140.52  2161.01  2176.25  2185.42
                             2186.76  2209.72  2213.92  2534.64  4411.84
                             4424.16  4455.02  4478.33  4509.28  4534.97
                             4539.76  4552.09  4598.62  4662.61  4687.97
                             4719.48  4744.89  5164.01

 Zero-point correction=                           0.236989 (Hartree/Particle)
 Thermal correction to Energy=                    0.250055
 Thermal correction to Enthalpy=                  0.250999
 Thermal correction to Gibbs Free Energy=         0.195250
 Sum of electronic and zero-point Energies=           -645.374178
 Sum of electronic and thermal Energies=              -645.361112
 Sum of electronic and thermal Enthalpies=            -645.360168
 Sum of electronic and thermal Free Energies=         -645.415917

                     E (Thermal)             CV                S
                      KCal/Mol        Cal/Mol-Kelvin    Cal/Mol-Kelvin
 Total                  156.912             48.479            117.334
 Electronic               0.000              0.000              0.000
 Translational            0.889              2.981             41.695
 Rotational               0.889              2.981             31.600
 Vibrational            155.134             42.517             44.038
 Vibration     1          0.593              1.985              6.164
 Vibration     2          0.595              1.980              5.081
 Vibration     3          0.597              1.973              4.400
 Vibration     4          0.597              1.971              4.285
 Vibration     5          0.602              1.955              3.620
 Vibration     6          0.607              1.940              3.243
 Vibration     7          0.633              1.854              2.231
 Vibration     8          0.643              1.823              2.031
 Vibration     9          0.660              1.772              1.772
 Vibration    10          0.671              1.737              1.628
 Vibration    11          0.694              1.670              1.407
 Vibration    12          0.733              1.558              1.129
 Vibration    13          0.752              1.507              1.029
 Vibration    14          0.846              1.272              0.683
 Vibration    15          0.918              1.114              0.520
 Vibration    16          0.955              1.038              0.454

 Optimization completed.
    -- Stationary point found.
 Normal termination of Gaussian 16 at Mon Dec 14 14:08:09 2020.

 ----------------------------------------------------------------------
 # B3LYP/6-311++G(d,p) empiricaldispersion=gd3bj scf=xqc pop=npa geom=c
 heck
 ----------------------------------------------------------------------

 ---------------------------------------
 CID_104449617_JID_4501_Energie_neutraal
 ---------------------------------------
 Structure from the checkpoint file:  "JID_4501.chk"
 Charge =  0 Multiplicity = 1

 SCF Done:  E(RB3LYP) =  -645.792099568     A.U. after   15 cycles
 Normal termination of Gaussian 16 at Mon Dec 14 14:11:02 2020.

 ----------------------------------------------------------------------
 # B3LYP/6-311++G(d,p) empiricaldispersion=gd3bj scf=xqc pop=npa geom=c
 heck
 ----------------------------------------------------------------------

 -------------------------------------
 CID_104449617_JID_4501_Energie_kation
 -------------------------------------
 Structure from the checkpoint file:  "JID_4501.chk"
 Charge =  1 Multiplicity = 2

 SCF Done:  E(UB3LYP) =  -645.458506186     A.U. after   33 cycles
 SCF Done:  E(UB3LYP) =  -645.458506186     a.u. after    1 cycles
 Normal termination of Gaussian 16 at Mon Dec 14 14:19:17 2020.
 Gaussian 16:  ES64L-G16RevA.03 25-Dec-2016

 ----------------------------------------------------------------------
 # B3LYP/6-311++G(d,p) empiricaldispersion=gd3bj scf=xqc pop=npa geom=c
 heck
 ----------------------------------------------------------------------

 ------------------------------------
 CID_104449617_JID_4501_Energie_anion
 ------------------------------------
 Structure from the checkpoint file:  "JID_4501.chk"
 Charge = -1 Multiplicity = 2

                         Standard orientation:
 ---------------------------------------------------------------------
 Center     Atomic      Atomic             Coordinates (Angstroms)
 Number     Number       Type             X           Y           Z
 ---------------------------------------------------------------------
      1          6           0        4.067185    0.325504    0.046154
      2          6           0        3.290631   -0.312116    1.150386
      3          6           0        2.700132   -0.255889   -0.253007
      4          6           0        1.589360    0.718395   -0.469310
      5          8           0        1.616660    1.855159    0.002832
      6          7           0        0.527916    0.297384   -1.229649
      7          6           0        0.061475   -1.080940   -1.377217
      8          6           0       -0.159316   -1.838512   -0.051520
      9          6           0       -0.756497   -0.976157    1.066305
     10          7           0       -1.902982   -0.193548    0.620600
     11          6           0       -2.023419    1.156997    0.535719
     12          6           0       -3.272957    1.344676   -0.013974
     13          7           0       -3.842710    0.125363   -0.235890
     14          7           0       -3.009622   -0.807818    0.147694
     15          1           0        4.925760   -0.199837   -0.360442
     16          1           0        4.126358    1.408513    0.039099
     17          1           0        3.601024   -1.283792    1.522852
     18          1           0        2.836905    0.347478    1.883609
     19          1           0        2.666259   -1.182392   -0.816161
     20          1           0       -0.193307    1.006429   -1.286139
     21          1           0       -0.887572   -1.018035   -1.914353
     22          1           0        0.746621   -1.650358   -2.015241
     23          1           0       -0.818265   -2.689653   -0.250584
     24          1           0        0.787335   -2.240973    0.325515
     25          1           0       -1.071464   -1.607466    1.901910
     26          1           0       -0.022125   -0.261405    1.442219
     27          1           0       -1.231243    1.825738    0.839520
     28          1           0       -3.787346    2.263057   -0.254964
 ---------------------------------------------------------------------

 SCF Done:  E(UB3LYP) =  -645.783630180     A.U. after   33 cycles
 SCF Done:  E(UB3LYP) =  -645.783630180     a.u. after    1 cycles

 The electronic state is 2-A.
 Alpha  occ. eigenvalues --  -18.99444 -14.30160 -14.26393 -14.24108 -14.23436
 Alpha  occ. eigenvalues --  -10.17931 -10.12382 -10.11847 -10.11801 -10.10186
 Alpha  occ. eigenvalues --  -10.09010 -10.08184 -10.08102 -10.08100  -0.99878
 Alpha  occ. eigenvalues --   -0.94529  -0.83443  -0.81728  -0.76821  -0.71171
 Alpha  occ. eigenvalues --   -0.68818  -0.62331  -0.57533  -0.53845  -0.53474
 Alpha  occ. eigenvalues --   -0.50842  -0.48593  -0.45508  -0.44031  -0.42863
 Alpha  occ. eigenvalues --   -0.40566  -0.39121  -0.37655  -0.36835  -0.36081
 Alpha  occ. eigenvalues --   -0.35385  -0.34218  -0.33205  -0.31402  -0.29372
 Alpha  occ. eigenvalues --   -0.28366  -0.27338  -0.26965  -0.26373  -0.23570
 Alpha  occ. eigenvalues --   -0.21554  -0.20130  -0.19813  -0.17722  -0.17484
 Alpha  occ. eigenvalues --   -0.16887  -0.16159   0.04377
 Alpha virt. eigenvalues --    0.06753   0.07592   0.07963   0.08223   0.09288
 Alpha virt. eigenvalues --    0.09370   0.09997   0.10480   0.11113   0.11349
 Alpha virt. eigenvalues --    0.11731   0.12215   0.13116   0.13572   0.14003

  Beta  occ. eigenvalues --  -18.99438 -14.30093 -14.26263 -14.24110 -14.23404
  Beta  occ. eigenvalues --  -10.17928 -10.12363 -10.11831 -10.11753 -10.10199
  Beta  occ. eigenvalues --  -10.08990 -10.08154 -10.08085 -10.08071  -0.99736
  Beta  occ. eigenvalues --   -0.94517  -0.83410  -0.81627  -0.76783  -0.71060
  Beta  occ. eigenvalues --   -0.68751  -0.62274  -0.57491  -0.53765  -0.53429
  Beta  occ. eigenvalues --   -0.50772  -0.48487  -0.45464  -0.43961  -0.42802
  Beta  occ. eigenvalues --   -0.40464  -0.39001  -0.37586  -0.36789  -0.36028
  Beta  occ. eigenvalues --   -0.35221  -0.34177  -0.33169  -0.31337  -0.29333
  Beta  occ. eigenvalues --   -0.28288  -0.27295  -0.26928  -0.26323  -0.23449
  Beta  occ. eigenvalues --   -0.21514  -0.20061  -0.19541  -0.17623  -0.17351
  Beta  occ. eigenvalues --   -0.16608  -0.16129
  Beta virt. eigenvalues --    0.07220   0.07641   0.07899   0.08512   0.08948
  Beta virt. eigenvalues --    0.09561   0.09767   0.10571   0.10811   0.11344
  Beta virt. eigenvalues --    0.11708   0.11939   0.12385   0.13482   0.13685

 Mulliken charges and spin densities:
               1          2
     1  C    0.603463  -1.144361
     2  C    1.171058  -1.678483
     3  C   -1.291040   1.863060
     4  C    0.635398  -1.201637
     5  O   -0.343603   0.011034
     6  N   -0.179056   0.053587
     7  C   -0.254413  -0.195423
     8  C    0.934319  -1.014179
     9  C    0.045324  -0.421040
    10  N    0.211452   0.030251
    11  C   -0.113699   0.078513
    12  C   -0.255535  -0.168308
    13  N   -0.119824   0.040184
    14  N   -0.147810   0.050203
    15  H   -0.281573   0.438816
    16  H    0.122598   0.039953
    17  H   -0.484709   0.672180
    18  H    0.085941   0.082575
    19  H   -0.777605   1.073761
    20  H    0.370030  -0.023104
    21  H    0.193169  -0.010940
    22  H   -0.319155   0.505962
    23  H   -0.010327   0.214768
    24  H   -0.148494   0.318214
    25  H   -0.780172   1.035040
    26  H   -0.074352   0.246142
    27  H    0.080944   0.107467
    28  H    0.127671  -0.004236
 Sum of Mulliken charges =  -1.00000   1.00000

 Dipole moment (field-independent basis, Debye):
    X=             -3.2616    Y=              6.7113    Z=             -1.9517  Tot=              7.7129
 Quadrupole moment (field-independent basis, Debye-Ang):
   XX=           -162.0896   YY=           -128.7813   ZZ=           -114.1420
   XY=              5.9823   XZ=              1.0965   YZ=              3.5242

 Summary of Natural Population Analysis:

                                       Natural Population
                Natural  -----------------------------------------------
    Atom  No    Charge         Core      Valence    Rydberg      Total
 -----------------------------------------------------------------------
      C    1   -0.18513      0.99962     2.17594    0.00957     3.18513
      C    2   -0.18367      0.99962     2.17402    0.01003     3.18367
      C    3   -0.17077      0.99955     2.15860    0.01263     3.17077
      C    4    0.34149      0.99963     1.63482    0.02406     2.65851
      O    5   -0.33734      0.99988     3.33234    0.00513     4.33734
      N    6   -0.32027      0.99967     2.81203    0.00857     3.82027
      C    7   -0.09431      0.99961     2.08291    0.01179     3.09431
      C    8   -0.20313      0.99962     2.19390    0.00960     3.20313
      C    9   -0.08682      0.99960     2.07455    0.01267     3.08682
      N   10   -0.10041      0.99966     2.58631    0.01444     3.60041
      C   11   -0.02978      0.99955     2.01886    0.01136     3.02978
      C   12   -0.05804      0.99961     2.04555    0.01288     3.05804
      N   13   -0.14077      0.99976     2.62733    0.01368     3.64077
      N   14   -0.03304      0.99978     2.51548    0.01779     3.53304
      H   15    0.10596      0.00000     0.39296    0.00108     0.39404
      H   16    0.10964      0.00000     0.38933    0.00103     0.39036
      H   17    0.11010      0.00000     0.38722    0.00268     0.38990
      H   18    0.10614      0.00000     0.39264    0.00122     0.39386
      H   19    0.11672      0.00000     0.37999    0.00329     0.38328
      H   20    0.19470      0.00000     0.30323    0.00207     0.30530
      H   21    0.10226      0.00000     0.39638    0.00136     0.39774
      H   22    0.10297      0.00000     0.39580    0.00122     0.39703
      H   23    0.10810      0.00000     0.39047    0.00143     0.39190
      H   24    0.11167      0.00000     0.38422    0.00411     0.38833
      H   25    0.11285      0.00000     0.38466    0.00249     0.38715
      H   26    0.10439      0.00000     0.39382    0.00179     0.39561
      H   27    0.11717      0.00000     0.38172    0.00111     0.38283
      H   28    0.09934      0.00000     0.39968    0.00099     0.40066
 =======================================================================
   * Total *   -0.00000     13.99516    37.80476    0.20008    52.00000

 Normal termination of Gaussian 16 at Mon Dec 14 14:27:34 2020.
