 Gaussian 16, Revision A.03,

 -----------------------------------------------------------
 # opt freq B3LYP/6-31G(d) empiricaldispersion=gd3bj scf=xqc
 -----------------------------------------------------------

 -------------------------------
 CID_115531622_JID_9511_neutraal
 -------------------------------
 Symbolic Z-matrix:
 Charge =  0 Multiplicity = 1

 SCF Done:  E(RB3LYP) =  -878.095541403     A.U. after   14 cycles
 SCF Done:  E(RB3LYP) =  -878.104689862     A.U. after   12 cycles
 SCF Done:  E(RB3LYP) =  -878.106146351     A.U. after   12 cycles
 SCF Done:  E(RB3LYP) =  -878.106673768     A.U. after   11 cycles
 SCF Done:  E(RB3LYP) =  -878.106908349     A.U. after   11 cycles
 SCF Done:  E(RB3LYP) =  -878.107069341     A.U. after   11 cycles
 SCF Done:  E(RB3LYP) =  -878.107206438     A.U. after   11 cycles
 SCF Done:  E(RB3LYP) =  -878.107335778     A.U. after   14 cycles
 SCF Done:  E(RB3LYP) =  -878.107470106     A.U. after   12 cycles
 SCF Done:  E(RB3LYP) =  -878.107539701     A.U. after   11 cycles
 SCF Done:  E(RB3LYP) =  -878.108559330     A.U. after   11 cycles
 SCF Done:  E(RB3LYP) =  -878.108562709     A.U. after    9 cycles
 SCF Done:  E(RB3LYP) =  -878.108564634     A.U. after    8 cycles
 SCF Done:  E(RB3LYP) =  -878.108563795     A.U. after    7 cycles
 SCF Done:  E(RB3LYP) =  -878.108563651     A.U. after    6 cycles
 Optimization completed.
    -- Stationary point found.
 Normal termination of Gaussian 16 at Sat Dec 12 10:15:28 2020.

 --------------------------------------------------------------------
 #N Geom=AllCheck Guess=TCheck SCRF=Check GenChk RB3LYP/6-31G(d) Freq
 --------------------------------------------------------------------

 Structure from the checkpoint file:  "JID_9511.chk"
 -------------------------------
 CID_115531622_JID_9511_neutraal
 -------------------------------
 Charge =  0 Multiplicity = 1

 SCF Done:  E(RB3LYP) =  -878.108563651     A.U. after    1 cycles

  Exact polarizability: 208.556  -6.815 159.162  -0.753   0.911 136.016
 Approx polarizability: 266.158  -4.979 255.710 -10.564  -0.483 191.685

                      1                      2                      3
                      A                      A                      A
 Frequencies --     15.0181                18.8182                61.3483
 Red. masses --      3.7688                 4.1079                 3.4705
 Frc consts  --      0.0005                 0.0009                 0.0077
 IR Inten    --      0.1280                 0.2088                 0.3201

                      4                      5                      6
                      A                      A                      A
 Frequencies --     78.3244                96.0730               110.5372
 Red. masses --      3.6772                 2.5480                 2.1967
 Frc consts  --      0.0133                 0.0139                 0.0158
 IR Inten    --      1.4132                 3.3940                 2.9283

                      7                      8                      9
                      A                      A                      A
 Frequencies --    114.8611               139.3105               143.4799
 Red. masses --      3.9784                 2.4770                 1.4440
 Frc consts  --      0.0309                 0.0283                 0.0175
 IR Inten    --      1.7429                 0.7279                 1.7667

                     10                     11                     12
                      A                      A                      A
 Frequencies --    175.6733               187.6772               222.1428
 Red. masses --      1.5393                 2.2348                 1.6180
 Frc consts  --      0.0280                 0.0464                 0.0470
 IR Inten    --      4.1901                 1.2394                 0.7321

                     13                     14                     15
                      A                      A                      A
 Frequencies --    227.1591               237.2676               247.2542
 Red. masses --      3.2088                 2.5334                 1.8094
 Frc consts  --      0.0976                 0.0840                 0.0652
 IR Inten    --      1.8553                 3.0339                 0.4415

                     16                     17                     18
                      A                      A                      A
 Frequencies --    257.5716               267.9603               292.9894
 Red. masses --      2.1976                 1.5607                 2.8268
 Frc consts  --      0.0859                 0.0660                 0.1430
 IR Inten    --      0.9207                 0.6876                 8.0018

                     19                     20                     21
                      A                      A                      A
 Frequencies --    332.3553               343.1365               353.2367
 Red. masses --      4.0568                 3.1339                 2.2931
 Frc consts  --      0.2640                 0.2174                 0.1686
 IR Inten    --      1.6898                 1.0315                 2.5639

                     22                     23                     24
                      A                      A                      A
 Frequencies --    384.2613               406.1850               419.2725
 Red. masses --      3.7073                 3.4573                 2.9991
 Frc consts  --      0.3225                 0.3361                 0.3106
 IR Inten    --      7.7830                 0.3381                 1.2784

                     25                     26                     27
                      A                      A                      A
 Frequencies --    426.7382               450.4653               495.9892
 Red. masses --      2.7717                 3.8266                 3.8001
 Frc consts  --      0.2974                 0.4575                 0.5508
 IR Inten    --      0.1039                 1.8054                 1.1112

                     28                     29                     30
                      A                      A                      A
 Frequencies --    541.7597               569.0542               603.0201
 Red. masses --      3.3975                 5.3111                 3.3873
 Frc consts  --      0.5875                 1.0133                 0.7257
 IR Inten    --      1.5075                19.9739                 0.4140

                     31                     32                     33
                      A                      A                      A
 Frequencies --    625.1760               691.5744               747.5269
 Red. masses --      2.9590                 7.1465                 5.7618
 Frc consts  --      0.6814                 2.0138                 1.8970
 IR Inten    --      4.0618                15.4222                25.2189

                     34                     35                     36
                      A                      A                      A
 Frequencies --    801.5770               822.2977               855.8967
 Red. masses --      4.8391                 3.2630                 2.0627
 Frc consts  --      1.8319                 1.3000                 0.8903
 IR Inten    --     14.3638                 7.1566                 4.3051

                     37                     38                     39
                      A                      A                      A
 Frequencies --    861.1357               888.1088               930.5616
 Red. masses --      2.4989                 2.0778                 2.4115
 Frc consts  --      1.0918                 0.9656                 1.2303
 IR Inten    --     14.1196                11.9780                16.5580

                     40                     41                     42
                      A                      A                      A
 Frequencies --    959.9685               981.6254              1002.0251
 Red. masses --      3.5033                 3.3844                 2.3591
 Frc consts  --      1.9021                 1.9214                 1.3956
 IR Inten    --      7.0977                15.0801                 4.8095

                     43                     44                     45
                      A                      A                      A
 Frequencies --   1010.1756              1020.5399              1026.2081
 Red. masses --      1.4295                 6.9677                 4.3481
 Frc consts  --      0.8595                 4.2756                 2.6978
 IR Inten    --      0.5254                 5.5993                21.2379

                     46                     47                     48
                      A                      A                      A
 Frequencies --   1053.1449              1074.5751              1086.0138
 Red. masses --      2.6582                 1.9606                 1.8478
 Frc consts  --      1.7371                 1.3339                 1.2840
 IR Inten    --      4.1194                 7.0033                14.0697

                     49                     50                     51
                      A                      A                      A
 Frequencies --   1102.3986              1118.0466              1123.3579
 Red. masses --      1.6930                 1.9404                 1.6114
 Frc consts  --      1.2122                 1.4291                 1.1981
 IR Inten    --     17.1465                31.4811                14.9540

                     52                     53                     54
                      A                      A                      A
 Frequencies --   1148.6379              1158.3288              1160.7668
 Red. masses --      4.4905                 1.3628                 3.0021
 Frc consts  --      3.4907                 1.0773                 2.3833
 IR Inten    --    182.0699                35.9206               135.8952

                     55                     56                     57
                      A                      A                      A
 Frequencies --   1175.6535              1186.0961              1186.7514
 Red. masses --      2.2486                 1.5040                 1.5906
 Frc consts  --      1.8311                 1.2467                 1.3199
 IR Inten    --     11.1313                11.9616                 2.9629

                     58                     59                     60
                      A                      A                      A
 Frequencies --   1195.3939              1206.1365              1222.9830
 Red. masses --      1.5127                 2.4618                 1.4477
 Frc consts  --      1.2736                 2.1100                 1.2758
 IR Inten    --     52.3160                46.8601                12.2890

                     61                     62                     63
                      A                      A                      A
 Frequencies --   1232.8574              1238.8836              1250.9813
 Red. masses --      1.6420                 1.6287                 4.3902
 Frc consts  --      1.4705                 1.4728                 4.0480
 IR Inten    --     22.0982                14.7888                 1.0798

                     64                     65                     66
                      A                      A                      A
 Frequencies --   1262.7897              1279.9084              1297.2306
 Red. masses --      2.3179                 1.6766                 2.3330
 Frc consts  --      2.1777                 1.6183                 2.3131
 IR Inten    --     49.4699                14.5447                11.0526

                     67                     68                     69
                      A                      A                      A
 Frequencies --   1313.1082              1329.0997              1345.1188
 Red. masses --      1.9448                 2.0389                 1.3942
 Frc consts  --      1.9757                 2.1221                 1.4863
 IR Inten    --     22.5578                 4.0058                35.9361

                     70                     71                     72
                      A                      A                      A
 Frequencies --   1348.5637              1371.3340              1379.7007
 Red. masses --      1.7521                 1.3399                 1.3586
 Frc consts  --      1.8773                 1.4846                 1.5237
 IR Inten    --      7.8706                56.8027                39.0728

                     73                     74                     75
                      A                      A                      A
 Frequencies --   1403.3393              1406.0512              1422.4401
 Red. masses --      1.2430                 1.3519                 1.4545
 Frc consts  --      1.4423                 1.5747                 1.7340
 IR Inten    --     34.0997                14.5425                18.7324

                     76                     77                     78
                      A                      A                      A
 Frequencies --   1439.7089              1453.3835              1483.0455
 Red. masses --      1.5505                 2.9649                 1.2182
 Frc consts  --      1.8935                 3.6900                 1.5786
 IR Inten    --      2.5439                59.2951                 0.7060

                     79                     80                     81
                      A                      A                      A
 Frequencies --   1484.5369              1489.0630              1493.7181
 Red. masses --      1.7403                 1.4173                 1.1903
 Frc consts  --      2.2597                 1.8516                 1.5647
 IR Inten    --     13.6032                11.0459                 6.6118

                     82                     83                     84
                      A                      A                      A
 Frequencies --   1502.1076              1509.6210              1513.5177
 Red. masses --      1.1957                 1.0560                 1.0805
 Frc consts  --      1.5895                 1.4179                 1.4583
 IR Inten    --      5.7079                 1.5486                 5.1027

                     85                     86                     87
                      A                      A                      A
 Frequencies --   1515.4043              1516.5268              1518.1477
 Red. masses --      1.0518                 1.0529                 1.0608
 Frc consts  --      1.4232                 1.4267                 1.4404
 IR Inten    --     14.9633                 1.0063                 7.3661

                     88                     89                     90
                      A                      A                      A
 Frequencies --   1525.1388              1532.6217              1536.3478
 Red. masses --      1.0854                 1.0634                 1.0592
 Frc consts  --      1.4875                 1.4716                 1.4731
 IR Inten    --      8.2758                 5.5935                 3.4381

                     91                     92                     93
                      A                      A                      A
 Frequencies --   1539.0291              1542.6106              1548.5678
 Red. masses --      1.1087                 1.0497                 1.0498
 Frc consts  --      1.5472                 1.4717                 1.4833
 IR Inten    --      4.8013                 4.2185                 2.8757

                     94                     95                     96
                      A                      A                      A
 Frequencies --   1615.1414              1628.2076              2926.9856
 Red. masses --      7.1970                 6.0890                 1.0723
 Frc consts  --     11.0618                 9.5107                 5.4124
 IR Inten    --     75.0034               116.3325                36.7613

                     97                     98                     99
                      A                      A                      A
 Frequencies --   2936.0984              2943.2988              2950.4373
 Red. masses --      1.0662                 1.0662                 1.0627
 Frc consts  --      5.4155                 5.4422                 5.4504
 IR Inten    --     33.4910               104.1160                97.7271

                    100                    101                    102
                      A                      A                      A
 Frequencies --   2965.7232              2977.4025              3003.7382
 Red. masses --      1.0758                 1.0740                 1.0792
 Frc consts  --      5.5748                 5.6097                 5.7368
 IR Inten    --      8.9758                89.4738                17.9783

                    103                    104                    105
                      A                      A                      A
 Frequencies --   3013.5884              3037.6750              3073.6239
 Red. masses --      1.0505                 1.0408                 1.0769
 Frc consts  --      5.6210                 5.6583                 5.9939
 IR Inten    --     90.1565                33.4056                 9.4766

                    106                    107                    108
                      A                      A                      A
 Frequencies --   3074.9276              3076.9647              3080.3086
 Red. masses --      1.0907                 1.0867                 1.0855
 Frc consts  --      6.0762                 6.0617                 6.0683
 IR Inten    --     24.1217                76.6022                51.1391

                    109                    110                    111
                      A                      A                      A
 Frequencies --   3088.6025              3106.9961              3117.2395
 Red. masses --      1.0726                 1.0866                 1.0933
 Frc consts  --      6.0287                 6.1802                 6.2596
 IR Inten    --     40.5566                29.5225                51.8736

                    112                    113                    114
                      A                      A                      A
 Frequencies --   3118.6962              3133.5521              3149.6596
 Red. masses --      1.1041                 1.1024                 1.1059
 Frc consts  --      6.3269                 6.3774                 6.4640
 IR Inten    --     33.3677                38.4868                25.2960

                    115                    116                    117
                      A                      A                      A
 Frequencies --   3157.6703              3172.8909              3242.5183
 Red. masses --      1.1062                 1.0910                 1.0933
 Frc consts  --      6.4984                 6.4711                 6.7725
 IR Inten    --     23.3814                30.2866                 2.6126

 - Thermochemistry -
 -------------------
 Temperature   298.150 Kelvin.  Pressure   1.00000 Atm.
 Atom     1 has atomic number  6 and mass  12.00000

 Molecular mass:   266.17428 amu.
 Principal axes and moments of inertia in atomic units:
                           1         2         3
     Eigenvalues --  2438.507249590.095709861.31417
           X            0.99998   0.00005   0.00690
           Y            0.00011   0.99973  -0.02320
           Z           -0.00690   0.02320   0.99971
 This molecule is an asymmetric top.
 Rotational symmetry number  1.
 Warning -- assumption of classical behavior for rotation
           may cause significant error
 Rotational temperatures (Kelvin)      0.03552     0.00903     0.00878
 Rotational constants (GHZ):           0.74010     0.18819     0.18301
 Zero-point vibrational energy     934630.8 (Joules/Mol)
                                  223.38213 (Kcal/Mol)
 Warning -- explicit consideration of  30 degrees of freedom as
           vibrations may cause significant error
 Vibrational temperatures:     21.61    27.08    88.27   112.69   138.23
          (Kelvin)            159.04   165.26   200.44   206.44   252.75
                              270.03   319.61   326.83   341.38   355.74
                              370.59   385.54   421.55   478.19   493.70
                              508.23   552.87   584.41   603.24   613.98
                              648.12   713.62   779.47   818.74   867.61
                              899.49   995.02  1075.52  1153.29  1183.10
                             1231.44  1238.98  1277.79  1338.87  1381.18
                             1412.34  1441.69  1453.42  1468.33  1476.48
                             1515.24  1546.07  1562.53  1586.11  1608.62
                             1616.26  1652.63  1666.58  1670.08  1691.50
                             1706.53  1707.47  1719.91  1735.36  1759.60
                             1773.81  1782.48  1799.88  1816.87  1841.50
                             1866.43  1889.27  1912.28  1935.33  1940.28
                             1973.04  1985.08  2019.09  2022.99  2046.57
                             2071.42  2091.09  2133.77  2135.92  2142.43
                             2149.13  2161.20  2172.01  2177.61  2180.33
                             2181.94  2184.28  2194.33  2205.10  2210.46
                             2214.32  2219.47  2228.04  2323.83  2342.63
                             4211.28  4224.39  4234.75  4245.02  4267.01
                             4283.82  4321.71  4335.88  4370.54  4422.26
                             4424.14  4427.07  4431.88  4443.81  4470.27
                             4485.01  4487.11  4508.48  4531.66  4543.18
                             4565.08  4665.26

 Zero-point correction=                           0.355982 (Hartree/Particle)
 Thermal correction to Energy=                    0.375142
 Thermal correction to Enthalpy=                  0.376087
 Thermal correction to Gibbs Free Energy=         0.307051
 Sum of electronic and zero-point Energies=           -877.752582
 Sum of electronic and thermal Energies=              -877.733421
 Sum of electronic and thermal Enthalpies=            -877.732477
 Sum of electronic and thermal Free Energies=         -877.801513

                     E (Thermal)             CV                S
                      KCal/Mol        Cal/Mol-Kelvin    Cal/Mol-Kelvin
 Total                  235.405             71.413            145.298
 Electronic               0.000              0.000              0.000
 Translational            0.889              2.981             42.636
 Rotational               0.889              2.981             33.800
 Vibrational            233.628             65.451             68.863
 Vibration     1          0.593              1.986              7.203
 Vibration     2          0.593              1.986              6.755
 Vibration     3          0.597              1.973              4.413
 Vibration     4          0.600              1.964              3.932
 Vibration     5          0.603              1.952              3.532
 Vibration     6          0.606              1.941              3.259
 Vibration     7          0.608              1.937              3.185
 Vibration     8          0.615              1.914              2.813
 Vibration     9          0.616              1.910              2.757
 Vibration    10          0.628              1.872              2.374
 Vibration    11          0.632              1.857              2.251
 Vibration    12          0.648              1.807              1.942
 Vibration    13          0.651              1.800              1.901
 Vibration    14          0.656              1.784              1.823
 Vibration    15          0.661              1.767              1.750
 Vibration    16          0.667              1.750              1.678
 Vibration    17          0.673              1.732              1.609
 Vibration    18          0.688              1.687              1.457
 Vibration    19          0.714              1.611              1.249
 Vibration    20          0.722              1.589              1.198
 Vibration    21          0.729              1.569              1.152
 Vibration    22          0.753              1.504              1.022
 Vibration    23          0.771              1.457              0.940
 Vibration    24          0.782              1.428              0.894
 Vibration    25          0.788              1.412              0.869
 Vibration    26          0.809              1.360              0.794
 Vibration    27          0.852              1.259              0.668
 Vibration    28          0.897              1.158              0.562
 Vibration    29          0.925              1.098              0.506
 Vibration    30          0.961              1.025              0.444

                           ! Non-Optimized Parameters !
 Normal termination of Gaussian 16 at Sat Dec 12 10:37:18 2020.

 ----------------------------------------------------------------------
 # B3LYP/6-311++G(d,p) empiricaldispersion=gd3bj scf=xqc pop=npa geom=c
 heck
 ----------------------------------------------------------------------

 ---------------------------------------
 CID_115531622_JID_9511_Energie_neutraal
 ---------------------------------------
 Structure from the checkpoint file:  "JID_9511.chk"
 Charge =  0 Multiplicity = 1

 SCF Done:  E(RB3LYP) =  -878.349121669     A.U. after   14 cycles
 Normal termination of Gaussian 16 at Sat Dec 12 10:46:52 2020.

 ----------------------------------------------------------------------
 # B3LYP/6-311++G(d,p) empiricaldispersion=gd3bj scf=xqc pop=npa geom=c
 heck
 ----------------------------------------------------------------------

 -------------------------------------
 CID_115531622_JID_9511_Energie_kation
 -------------------------------------
 Structure from the checkpoint file:  "JID_9511.chk"
 Charge =  1 Multiplicity = 2

 SCF Done:  E(UB3LYP) =  -878.065665284     A.U. after   24 cycles
 Normal termination of Gaussian 16 at Sat Dec 12 11:10:25 2020.
 Gaussian 16:  ES64L-G16RevA.03 25-Dec-2016

 ----------------------------------------------------------------------
 # B3LYP/6-311++G(d,p) empiricaldispersion=gd3bj scf=xqc pop=npa geom=c
 heck
 ----------------------------------------------------------------------

 ------------------------------------
 CID_115531622_JID_9511_Energie_anion
 ------------------------------------
 Structure from the checkpoint file:  "JID_9511.chk"
 Charge = -1 Multiplicity = 2

                         Standard orientation:
 ---------------------------------------------------------------------
 Center     Atomic      Atomic             Coordinates (Angstroms)
 Number     Number       Type             X           Y           Z
 ---------------------------------------------------------------------
      1          6           0       -4.689187    0.220572   -1.948934
      2          7           0       -3.775679    0.515022   -0.858282
      3          6           0       -4.355256    0.189442    0.439523
      4          6           0       -3.392991    0.586122    1.550728
      5          7           0       -2.111595   -0.098413    1.400801
      6          6           0       -1.523377    0.205636    0.091445
      7          6           0       -2.507539   -0.184071   -1.020960
      8          6           0       -0.216212   -0.535745   -0.105611
      9          7           0       -0.258527   -1.876525   -0.103931
     10          6           0        0.905103   -2.504217   -0.297045
     11          6           0        2.105190   -1.824598   -0.488057
     12          6           0        2.041543   -0.431952   -0.463523
     13          7           0        0.882026    0.211875   -0.280626
     14          6           0        3.287626    0.428431   -0.703116
     15          8           0        3.232619    1.631696    0.013703
     16          6           0        2.662214    2.729659   -0.684133
     17          8           0        4.461170   -0.270444   -0.387982
     18          6           0        4.699707   -0.424152    1.010509
     19          6           0       -1.214061    0.236658    2.497274
     20          1           0       -4.952935   -0.853201   -2.017500
     21          1           0       -5.615318    0.790463   -1.816127
     22          1           0       -4.236294    0.520090   -2.900407
     23          1           0       -5.294809    0.742539    0.554605
     24          1           0       -4.584502   -0.890986    0.525169
     25          1           0       -3.818374    0.307640    2.521776
     26          1           0       -3.269432    1.687172    1.540753
     27          1           0       -1.299420    1.283037   -0.001257
     28          1           0       -2.629213   -1.282164   -1.003839
     29          1           0       -2.074995    0.093363   -1.989556
     30          1           0        0.871742   -3.592666   -0.298509
     31          1           0        3.045499   -2.338774   -0.645055
     32          1           0        3.362795    0.632508   -1.782873
     33          1           0        3.157132    2.877322   -1.656290
     34          1           0        1.588073    2.587093   -0.835715
     35          1           0        2.832467    3.611798   -0.062250
     36          1           0        4.878082    0.544292    1.486021
     37          1           0        3.859723   -0.921063    1.514482
     38          1           0        5.590749   -1.049567    1.095317
     39          1           0       -0.939808    1.308767    2.521235
     40          1           0       -1.698978   -0.014604    3.446286
     41          1           0       -0.292651   -0.347493    2.423639
 ---------------------------------------------------------------------

 SCF Done:  E(UB3LYP) =  -878.347142360     A.U. after   33 cycles
 SCF Done:  E(UB3LYP) =  -878.347142360     a.u. after    1 cycles

 The electronic state is 2-A.
 Alpha  occ. eigenvalues --  -19.01883 -19.01394 -14.20372 -14.19723 -14.16289
 Alpha  occ. eigenvalues --  -14.15052 -10.15085 -10.10524 -10.10249 -10.09829
 Alpha  occ. eigenvalues --  -10.09254 -10.09159 -10.09009 -10.08101 -10.07955
 Alpha  occ. eigenvalues --  -10.07785 -10.06493 -10.05524 -10.04066  -0.96125
 Alpha  occ. eigenvalues --   -0.90079  -0.84959  -0.83394  -0.80181  -0.74061
 Alpha  occ. eigenvalues --   -0.67672  -0.64662  -0.63439  -0.61779  -0.58135
 Alpha  occ. eigenvalues --   -0.57240  -0.54903  -0.53345  -0.52080  -0.48953
 Alpha  occ. eigenvalues --   -0.47307  -0.44202  -0.40266  -0.40050  -0.39942
 Alpha  occ. eigenvalues --   -0.38431  -0.37391  -0.37303  -0.35831  -0.35120
 Alpha  occ. eigenvalues --   -0.34125  -0.33256  -0.33142  -0.32728  -0.31788
 Alpha  occ. eigenvalues --   -0.31701  -0.30077  -0.29692  -0.29142  -0.28434
 Alpha  occ. eigenvalues --   -0.27621  -0.26784  -0.26687  -0.25457  -0.24099
 Alpha  occ. eigenvalues --   -0.23714  -0.23265  -0.22670  -0.21710  -0.17571
 Alpha  occ. eigenvalues --   -0.16651  -0.15933  -0.15187  -0.14127  -0.12057
 Alpha  occ. eigenvalues --   -0.11334  -0.10386   0.04804
 Alpha virt. eigenvalues --    0.06299   0.07619   0.07817   0.08422   0.09130
 Alpha virt. eigenvalues --    0.09296   0.09634   0.10185   0.10227   0.10768
 Alpha virt. eigenvalues --    0.11207   0.11461   0.11853   0.12214   0.12699

  Beta  occ. eigenvalues --  -19.01865 -19.01373 -14.20373 -14.19715 -14.16148
  Beta  occ. eigenvalues --  -14.14626 -10.15112 -10.10521 -10.10233 -10.09866
  Beta  occ. eigenvalues --  -10.09246 -10.09158 -10.08990 -10.08102 -10.07955
  Beta  occ. eigenvalues --  -10.07780 -10.06292 -10.05047 -10.04147  -0.96070
  Beta  occ. eigenvalues --   -0.90042  -0.84829  -0.83059  -0.80146  -0.73360
  Beta  occ. eigenvalues --   -0.67501  -0.64531  -0.63365  -0.61657  -0.58089
  Beta  occ. eigenvalues --   -0.57218  -0.54848  -0.52861  -0.52048  -0.48771
  Beta  occ. eigenvalues --   -0.47153  -0.44102  -0.40189  -0.39920  -0.39791
  Beta  occ. eigenvalues --   -0.38373  -0.37310  -0.37216  -0.35789  -0.35088
  Beta  occ. eigenvalues --   -0.34031  -0.33205  -0.33078  -0.32693  -0.31675
  Beta  occ. eigenvalues --   -0.31639  -0.30012  -0.29626  -0.29083  -0.28148
  Beta  occ. eigenvalues --   -0.27156  -0.26616  -0.26348  -0.25426  -0.24052
  Beta  occ. eigenvalues --   -0.23672  -0.23225  -0.22554  -0.21552  -0.16672
  Beta  occ. eigenvalues --   -0.15974  -0.15400  -0.14799  -0.13072  -0.12020
  Beta  occ. eigenvalues --   -0.11264  -0.10050
  Beta virt. eigenvalues --    0.06683   0.07579   0.07758   0.08341   0.09170
  Beta virt. eigenvalues --    0.09220   0.09561   0.10083   0.10380   0.10862
  Beta virt. eigenvalues --    0.10970   0.11214   0.11483   0.11910   0.12244

 Mulliken charges and spin densities:
               1          2
     1  C    0.195410  -0.487002
     2  N    0.072253   0.098479
     3  C   -0.028253  -0.324322
     4  C   -0.161542   0.077778
     5  N    0.288950   0.013088
     6  C   -0.119035  -0.235160
     7  C   -0.971107   0.086396
     8  C   -1.043182   0.021134
     9  N    0.098182   0.178412
    10  C   -0.196936   0.103300
    11  C   -0.293678   0.317458
    12  C    0.528020   0.250639
    13  N    0.182230   0.112023
    14  C   -0.455721  -0.570211
    15  O   -0.086227   0.004929
    16  C   -0.036999  -0.172969
    17  O   -0.080371   0.005146
    18  C   -0.150369  -0.074063
    19  C   -0.308224   0.012194
    20  H   -0.017972   0.124102
    21  H   -0.234413   0.364078
    22  H   -0.057155   0.177105
    23  H    0.017312   0.149188
    24  H    0.098574   0.009232
    25  H    0.071504   0.069291
    26  H    0.070440   0.005586
    27  H    0.231029  -0.009659
    28  H    0.204468  -0.035284
    29  H    0.119804   0.057594
    30  H    0.113155   0.001175
    31  H    0.103932   0.079037
    32  H   -0.171131   0.377361
    33  H    0.012812   0.093600
    34  H    0.135125   0.051089
    35  H    0.075728   0.035551
    36  H    0.123176   0.013587
    37  H    0.133859  -0.004119
    38  H    0.122826   0.023514
    39  H    0.103561  -0.003506
    40  H    0.131940  -0.007157
    41  H    0.178025   0.011383
 Sum of Mulliken charges =  -1.00000   1.00000

 Dipole moment (field-independent basis, Debye):
    X=              0.4001    Y=              1.1209    Z=              3.2389  Tot=              3.4506
 Quadrupole moment (field-independent basis, Debye-Ang):
   XX=           -189.3819   YY=           -139.3284   ZZ=           -135.1339
   XY=             -0.6162   XZ=             -0.0821   YZ=              0.5702

 Summary of Natural Population Analysis:

                                       Natural Population
                Natural  -----------------------------------------------
    Atom  No    Charge         Core      Valence    Rydberg      Total
 -----------------------------------------------------------------------
      C    1   -0.17496      0.99965     2.16680    0.00851     3.17496
      N    2   -0.28000      0.99971     2.76804    0.01225     3.78000
      C    3   -0.08951      0.99961     2.07649    0.01341     3.08951
      C    4   -0.08427      0.99962     2.07504    0.00962     3.08427
      N    5   -0.27078      0.99970     2.76107    0.01001     3.77078
      C    6   -0.02696      0.99953     2.01082    0.01660     3.02696
      C    7   -0.08674      0.99959     2.07460    0.01255     3.08674
      C    8    0.20402      0.99958     1.77507    0.02133     2.79598
      N    9   -0.20546      0.99967     2.69533    0.01046     3.70546
      C   10    0.07233      0.99960     1.91248    0.01559     2.92767
      C   11   -0.16446      0.99950     2.15630    0.00865     3.16446
      C   12    0.17048      0.99951     1.81632    0.01369     2.82952
      N   13   -0.24694      0.99964     2.73681    0.01050     3.74694
      C   14    0.21570      0.99952     1.76350    0.02127     2.78430
      O   15   -0.30270      0.99987     3.29352    0.00931     4.30270
      C   16   -0.09645      0.99961     2.08887    0.00797     3.09645
      O   17   -0.29979      0.99988     3.29010    0.00981     4.29979
      C   18   -0.10446      0.99960     2.09666    0.00820     3.10446
      C   19   -0.17505      0.99965     2.16889    0.00650     3.17505
      H   20    0.07923      0.00000     0.41934    0.00143     0.42077
      H   21    0.09298      0.00000     0.40579    0.00123     0.40702
      H   22    0.09488      0.00000     0.40411    0.00101     0.40512
      H   23    0.09366      0.00000     0.40504    0.00129     0.40634
      H   24    0.08216      0.00000     0.41598    0.00186     0.41784
      H   25    0.09273      0.00000     0.40605    0.00122     0.40727
      H   26    0.07949      0.00000     0.41844    0.00206     0.42051
      H   27    0.09040      0.00000     0.40654    0.00306     0.40960
      H   28    0.09450      0.00000     0.40341    0.00209     0.40550
      H   29    0.09857      0.00000     0.40030    0.00113     0.40143
      H   30    0.07938      0.00000     0.41965    0.00097     0.42062
      H   31    0.10463      0.00000     0.39421    0.00116     0.39537
      H   32    0.08317      0.00000     0.41363    0.00320     0.41683
      H   33    0.07430      0.00000     0.42410    0.00160     0.42570
      H   34    0.09615      0.00000     0.40245    0.00140     0.40385
      H   35    0.08228      0.00000     0.41673    0.00099     0.41772
      H   36    0.08625      0.00000     0.41230    0.00145     0.41375
      H   37    0.08574      0.00000     0.41314    0.00112     0.41426
      H   38    0.08290      0.00000     0.41616    0.00094     0.41710
      H   39    0.07986      0.00000     0.41878    0.00136     0.42014
      H   40    0.08806      0.00000     0.41107    0.00087     0.41194
      H   41    0.10468      0.00000     0.39457    0.00076     0.39532
 =======================================================================
   * Total *   -0.00000     18.99304    52.74853    0.25843    72.00000

 Normal termination of Gaussian 16 at Sat Dec 12 11:42:38 2020.
