 Gaussian 16, Revision A.03,

 -----------------------------------------------------------
 # opt freq B3LYP/6-31G(d) empiricaldispersion=gd3bj scf=xqc
 -----------------------------------------------------------

 ------------------------------
 CID_79017452_JID_5044_neutraal
 ------------------------------
 Symbolic Z-matrix:
 Charge =  0 Multiplicity = 1

 SCF Done:  E(RB3LYP) =  -636.813861674     A.U. after   13 cycles
 SCF Done:  E(RB3LYP) =  -636.818853186     A.U. after   12 cycles
 SCF Done:  E(RB3LYP) =  -636.819623504     A.U. after   12 cycles
 SCF Done:  E(RB3LYP) =  -636.819858948     A.U. after   10 cycles
 SCF Done:  E(RB3LYP) =  -636.819884898     A.U. after   11 cycles
 SCF Done:  E(RB3LYP) =  -636.819927312     A.U. after    9 cycles
 SCF Done:  E(RB3LYP) =  -636.819931669     A.U. after    8 cycles
 SCF Done:  E(RB3LYP) =  -636.819933206     A.U. after    8 cycles
 SCF Done:  E(RB3LYP) =  -636.819933706     A.U. after    7 cycles
 SCF Done:  E(RB3LYP) =  -636.819934077     A.U. after    8 cycles
 SCF Done:  E(RB3LYP) =  -636.819967408     A.U. after    9 cycles
 SCF Done:  E(RB3LYP) =  -636.819967170     A.U. after    9 cycles
 SCF Done:  E(RB3LYP) =  -636.819967092     A.U. after    7 cycles
 SCF Done:  E(RB3LYP) =  -636.819967415     A.U. after    8 cycles
 SCF Done:  E(RB3LYP) =  -636.819967066     A.U. after    9 cycles
 Optimization completed.
    -- Stationary point found.
 Normal termination of Gaussian 16 at Thu Dec 10 14:53:25 2020.

 --------------------------------------------------------------------
 #N Geom=AllCheck Guess=TCheck SCRF=Check GenChk RB3LYP/6-31G(d) Freq
 --------------------------------------------------------------------

 Structure from the checkpoint file:  "JID_5044.chk"
 ------------------------------
 CID_79017452_JID_5044_neutraal
 ------------------------------
 Charge =  0 Multiplicity = 1

 SCF Done:  E(RB3LYP) =  -636.819967066     A.U. after    1 cycles

  Exact polarizability: 189.561  -2.719 114.800   2.444  14.503 121.337
 Approx polarizability: 248.119  -6.509 169.552   3.985  36.583 199.338

                      1                      2                      3
                      A                      A                      A
 Frequencies --     12.9316                35.9853                55.3118
 Red. masses --      2.2717                 3.7325                 3.1369
 Frc consts  --      0.0002                 0.0028                 0.0057
 IR Inten    --      0.0504                 0.3400                 0.4715

                      4                      5                      6
                      A                      A                      A
 Frequencies --     80.1851               122.7873               138.1001
 Red. masses --      3.3447                 2.7555                 3.4660
 Frc consts  --      0.0127                 0.0245                 0.0389
 IR Inten    --      0.2077                 0.7969                 1.5719

                      7                      8                      9
                      A                      A                      A
 Frequencies --    162.7854               212.2998               229.9994
 Red. masses --      3.1403                 1.9833                 3.0503
 Frc consts  --      0.0490                 0.0527                 0.0951
 IR Inten    --      0.7132                10.2522                 3.7570

                     10                     11                     12
                      A                      A                      A
 Frequencies --    259.0158               282.8340               296.3080
 Red. masses --      3.0676                 1.2783                 1.5388
 Frc consts  --      0.1213                 0.0603                 0.0796
 IR Inten    --      1.2349                54.2785                16.7798

                     13                     14                     15
                      A                      A                      A
 Frequencies --    300.6541               329.6648               358.4958
 Red. masses --      2.9215                 2.0914                 2.4532
 Frc consts  --      0.1556                 0.1339                 0.1858
 IR Inten    --     18.7866                21.2706                12.7340

                     16                     17                     18
                      A                      A                      A
 Frequencies --    370.6005               406.6215               417.3868
 Red. masses --      1.7606                 2.7574                 3.0128
 Frc consts  --      0.1425                 0.2686                 0.3092
 IR Inten    --     61.3571                27.5885                 0.0466

                     19                     20                     21
                      A                      A                      A
 Frequencies --    447.4216               498.5320               506.0360
 Red. masses --      3.3749                 3.4258                 3.6117
 Frc consts  --      0.3981                 0.5017                 0.5449
 IR Inten    --      6.0390                 1.4856                 6.7756

                     22                     23                     24
                      A                      A                      A
 Frequencies --    568.4115               606.4400               655.7300
 Red. masses --      3.1608                 3.0156                 5.2790
 Frc consts  --      0.6017                 0.6534                 1.3374
 IR Inten    --      8.8377                13.4715                 0.4149

                     25                     26                     27
                      A                      A                      A
 Frequencies --    664.5266               726.3462               776.1833
 Red. masses --      3.5731                 2.1010                 2.5205
 Frc consts  --      0.9297                 0.6531                 0.8947
 IR Inten    --      0.9488                 3.6429                 4.7257

                     28                     29                     30
                      A                      A                      A
 Frequencies --    789.2591               802.4034               835.7739
 Red. masses --      1.5516                 1.1999                 1.8216
 Frc consts  --      0.5695                 0.4552                 0.7497
 IR Inten    --      0.4601                 0.0894                13.7777

                     31                     32                     33
                      A                      A                      A
 Frequencies --    851.2085               855.7390               862.2196
 Red. masses --      1.4115                 1.4617                 1.3045
 Frc consts  --      0.6025                 0.6306                 0.5714
 IR Inten    --     25.9451                 8.3807                 9.0839

                     34                     35                     36
                      A                      A                      A
 Frequencies --    890.8114               936.6856               959.0631
 Red. masses --      1.4831                 3.3051                 1.3811
 Frc consts  --      0.6934                 1.7085                 0.7485
 IR Inten    --     88.4401                20.1237                 1.6663

                     37                     38                     39
                      A                      A                      A
 Frequencies --    965.4164               977.6486              1000.4068
 Red. masses --      2.2680                 1.3095                 1.9367
 Frc consts  --      1.2454                 0.7374                 1.1420
 IR Inten    --     21.8503                 0.8559                 1.4706

                     40                     41                     42
                      A                      A                      A
 Frequencies --   1019.3609              1040.4437              1048.6991
 Red. masses --      2.2415                 2.5062                 2.5008
 Frc consts  --      1.3723                 1.5984                 1.6204
 IR Inten    --     19.5603                25.9575                 7.4803

                     43                     44                     45
                      A                      A                      A
 Frequencies --   1066.9520              1083.3883              1087.6647
 Red. masses --      1.3615                 2.1798                 2.6171
 Frc consts  --      0.9132                 1.5075                 1.8242
 IR Inten    --      4.2140                 2.6860                17.8099

                     46                     47                     48
                      A                      A                      A
 Frequencies --   1089.7154              1119.4746              1138.6303
 Red. masses --      1.4084                 1.5479                 2.3211
 Frc consts  --      0.9854                 1.1429                 1.7730
 IR Inten    --      2.5514                 0.2676                 4.6958

                     49                     50                     51
                      A                      A                      A
 Frequencies --   1155.2798              1169.6403              1181.8557
 Red. masses --      1.3912                 1.1694                 1.5149
 Frc consts  --      1.0940                 0.9426                 1.2467
 IR Inten    --      4.1953                 1.7825                 1.1108

                     52                     53                     54
                      A                      A                      A
 Frequencies --   1197.7066              1215.3925              1218.7050
 Red. masses --      2.0447                 1.4035                 1.8021
 Frc consts  --      1.7282                 1.2215                 1.5770
 IR Inten    --     51.2057                 1.9087                14.6243

                     55                     56                     57
                      A                      A                      A
 Frequencies --   1227.3945              1233.3158              1247.6197
 Red. masses --      1.9918                 1.3441                 1.7412
 Frc consts  --      1.7679                 1.2045                 1.5969
 IR Inten    --     10.0021                 4.7166                 2.8441

                     58                     59                     60
                      A                      A                      A
 Frequencies --   1312.4349              1334.9797              1343.3027
 Red. masses --      1.1537                 1.7672                 1.6199
 Frc consts  --      1.1708                 1.8556                 1.7223
 IR Inten    --      0.1135                 2.3359                 8.0493

                     61                     62                     63
                      A                      A                      A
 Frequencies --   1356.5585              1379.9037              1391.9264
 Red. masses --      1.9455                 1.7905                 1.7790
 Frc consts  --      2.1094                 2.0088                 2.0308
 IR Inten    --      1.0608                29.4260                17.3053

                     64                     65                     66
                      A                      A                      A
 Frequencies --   1420.2789              1438.1780              1439.0486
 Red. masses --      1.7721                 1.3215                 1.3967
 Frc consts  --      2.1061                 1.6104                 1.7041
 IR Inten    --     13.1558                 1.4541                16.4931

                     67                     68                     69
                      A                      A                      A
 Frequencies --   1465.4797              1486.4245              1510.6344
 Red. masses --      2.3752                 1.0901                 1.0828
 Frc consts  --      3.0054                 1.4191                 1.4558
 IR Inten    --     16.7404                 1.4039                 2.2895

                     70                     71                     72
                      A                      A                      A
 Frequencies --   1530.5386              1530.7155              1533.5596
 Red. masses --      1.1397                 1.0439                 1.3253
 Frc consts  --      1.5730                 1.4412                 1.8364
 IR Inten    --      0.6522                 6.6675                 1.7993

                     73                     74                     75
                      A                      A                      A
 Frequencies --   1539.9722              1566.0616              1630.2908
 Red. masses --      1.0550                 2.4670                 6.0460
 Frc consts  --      1.4741                 3.5648                 9.4678
 IR Inten    --      5.3121                17.8338                 3.6092

                     76                     77                     78
                      A                      A                      A
 Frequencies --   1678.3583              1689.5322              2981.2708
 Red. masses --      5.2355                 1.1088                 1.0658
 Frc consts  --      8.6892                 1.8648                 5.5813
 IR Inten    --      2.7367                34.7098                60.2395

                     79                     80                     81
                      A                      A                      A
 Frequencies --   3025.4913              3046.6920              3049.4693
 Red. masses --      1.0608                 1.0961                 1.1012
 Frc consts  --      5.7209                 5.9945                 6.0333
 IR Inten    --     26.5948                57.1098                17.0720

                     82                     83                     84
                      A                      A                      A
 Frequencies --   3051.6660              3117.8336              3121.7306
 Red. masses --      1.0359                 1.1028                 1.1021
 Frc consts  --      5.6837                 6.3160                 6.3280
 IR Inten    --     22.2980                36.0658                42.3828

                     85                     86                     87
                      A                      A                      A
 Frequencies --   3146.9773              3150.8032              3169.0885
 Red. masses --      1.0510                 1.0569                 1.0891
 Frc consts  --      6.1323                 6.1822                 6.4446
 IR Inten    --     26.1353                14.0850                23.1784

                     88                     89                     90
                      A                      A                      A
 Frequencies --   3189.4082              3202.7752              3221.0083
 Red. masses --      1.0893                 1.0871                 1.1184
 Frc consts  --      6.5287                 6.5703                 6.8366
 IR Inten    --      1.1692                11.4653                 2.5300

                     91                     92                     93
                      A                      A                      A
 Frequencies --   3223.8085              3228.6137              3236.8751
 Red. masses --      1.0924                 1.0914                 1.1158
 Frc consts  --      6.6892                 6.7028                 6.8878
 IR Inten    --     12.0150                 3.4442                20.5227

                     94                     95                     96
                      A                      A                      A
 Frequencies --   3475.9948              3562.1681              3740.9485
 Red. masses --      1.0498                 1.0926                 1.0656
 Frc consts  --      7.4735                 8.1687                 8.7867
 IR Inten    --      1.8775                 0.2029                 5.8591

 - Thermochemistry -
 -------------------
 Temperature   298.150 Kelvin.  Pressure   1.00000 Atm.
 Atom     1 has atomic number  6 and mass  12.00000

 Molecular mass:   205.14666 amu.
 Principal axes and moments of inertia in atomic units:
                           1         2         3
     Eigenvalues --  1572.459795617.264475772.05995
           X            0.99999  -0.00352  -0.00191
           Y            0.00359   0.99930   0.03732
           Z            0.00178  -0.03732   0.99930
 This molecule is an asymmetric top.
 Rotational symmetry number  1.
 Warning -- assumption of classical behavior for rotation
           may cause significant error
 Rotational temperatures (Kelvin)      0.05508     0.01542     0.01501
 Rotational constants (GHZ):           1.14772     0.32128     0.31267
 Zero-point vibrational energy     785409.8 (Joules/Mol)
                                  187.71746 (Kcal/Mol)
 Warning -- explicit consideration of  23 degrees of freedom as
           vibrations may cause significant error
 Vibrational temperatures:     18.61    51.77    79.58   115.37   176.66
          (Kelvin)            198.70   234.21   305.45   330.92   372.67
                              406.94   426.32   432.57   474.31   515.80
                              533.21   585.04   600.53   643.74   717.28
                              728.07   817.82   872.53   943.45   956.11
                             1045.05  1116.75  1135.57  1154.48  1202.49
                             1224.70  1231.22  1240.54  1281.68  1347.68
                             1379.88  1389.02  1406.62  1439.36  1466.63
                             1496.97  1508.84  1535.11  1558.75  1564.91
                             1567.86  1610.67  1638.24  1662.19  1682.85
                             1700.43  1723.23  1748.68  1753.44  1765.95
                             1774.47  1795.05  1888.30  1920.74  1932.71
                             1951.79  1985.37  2002.67  2043.46  2069.22
                             2070.47  2108.50  2138.63  2173.47  2202.10
                             2202.36  2206.45  2215.68  2253.21  2345.62
                             2414.78  2430.86  4289.38  4353.01  4383.51
                             4387.51  4390.67  4485.87  4491.47  4527.80
                             4533.30  4559.61  4588.85  4608.08  4634.31
                             4638.34  4645.26  4657.14  5001.18  5125.17
                             5382.39

 Zero-point correction=                           0.299147 (Hartree/Particle)
 Thermal correction to Energy=                    0.314513
 Thermal correction to Enthalpy=                  0.315457
 Thermal correction to Gibbs Free Energy=         0.255303
 Sum of electronic and zero-point Energies=           -636.520820
 Sum of electronic and thermal Energies=              -636.505454
 Sum of electronic and thermal Enthalpies=            -636.504510
 Sum of electronic and thermal Free Energies=         -636.564664

                     E (Thermal)             CV                S
                      KCal/Mol        Cal/Mol-Kelvin    Cal/Mol-Kelvin
 Total                  197.360             59.313            126.606
 Electronic               0.000              0.000              0.000
 Translational            0.889              2.981             41.860
 Rotational               0.889              2.981             32.300
 Vibrational            195.582             53.352             52.446
 Vibration     1          0.593              1.987              7.500
 Vibration     2          0.594              1.982              5.469
 Vibration     3          0.596              1.975              4.618
 Vibration     4          0.600              1.963              3.886
 Vibration     5          0.610              1.930              3.056
 Vibration     6          0.614              1.915              2.830
 Vibration     7          0.623              1.888              2.517
 Vibration     8          0.643              1.822              2.024
 Vibration     9          0.652              1.795              1.879
 Vibration    10          0.668              1.748              1.668
 Vibration    11          0.682              1.705              1.516
 Vibration    12          0.690              1.681              1.438
 Vibration    13          0.693              1.672              1.413
 Vibration    14          0.712              1.616              1.262
 Vibration    15          0.733              1.558              1.129
 Vibration    16          0.743              1.533              1.077
 Vibration    17          0.771              1.456              0.939
 Vibration    18          0.780              1.432              0.901
 Vibration    19          0.807              1.367              0.804
 Vibration    20          0.854              1.253              0.662
 Vibration    21          0.861              1.237              0.643
 Vibration    22          0.924              1.100              0.507
 Vibration    23          0.965              1.018              0.439

                           ! Non-Optimized Parameters !
 Normal termination of Gaussian 16 at Thu Dec 10 15:03:46 2020.

 ----------------------------------------------------------------------
 # B3LYP/6-311++G(d,p) empiricaldispersion=gd3bj scf=xqc pop=npa geom=c
 heck
 ----------------------------------------------------------------------

 --------------------------------------
 CID_79017452_JID_5044_Energie_neutraal
 --------------------------------------
 Structure from the checkpoint file:  "JID_5044.chk"
 Charge =  0 Multiplicity = 1

 SCF Done:  E(RB3LYP) =  -637.007257047     A.U. after   14 cycles
 Normal termination of Gaussian 16 at Thu Dec 10 15:08:50 2020.

 ----------------------------------------------------------------------
 # B3LYP/6-311++G(d,p) empiricaldispersion=gd3bj scf=xqc pop=npa geom=c
 heck
 ----------------------------------------------------------------------

 ------------------------------------
 CID_79017452_JID_5044_Energie_kation
 ------------------------------------
 Structure from the checkpoint file:  "JID_5044.chk"
 Charge =  1 Multiplicity = 2

 SCF Done:  E(UB3LYP) =  -636.708719233     A.U. after   24 cycles
 Normal termination of Gaussian 16 at Thu Dec 10 15:19:39 2020.
 Gaussian 16:  ES64L-G16RevA.03 25-Dec-2016

 ----------------------------------------------------------------------
 # B3LYP/6-311++G(d,p) empiricaldispersion=gd3bj scf=xqc pop=npa geom=c
 heck
 ----------------------------------------------------------------------

 -----------------------------------
 CID_79017452_JID_5044_Energie_anion
 -----------------------------------
 Structure from the checkpoint file:  "JID_5044.chk"
 Charge = -1 Multiplicity = 2

                         Standard orientation:
 ---------------------------------------------------------------------
 Center     Atomic      Atomic             Coordinates (Angstroms)
 Number     Number       Type             X           Y           Z
 ---------------------------------------------------------------------
      1          6           0        4.857721   -0.755411   -0.752543
      2          6           0        4.157497   -0.019664    0.390630
      3          6           0        2.643179    0.046200    0.311505
      4          6           0        1.901762   -0.600057   -0.680527
      5          6           0        0.506967   -0.522632   -0.706374
      6          6           0       -0.190932    0.209733    0.257285
      7          6           0        0.549087    0.863967    1.252220
      8          6           0        1.936602    0.778333    1.276899
      9          6           0       -1.705692    0.369601    0.201122
     10          6           0       -2.054851    1.654244   -0.592052
     11          7           0       -1.573535    1.585477   -1.971007
     12          6           0       -2.392826   -0.835136   -0.438620
     13          6           0       -2.415677   -2.160766    0.264963
     14          6           0       -3.695105   -1.374949    0.103028
     15          8           0       -2.138920    0.556091    1.555137
     16          1           0        4.553560   -1.806905   -0.800384
     17          1           0        5.943529   -0.729660   -0.614108
     18          1           0        4.632264   -0.296740   -1.721929
     19          1           0        4.437455   -0.491039    1.343467
     20          1           0        4.547723    1.005918    0.449862
     21          1           0        2.406586   -1.180124   -1.446276
     22          1           0       -0.036515   -1.046003   -1.485037
     23          1           0        0.022558    1.427383    2.013965
     24          1           0        2.488468    1.288726    2.063998
     25          1           0       -3.150028    1.741918   -0.624629
     26          1           0       -1.668052    2.508268   -0.011160
     27          1           0       -1.904288    2.394015   -2.492880
     28          1           0       -0.555821    1.629956   -1.972435
     29          1           0       -2.299292   -0.843202   -1.520147
     30          1           0       -2.275887   -3.066181   -0.318714
     31          1           0       -1.984298   -2.189047    1.261353
     32          1           0       -4.117217   -0.937986    1.003507
     33          1           0       -4.436258   -1.719626   -0.612421
     34          1           0       -3.064774    0.842480    1.514716
 ---------------------------------------------------------------------

 SCF Done:  E(UB3LYP) =  -636.992682052     A.U. after   33 cycles
 SCF Done:  E(UB3LYP) =  -636.992682053     a.u. after    1 cycles

 The electronic state is 2-A.
 Alpha  occ. eigenvalues --  -19.03049 -14.19771 -10.13993 -10.09589 -10.08684
 Alpha  occ. eigenvalues --  -10.08237 -10.08180 -10.07974 -10.07861 -10.07747
 Alpha  occ. eigenvalues --  -10.07639 -10.07620 -10.07573 -10.07460 -10.06911
 Alpha  occ. eigenvalues --   -0.93723  -0.79193  -0.76635  -0.76117  -0.70064
 Alpha  occ. eigenvalues --   -0.65513  -0.64971  -0.60950  -0.55252  -0.52727
 Alpha  occ. eigenvalues --   -0.51981  -0.50736  -0.48324  -0.46681  -0.42220
 Alpha  occ. eigenvalues --   -0.41473  -0.39837  -0.38863  -0.36227  -0.36060
 Alpha  occ. eigenvalues --   -0.35979  -0.35553  -0.33984  -0.32918  -0.32246
 Alpha  occ. eigenvalues --   -0.30173  -0.29245  -0.28032  -0.27870  -0.27616
 Alpha  occ. eigenvalues --   -0.27126  -0.25319  -0.24999  -0.24207  -0.23133
 Alpha  occ. eigenvalues --   -0.20806  -0.20009  -0.18471  -0.15932  -0.15185
 Alpha  occ. eigenvalues --   -0.14352   0.04219
 Alpha virt. eigenvalues --    0.05525   0.06825   0.07119   0.07509   0.07764
 Alpha virt. eigenvalues --    0.08176   0.08314   0.09528   0.09696   0.09840
 Alpha virt. eigenvalues --    0.10233   0.10609   0.11097   0.11776   0.12384

  Beta  occ. eigenvalues --  -19.03029 -14.19743 -10.13993 -10.09558 -10.08685
  Beta  occ. eigenvalues --  -10.08236 -10.08163 -10.07971 -10.07838 -10.07745
  Beta  occ. eigenvalues --  -10.07636 -10.07608 -10.07568 -10.07453 -10.06877
  Beta  occ. eigenvalues --   -0.93684  -0.79146  -0.76618  -0.76105  -0.70040
  Beta  occ. eigenvalues --   -0.65485  -0.64950  -0.60909  -0.55189  -0.52674
  Beta  occ. eigenvalues --   -0.51955  -0.50696  -0.48291  -0.46651  -0.42190
  Beta  occ. eigenvalues --   -0.41442  -0.39806  -0.38834  -0.36188  -0.36031
  Beta  occ. eigenvalues --   -0.35939  -0.35530  -0.33953  -0.32883  -0.32231
  Beta  occ. eigenvalues --   -0.30132  -0.29226  -0.28001  -0.27829  -0.27584
  Beta  occ. eigenvalues --   -0.27100  -0.25293  -0.24974  -0.24189  -0.23111
  Beta  occ. eigenvalues --   -0.20786  -0.19992  -0.18452  -0.15920  -0.15158
  Beta  occ. eigenvalues --   -0.14339
  Beta virt. eigenvalues --    0.06261   0.06759   0.07320   0.07557   0.07651
  Beta virt. eigenvalues --    0.08164   0.08294   0.08622   0.09726   0.09888
  Beta virt. eigenvalues --    0.10188   0.10570   0.11020   0.11465   0.11940

 Mulliken charges and spin densities:
               1          2
     1  C    0.661606  -1.244511
     2  C   -0.535649   0.192886
     3  C    0.429212   0.290890
     4  C   -1.300679   0.337947
     5  C   -0.487818  -0.492516
     6  C    0.357572  -0.155244
     7  C   -0.534828   0.579662
     8  C    0.652418  -0.552736
     9  C    1.446724  -1.012730
    10  C    1.958789  -2.421804
    11  N   -0.723291   0.303000
    12  C   -1.868848   1.732789
    13  C   -0.525809   0.130534
    14  C    1.281451  -1.639240
    15  O   -0.168867  -0.011219
    16  H   -0.053395   0.194582
    17  H   -0.842978   1.016948
    18  H   -0.044752   0.188720
    19  H    0.028125   0.134713
    20  H   -0.035091   0.188189
    21  H    0.112385   0.039108
    22  H   -0.119467   0.275545
    23  H   -0.061715   0.247434
    24  H   -0.012154   0.180682
    25  H   -0.618015   0.790397
    26  H   -0.048118   0.215349
    27  H   -0.156315   0.417163
    28  H    0.161174   0.075681
    29  H    0.083542   0.166732
    30  H    0.076912   0.061790
    31  H    0.143805   0.009749
    32  H   -0.210318   0.329835
    33  H   -0.057702   0.198852
    34  H    0.012095   0.230822
 Sum of Mulliken charges =  -1.00000   1.00000

 Dipole moment (field-independent basis, Debye):
    X=             -1.0211    Y=             -2.4370    Z=              1.4259  Tot=              3.0025
 Quadrupole moment (field-independent basis, Debye-Ang):
   XX=           -202.8584   YY=           -128.9882   ZZ=           -127.2672
   XY=             13.1319   XZ=              2.0839   YZ=              4.4993

 Summary of Natural Population Analysis:

                                       Natural Population
                Natural  -----------------------------------------------
    Atom  No    Charge         Core      Valence    Rydberg      Total
 -----------------------------------------------------------------------
      C    1   -0.28832      0.99967     2.28307    0.00557     3.28832
      C    2   -0.19818      0.99961     2.18919    0.00939     3.19818
      C    3   -0.02020      0.99954     2.00975    0.01091     3.02020
      C    4   -0.08855      0.99951     2.08366    0.00537     3.08855
      C    5   -0.10483      0.99953     2.09419    0.01111     3.10483
      C    6   -0.02542      0.99946     2.01272    0.01323     3.02542
      C    7   -0.09277      0.99951     2.08315    0.01012     3.09277
      C    8   -0.09765      0.99951     2.08971    0.00843     3.09765
      C    9    0.12319      0.99944     1.85803    0.01933     2.87681
      C   10   -0.09141      0.99958     2.07900    0.01284     3.09141
      N   11   -0.42534      0.99977     2.91509    0.01049     3.92534
      C   12   -0.13003      0.99954     2.11822    0.01228     3.13003
      C   13   -0.19725      0.99961     2.19122    0.00642     3.19725
      C   14   -0.19610      0.99961     2.18760    0.00888     3.19610
      O   15   -0.37465      0.99989     3.36827    0.00649     4.37465
      H   16    0.09679      0.00000     0.40202    0.00119     0.40321
      H   17    0.10333      0.00000     0.39510    0.00157     0.39667
      H   18    0.09824      0.00000     0.40056    0.00120     0.40176
      H   19    0.10118      0.00000     0.39770    0.00112     0.39882
      H   20    0.10171      0.00000     0.39706    0.00122     0.39829
      H   21    0.09925      0.00000     0.39933    0.00142     0.40075
      H   22    0.10480      0.00000     0.39357    0.00163     0.39520
      H   23    0.11110      0.00000     0.38767    0.00123     0.38890
      H   24    0.09774      0.00000     0.40130    0.00096     0.40226
      H   25    0.09355      0.00000     0.40360    0.00285     0.40645
      H   26    0.08558      0.00000     0.41238    0.00204     0.41442
      H   27    0.17943      0.00000     0.31840    0.00216     0.32057
      H   28    0.17758      0.00000     0.32032    0.00210     0.32242
      H   29    0.11787      0.00000     0.38024    0.00189     0.38213
      H   30    0.09837      0.00000     0.40073    0.00090     0.40163
      H   31    0.10677      0.00000     0.39212    0.00111     0.39323
      H   32    0.10100      0.00000     0.39772    0.00128     0.39900
      H   33    0.10147      0.00000     0.39767    0.00086     0.39853
      H   34    0.23175      0.00000     0.26440    0.00384     0.26825
 =======================================================================
   * Total *    0.00002     14.99379    40.82475    0.18144    55.99998

 Normal termination of Gaussian 16 at Thu Dec 10 15:38:28 2020.
