 Gaussian 16, Revision A.03,

 -----------------------------------------------------------
 # opt freq B3LYP/6-31G(d) empiricaldispersion=gd3bj scf=xqc
 -----------------------------------------------------------

 ------------------------------
 CID_65462172_JID_6753_neutraal
 ------------------------------
 Symbolic Z-matrix:
 Charge =  0 Multiplicity = 1

 SCF Done:  E(RB3LYP) =  -710.666766900     A.U. after   14 cycles
 SCF Done:  E(RB3LYP) =  -710.674825906     A.U. after   12 cycles
 SCF Done:  E(RB3LYP) =  -710.676384136     A.U. after   12 cycles
 SCF Done:  E(RB3LYP) =  -710.676211100     A.U. after   12 cycles
 SCF Done:  E(RB3LYP) =  -710.676874916     A.U. after   11 cycles
 SCF Done:  E(RB3LYP) =  -710.676955027     A.U. after   11 cycles
 SCF Done:  E(RB3LYP) =  -710.677004676     A.U. after   11 cycles
 SCF Done:  E(RB3LYP) =  -710.677025537     A.U. after   10 cycles
 SCF Done:  E(RB3LYP) =  -710.677034961     A.U. after   10 cycles
 SCF Done:  E(RB3LYP) =  -710.677042928     A.U. after    9 cycles
 SCF Done:  E(RB3LYP) =  -710.677059475     A.U. after    8 cycles
 SCF Done:  E(RB3LYP) =  -710.677060837     A.U. after    8 cycles
 SCF Done:  E(RB3LYP) =  -710.677061157     A.U. after    7 cycles
 SCF Done:  E(RB3LYP) =  -710.677061115     A.U. after    7 cycles
 Optimization completed.
    -- Stationary point found.
 Normal termination of Gaussian 16 at Thu Dec 10 23:39:31 2020.

 --------------------------------------------------------------------
 #N Geom=AllCheck Guess=TCheck SCRF=Check GenChk RB3LYP/6-31G(d) Freq
 --------------------------------------------------------------------

 Structure from the checkpoint file:  "JID_6753.chk"
 ------------------------------
 CID_65462172_JID_6753_neutraal
 ------------------------------
 Charge =  0 Multiplicity = 1

 SCF Done:  E(RB3LYP) =  -710.677061115     A.U. after    1 cycles

  Exact polarizability: 160.691  -0.132 138.894   5.051   2.094 130.796
 Approx polarizability: 201.210   1.989 215.794   4.733   4.541 188.087

                      1                      2                      3
                      A                      A                      A
 Frequencies --     29.8868                47.7322                63.5639
 Red. masses --      4.0641                 3.0512                 3.6935
 Frc consts  --      0.0021                 0.0041                 0.0088
 IR Inten    --      1.1437                 0.2020                 1.2132

                      4                      5                      6
                      A                      A                      A
 Frequencies --     79.4147               104.5741               135.8431
 Red. masses --      2.8215                 3.0265                 3.7718
 Frc consts  --      0.0105                 0.0195                 0.0410
 IR Inten    --      0.2862                 2.3742                 0.6600

                      7                      8                      9
                      A                      A                      A
 Frequencies --    191.4797               210.1419               213.4720
 Red. masses --      2.4777                 1.5814                 1.8949
 Frc consts  --      0.0535                 0.0411                 0.0509
 IR Inten    --      1.6243                 2.7000                 1.9493

                     10                     11                     12
                      A                      A                      A
 Frequencies --    233.9444               244.7338               254.0562
 Red. masses --      3.0575                 2.2753                 1.4734
 Frc consts  --      0.0986                 0.0803                 0.0560
 IR Inten    --      1.5517                 1.9063                 2.1129

                     13                     14                     15
                      A                      A                      A
 Frequencies --    261.0940               300.7374               326.3035
 Red. masses --      1.5926                 1.8985                 2.6238
 Frc consts  --      0.0640                 0.1012                 0.1646
 IR Inten    --      0.0017                 3.5132                 0.1837

                     16                     17                     18
                      A                      A                      A
 Frequencies --    361.1445               380.1077               389.0879
 Red. masses --      2.2646                 2.7565                 2.1301
 Frc consts  --      0.1740                 0.2347                 0.1900
 IR Inten    --      4.0887                 3.8263                 2.1095

                     19                     20                     21
                      A                      A                      A
 Frequencies --    442.9043               461.8302               489.4120
 Red. masses --      3.0689                 2.9538                 2.7797
 Frc consts  --      0.3547                 0.3712                 0.3923
 IR Inten    --      6.5988                 5.2569                 1.1788

                     22                     23                     24
                      A                      A                      A
 Frequencies --    511.2410               539.6722               580.7359
 Red. masses --      3.1085                 3.7778                 1.9662
 Frc consts  --      0.4787                 0.6483                 0.3907
 IR Inten    --      1.1177                 4.9328                 6.1472

                     25                     26                     27
                      A                      A                      A
 Frequencies --    590.9785               640.7670               679.1382
 Red. masses --      2.1314                 3.2631                 4.0250
 Frc consts  --      0.4386                 0.7894                 1.0938
 IR Inten    --     24.6050                 8.5388                 0.8187

                     28                     29                     30
                      A                      A                      A
 Frequencies --    763.9014               781.5555               817.4092
 Red. masses --      3.1564                 2.2867                 1.9233
 Frc consts  --      1.0852                 0.8230                 0.7571
 IR Inten    --     30.7513                17.7989                24.6691

                     31                     32                     33
                      A                      A                      A
 Frequencies --    845.7559               876.4296               889.7307
 Red. masses --      1.9971                 1.9552                 1.9793
 Frc consts  --      0.8417                 0.8849                 0.9232
 IR Inten    --     47.1176                 1.9845                 2.7448

                     34                     35                     36
                      A                      A                      A
 Frequencies --    903.1863               917.9276               929.0941
 Red. masses --      1.9743                 2.3260                 2.4985
 Frc consts  --      0.9489                 1.1547                 1.2707
 IR Inten    --      0.7427                23.3676                 3.1587

                     37                     38                     39
                      A                      A                      A
 Frequencies --    937.0374               949.1341               957.9937
 Red. masses --      1.4853                 1.5954                 1.7633
 Frc consts  --      0.7684                 0.8468                 0.9535
 IR Inten    --      8.3392                 2.6544                 2.2287

                     40                     41                     42
                      A                      A                      A
 Frequencies --    979.7889              1000.8441              1022.6262
 Red. masses --      1.8059                 1.8603                 1.6147
 Frc consts  --      1.0215                 1.0979                 0.9949
 IR Inten    --      1.8731                 3.1833                 4.2287

                     43                     44                     45
                      A                      A                      A
 Frequencies --   1030.2107              1041.2087              1059.2672
 Red. masses --      2.2542                 1.6785                 1.5945
 Frc consts  --      1.4096                 1.0721                 1.0541
 IR Inten    --      3.2985                 3.7921                 2.1957

                     46                     47                     48
                      A                      A                      A
 Frequencies --   1080.1367              1118.2216              1135.0992
 Red. masses --      2.0626                 1.9110                 2.3839
 Frc consts  --      1.4178                 1.4079                 1.8097
 IR Inten    --      1.6184                 3.4458                36.6105

                     49                     50                     51
                      A                      A                      A
 Frequencies --   1157.1520              1161.9092              1180.7974
 Red. masses --      2.2193                 2.2587                 2.9164
 Frc consts  --      1.7508                 1.7966                 2.3958
 IR Inten    --      8.4034                 4.9075                20.2326

                     52                     53                     54
                      A                      A                      A
 Frequencies --   1195.8305              1202.8050              1208.7249
 Red. masses --      1.5183                 1.5436                 1.5179
 Frc consts  --      1.2792                 1.3157                 1.3066
 IR Inten    --      7.2834                16.2402                 2.7896

                     55                     56                     57
                      A                      A                      A
 Frequencies --   1231.4299              1234.5362              1258.9855
 Red. masses --      2.6319                 2.9319                 1.3006
 Frc consts  --      2.3515                 2.6328                 1.2146
 IR Inten    --     17.7383                26.4938                11.1141

                     58                     59                     60
                      A                      A                      A
 Frequencies --   1263.2140              1267.7610              1286.5567
 Red. masses --      1.2505                 1.8636                 1.3809
 Frc consts  --      1.1756                 1.7648                 1.3467
 IR Inten    --     17.2610                10.4236                13.3883

                     61                     62                     63
                      A                      A                      A
 Frequencies --   1302.2686              1314.1819              1335.0372
 Red. masses --      1.5036                 1.5015                 1.3293
 Frc consts  --      1.5024                 1.5279                 1.3959
 IR Inten    --     10.1141                20.2115                 0.5915

                     64                     65                     66
                      A                      A                      A
 Frequencies --   1344.9955              1365.3308              1373.2837
 Red. masses --      1.2376                 1.2685                 1.3358
 Frc consts  --      1.3191                 1.3933                 1.4843
 IR Inten    --      9.1905                 1.1603                22.5789

                     67                     68                     69
                      A                      A                      A
 Frequencies --   1377.6636              1386.8658              1394.1015
 Red. masses --      1.4804                 1.4304                 1.5696
 Frc consts  --      1.6554                 1.6210                 1.7974
 IR Inten    --      2.5086                 8.6555                 6.9626

                     70                     71                     72
                      A                      A                      A
 Frequencies --   1422.6250              1427.1587              1438.7170
 Red. masses --      1.2679                 1.3467                 1.3446
 Frc consts  --      1.5119                 1.6161                 1.6398
 IR Inten    --     13.1467                 5.2246                23.8412

                     73                     74                     75
                      A                      A                      A
 Frequencies --   1454.8703              1462.1425              1500.0914
 Red. masses --      1.4583                 6.7036                 1.2564
 Frc consts  --      1.8186                 8.4438                 1.6658
 IR Inten    --      1.4382               253.9674                 0.4171

                     76                     77                     78
                      A                      A                      A
 Frequencies --   1511.6715              1515.4719              1518.8727
 Red. masses --      1.1125                 1.0744                 1.0765
 Frc consts  --      1.4978                 1.4538                 1.4632
 IR Inten    --      0.9033                 0.1052                 2.8648

                     79                     80                     81
                      A                      A                      A
 Frequencies --   1519.4666              1519.9601              1526.7678
 Red. masses --      1.0916                 1.0977                 1.0974
 Frc consts  --      1.4849                 1.4942                 1.5072
 IR Inten    --      2.8171                 2.1727                 1.8129

                     82                     83                     84
                      A                      A                      A
 Frequencies --   1527.8837              1531.3965              1540.2115
 Red. masses --      1.0847                 1.0929                 1.0539
 Frc consts  --      1.4919                 1.5101                 1.4730
 IR Inten    --      2.8406                 8.6202                 5.9857

                     85                     86                     87
                      A                      A                      A
 Frequencies --   1546.1641              1547.9035              1557.5892
 Red. masses --      1.0777                 1.0724                 1.0982
 Frc consts  --      1.5180                 1.5139                 1.5698
 IR Inten    --      0.8123                 4.9190                 6.2379

                     88                     89                     90
                      A                      A                      A
 Frequencies --   1753.0664              2931.1100              2936.8148
 Red. masses --     10.3412                 1.0733                 1.0716
 Frc consts  --     18.7249                 5.4331                 5.4456
 IR Inten    --    278.5774                26.7776               110.0015

                     91                     92                     93
                      A                      A                      A
 Frequencies --   2981.3349              3010.6047              3043.7425
 Red. masses --      1.0720                 1.0688                 1.0716
 Frc consts  --      5.6139                 5.7076                 5.8490
 IR Inten    --     58.5135                38.9270                42.4874

                     94                     95                     96
                      A                      A                      A
 Frequencies --   3055.4606              3058.1320              3060.6110
 Red. masses --      1.0368                 1.0699                 1.0387
 Frc consts  --      5.7029                 5.8951                 5.7326
 IR Inten    --     18.4534                18.4346                19.5526

                     97                     98                     99
                      A                      A                      A
 Frequencies --   3063.8767              3067.0991              3085.5590
 Red. masses --      1.0634                 1.0599                 1.0883
 Frc consts  --      5.8815                 5.8744                 6.1048
 IR Inten    --     27.7798                29.4343                37.9576

                    100                    101                    102
                      A                      A                      A
 Frequencies --   3088.7095              3101.4936              3101.9358
 Red. masses --      1.0899                 1.0889                 1.0928
 Frc consts  --      6.1264                 6.1713                 6.1954
 IR Inten    --     40.3879                23.3099                 9.8784

                    103                    104                    105
                      A                      A                      A
 Frequencies --   3106.2252              3111.6942              3116.0525
 Red. masses --      1.1005                 1.0936                 1.1006
 Frc consts  --      6.2562                 6.2387                 6.2963
 IR Inten    --     34.4753                18.8194                14.7379

                    106                    107                    108
                      A                      A                      A
 Frequencies --   3118.8994              3123.7111              3126.7315
 Red. masses --      1.0995                 1.0996                 1.1052
 Frc consts  --      6.3016                 6.3216                 6.3663
 IR Inten    --     33.4649                50.2510                61.0796

                    109                    110                    111
                      A                      A                      A
 Frequencies --   3135.4306              3153.7164              3504.2032
 Red. masses --      1.1024                 1.0999                 1.0747
 Frc consts  --      6.3853                 6.4455                 7.7756
 IR Inten    --     24.1427                14.2229                 1.6597

 - Thermochemistry -
 -------------------
 Temperature   298.150 Kelvin.  Pressure   1.00000 Atm.
 Atom     1 has atomic number  6 and mass  12.00000

 Molecular mass:   225.18411 amu.
 Principal axes and moments of inertia in atomic units:
                           1         2         3
     Eigenvalues --  2061.833425505.233565689.23642
           X            0.99984  -0.01510   0.00977
           Y            0.01465   0.99886   0.04545
           Z           -0.01044  -0.04530   0.99892
 This molecule is an asymmetric top.
 Rotational symmetry number  1.
 Warning -- assumption of classical behavior for rotation
           may cause significant error
 Rotational temperatures (Kelvin)      0.04201     0.01573     0.01522
 Rotational constants (GHZ):           0.87531     0.32782     0.31722
 Zero-point vibrational energy     930390.6 (Joules/Mol)
                                  222.36870 (Kcal/Mol)
 Warning -- explicit consideration of  25 degrees of freedom as
           vibrations may cause significant error
 Vibrational temperatures:     43.00    68.68    91.45   114.26   150.46
          (Kelvin)            195.45   275.50   302.35   307.14   336.59
                              352.12   365.53   375.66   432.69   469.48
                              519.61   546.89   559.81   637.24   664.47
                              704.15   735.56   776.47   835.55   850.29
                              921.92   977.13  1099.08  1124.48  1176.07
                             1216.85  1260.99  1280.12  1299.48  1320.69
                             1336.76  1348.19  1365.59  1378.34  1409.70
                             1439.99  1471.33  1482.24  1498.07  1524.05
                             1554.08  1608.87  1633.15  1664.88  1671.73
                             1698.90  1720.53  1730.57  1739.09  1771.75
                             1776.22  1811.40  1817.48  1824.03  1851.07
                             1873.67  1890.81  1920.82  1935.15  1964.41
                             1975.85  1982.15  1995.39  2005.80  2046.84
                             2053.36  2069.99  2093.23  2103.70  2158.30
                             2174.96  2180.43  2185.32  2186.17  2186.88
                             2196.68  2198.28  2203.34  2216.02  2224.59
                             2227.09  2241.02  2522.27  4217.21  4225.42
                             4289.48  4331.59  4379.27  4396.13  4399.97
                             4403.54  4408.24  4412.87  4439.43  4443.96
                             4462.36  4462.99  4469.17  4477.03  4483.30
                             4487.40  4494.32  4498.67  4511.19  4537.49
                             5041.77

 Zero-point correction=                           0.354367 (Hartree/Particle)
 Thermal correction to Energy=                    0.370427
 Thermal correction to Enthalpy=                  0.371371
 Thermal correction to Gibbs Free Energy=         0.310768
 Sum of electronic and zero-point Energies=           -710.322694
 Sum of electronic and thermal Energies=              -710.306634
 Sum of electronic and thermal Enthalpies=            -710.305690
 Sum of electronic and thermal Free Energies=         -710.366293

                     E (Thermal)             CV                S
                      KCal/Mol        Cal/Mol-Kelvin    Cal/Mol-Kelvin
 Total                  232.447             62.583            127.551
 Electronic               0.000              0.000              0.000
 Translational            0.889              2.981             42.138
 Rotational               0.889              2.981             32.535
 Vibrational            230.669             56.622             52.879
 Vibration     1          0.594              1.984              5.837
 Vibration     2          0.595              1.978              4.909
 Vibration     3          0.597              1.972              4.343
 Vibration     4          0.600              1.963              3.905
 Vibration     5          0.605              1.946              3.367
 Vibration     6          0.614              1.918              2.862
 Vibration     7          0.634              1.852              2.213
 Vibration     8          0.642              1.825              2.042
 Vibration     9          0.644              1.820              2.014
 Vibration    10          0.654              1.789              1.848
 Vibration    11          0.660              1.771              1.768
 Vibration    12          0.665              1.756              1.702
 Vibration    13          0.669              1.744              1.654
 Vibration    14          0.693              1.672              1.413
 Vibration    15          0.710              1.623              1.278
 Vibration    16          0.735              1.552              1.117
 Vibration    17          0.750              1.513              1.039
 Vibration    18          0.757              1.493              1.004
 Vibration    19          0.803              1.377              0.818
 Vibration    20          0.820              1.335              0.761
 Vibration    21          0.845              1.274              0.685
 Vibration    22          0.866              1.225              0.631
 Vibration    23          0.895              1.162              0.566
 Vibration    24          0.937              1.073              0.484
 Vibration    25          0.948              1.051              0.465

 Optimization completed.
    -- Stationary point found.
 Normal termination of Gaussian 16 at Thu Dec 10 23:54:49 2020.

 ----------------------------------------------------------------------
 # B3LYP/6-311++G(d,p) empiricaldispersion=gd3bj scf=xqc pop=npa geom=c
 heck
 ----------------------------------------------------------------------

 --------------------------------------
 CID_65462172_JID_6753_Energie_neutraal
 --------------------------------------
 Structure from the checkpoint file:  "JID_6753.chk"
 Charge =  0 Multiplicity = 1

 SCF Done:  E(RB3LYP) =  -710.877124190     A.U. after   14 cycles
 Normal termination of Gaussian 16 at Fri Dec 11 00:01:27 2020.

 ----------------------------------------------------------------------
 # B3LYP/6-311++G(d,p) empiricaldispersion=gd3bj scf=xqc pop=npa geom=c
 heck
 ----------------------------------------------------------------------

 ------------------------------------
 CID_65462172_JID_6753_Energie_kation
 ------------------------------------
 Structure from the checkpoint file:  "JID_6753.chk"
 Charge =  1 Multiplicity = 2

 SCF Done:  E(UB3LYP) =  -710.590021820     A.U. after   33 cycles
 SCF Done:  E(UB3LYP) =  -710.590021821     a.u. after    2 cycles
 Normal termination of Gaussian 16 at Fri Dec 11 00:37:04 2020.
 Gaussian 16:  ES64L-G16RevA.03 25-Dec-2016

 ----------------------------------------------------------------------
 # B3LYP/6-311++G(d,p) empiricaldispersion=gd3bj scf=xqc pop=npa geom=c
 heck
 ----------------------------------------------------------------------

 -----------------------------------
 CID_65462172_JID_6753_Energie_anion
 -----------------------------------
 Structure from the checkpoint file:  "JID_6753.chk"
 Charge = -1 Multiplicity = 2

                         Standard orientation:
 ---------------------------------------------------------------------
 Center     Atomic      Atomic             Coordinates (Angstroms)
 Number     Number       Type             X           Y           Z
 ---------------------------------------------------------------------
      1          6           0        1.796587    1.045566    1.991149
      2          6           0        2.139075    0.249744    0.723160
      3          6           0        2.770151    1.240950   -0.277208
      4          7           0        3.028331    0.598091   -1.560203
      5          6           0        1.770833    0.172581   -2.165948
      6          6           0        1.103772   -0.834855   -1.240632
      7          7           0        0.888890   -0.256213    0.090491
      8          6           0        0.093526   -1.160865    0.915575
      9          6           0       -1.306628   -1.382068    0.335371
     10          8           0       -1.709837   -2.510055    0.055431
     11          7           0       -2.079964   -0.280964    0.136777
     12          6           0       -1.777719    1.110991    0.493957
     13          6           0       -3.151199    1.792720    0.425329
     14          6           0       -3.870122    1.012333   -0.686267
     15          6           0       -3.419408   -0.433371   -0.444839
     16          6           0        3.146245   -0.865491    1.065897
     17          1           0        1.483644    0.400178    2.817368
     18          1           0        1.000109    1.769111    1.791080
     19          1           0        2.682003    1.593253    2.331875
     20          1           0        2.086112    2.106820   -0.368336
     21          1           0        3.719156    1.601918    0.134070
     22          1           0        3.518369    1.241903   -2.176672
     23          1           0        1.975695   -0.296923   -3.134261
     24          1           0        1.071925    1.015213   -2.333016
     25          1           0        1.712095   -1.754773   -1.199789
     26          1           0        0.128880   -1.114468   -1.651407
     27          1           0        0.530716   -2.166175    1.014592
     28          1           0       -0.006698   -0.739762    1.920554
     29          1           0       -1.065890    1.545982   -0.215721
     30          1           0       -1.325323    1.173319    1.487836
     31          1           0       -3.681774    1.664019    1.376472
     32          1           0       -3.073309    2.865330    0.224974
     33          1           0       -4.957848    1.121694   -0.658053
     34          1           0       -3.522717    1.355305   -1.668294
     35          1           0       -4.078387   -0.958381    0.259178
     36          1           0       -3.369737   -1.040070   -1.353090
     37          1           0        4.011014   -0.444284    1.591086
     38          1           0        2.695283   -1.618220    1.721055
     39          1           0        3.513902   -1.356350    0.162340
 ---------------------------------------------------------------------

 SCF Done:  E(UB3LYP) =  -710.866378880     A.U. after   33 cycles
 SCF Done:  E(UB3LYP) =  -710.866378880     a.u. after    1 cycles

 The electronic state is 2-A.
 Alpha  occ. eigenvalues --  -18.98602 -14.24062 -14.21253 -14.20190 -10.16785
 Alpha  occ. eigenvalues --  -10.11598 -10.10614 -10.10488 -10.10418 -10.09498
 Alpha  occ. eigenvalues --  -10.09466 -10.09247 -10.07884 -10.07652 -10.06624
 Alpha  occ. eigenvalues --  -10.06226  -0.93800  -0.85079  -0.84325  -0.79843
 Alpha  occ. eigenvalues --   -0.70603  -0.69602  -0.65038  -0.63683  -0.60062
 Alpha  occ. eigenvalues --   -0.59680  -0.56210  -0.53389  -0.51547  -0.49889
 Alpha  occ. eigenvalues --   -0.45530  -0.43897  -0.41801  -0.40669  -0.40475
 Alpha  occ. eigenvalues --   -0.37537  -0.36716  -0.35765  -0.35134  -0.34684
 Alpha  occ. eigenvalues --   -0.34228  -0.33432  -0.33118  -0.31514  -0.31040
 Alpha  occ. eigenvalues --   -0.29810  -0.29359  -0.28687  -0.28230  -0.27949
 Alpha  occ. eigenvalues --   -0.26778  -0.25939  -0.25811  -0.25432  -0.24753
 Alpha  occ. eigenvalues --   -0.24119  -0.23991  -0.22348  -0.15705  -0.14454
 Alpha  occ. eigenvalues --   -0.13647  -0.12590   0.04043
 Alpha virt. eigenvalues --    0.05992   0.06533   0.07626   0.08044   0.08074
 Alpha virt. eigenvalues --    0.08844   0.09449   0.09886   0.10299   0.10709
 Alpha virt. eigenvalues --    0.11024   0.11158   0.11545   0.11992   0.12488

  Beta  occ. eigenvalues --  -18.98600 -14.24062 -14.21250 -14.20168 -10.16783
  Beta  occ. eigenvalues --  -10.11597 -10.10605 -10.10469 -10.10411 -10.09492
  Beta  occ. eigenvalues --  -10.09449 -10.09223 -10.07861 -10.07620 -10.06600
  Beta  occ. eigenvalues --  -10.06213  -0.93794  -0.85066  -0.84312  -0.79816
  Beta  occ. eigenvalues --   -0.70582  -0.69575  -0.65006  -0.63651  -0.60025
  Beta  occ. eigenvalues --   -0.59649  -0.56171  -0.53352  -0.51502  -0.49808
  Beta  occ. eigenvalues --   -0.45494  -0.43851  -0.41752  -0.40646  -0.40451
  Beta  occ. eigenvalues --   -0.37513  -0.36689  -0.35743  -0.35108  -0.34655
  Beta  occ. eigenvalues --   -0.34196  -0.33403  -0.33090  -0.31484  -0.31006
  Beta  occ. eigenvalues --   -0.29788  -0.29339  -0.28667  -0.28210  -0.27925
  Beta  occ. eigenvalues --   -0.26748  -0.25908  -0.25773  -0.25398  -0.24728
  Beta  occ. eigenvalues --   -0.24090  -0.23951  -0.22318  -0.15699  -0.14441
  Beta  occ. eigenvalues --   -0.13601  -0.12579
  Beta virt. eigenvalues --    0.06223   0.06832   0.07164   0.08104   0.08502
  Beta virt. eigenvalues --    0.08607   0.09168   0.09733   0.10170   0.10667
  Beta virt. eigenvalues --    0.11019   0.11166   0.11348   0.11899   0.12143

 Mulliken charges and spin densities:
               1          2
     1  C    0.690252  -1.166370
     2  C   -1.273021   1.131189
     3  C    0.618116  -1.038938
     4  N   -0.292103   0.171153
     5  C    0.349051  -0.699868
     6  C   -0.191329  -0.039126
     7  N    0.511049  -0.063797
     8  C   -0.138522   0.144576
     9  C   -0.389420  -0.259301
    10  O   -0.276909   0.002361
    11  N    0.081401   0.092788
    12  C   -0.460760   0.354409
    13  C    0.644439  -1.183159
    14  C    0.060336  -0.476489
    15  C    0.243546  -0.395022
    16  C   -0.255373  -0.299499
    17  H   -0.069545   0.227439
    18  H   -0.072543   0.220122
    19  H   -0.132202   0.293869
    20  H   -0.412273   0.544168
    21  H   -0.134082   0.306388
    22  H   -0.104971   0.366914
    23  H   -0.077332   0.235311
    24  H   -0.400209   0.532542
    25  H    0.118899   0.024502
    26  H    0.227374  -0.009016
    27  H    0.120684   0.044071
    28  H    0.058359   0.067546
    29  H    0.837218  -0.627983
    30  H   -0.174430   0.331813
    31  H   -0.119618   0.266309
    32  H   -0.637462   0.820405
    33  H   -0.152162   0.324916
    34  H   -0.102934   0.239576
    35  H    0.003470   0.168214
    36  H    0.135728   0.046599
    37  H   -0.014140   0.170358
    38  H    0.039656   0.117726
    39  H    0.141764   0.013306
 Sum of Mulliken charges =  -1.00000   1.00000

 Dipole moment (field-independent basis, Debye):
    X=              0.7627    Y=             -3.7992    Z=              0.7879  Tot=              3.9543
 Quadrupole moment (field-independent basis, Debye-Ang):
   XX=           -173.1165   YY=           -156.8299   ZZ=           -137.8290
   XY=             -2.7984   XZ=              4.2139   YZ=              1.2991

 Summary of Natural Population Analysis:

                                       Natural Population
                Natural  -----------------------------------------------
    Atom  No    Charge         Core      Valence    Rydberg      Total
 -----------------------------------------------------------------------
      C    1   -0.29007      0.99961     2.28313    0.00734     3.29007
      C    2    0.06626      0.99956     1.91868    0.01551     2.93374
      C    3   -0.08874      0.99955     2.07546    0.01374     3.08874
      N    4   -0.34140      0.99974     2.82945    0.01221     3.84140
      C    5   -0.08963      0.99961     2.07854    0.01148     3.08963
      C    6   -0.08691      0.99960     2.07706    0.01026     3.08691
      N    7   -0.29387      0.99969     2.78076    0.01342     3.79387
      C    8   -0.12427      0.99957     2.11401    0.01069     3.12427
      C    9    0.34202      0.99963     1.63602    0.02232     2.65798
      O   10   -0.33094      0.99988     3.32581    0.00525     4.33094
      N   11   -0.25374      0.99963     2.74467    0.00944     3.75374
      C   12   -0.08161      0.99961     2.07141    0.01059     3.08161
      C   13   -0.19307      0.99964     2.18512    0.00831     3.19307
      C   14   -0.19633      0.99964     2.18816    0.00852     3.19633
      C   15   -0.08019      0.99963     2.07159    0.00897     3.08019
      C   16   -0.30012      0.99961     2.29405    0.00646     3.30012
      H   17    0.09852      0.00000     0.40052    0.00096     0.40148
      H   18    0.10654      0.00000     0.39188    0.00158     0.39346
      H   19    0.10320      0.00000     0.39580    0.00100     0.39680
      H   20    0.08644      0.00000     0.41101    0.00255     0.41356
      H   21    0.09742      0.00000     0.40118    0.00140     0.40258
      H   22    0.17774      0.00000     0.31896    0.00330     0.32226
      H   23    0.09478      0.00000     0.40431    0.00091     0.40522
      H   24    0.08262      0.00000     0.41525    0.00213     0.41738
      H   25    0.08389      0.00000     0.41479    0.00131     0.41611
      H   26    0.10171      0.00000     0.39706    0.00123     0.39829
      H   27    0.09529      0.00000     0.40345    0.00126     0.40471
      H   28    0.10580      0.00000     0.39290    0.00130     0.39420
      H   29    0.10238      0.00000     0.39522    0.00240     0.39762
      H   30    0.09889      0.00000     0.39949    0.00162     0.40111
      H   31    0.09599      0.00000     0.40253    0.00148     0.40401
      H   32    0.10655      0.00000     0.39173    0.00172     0.39345
      H   33    0.10245      0.00000     0.39653    0.00103     0.39755
      H   34    0.09833      0.00000     0.40027    0.00139     0.40167
      H   35    0.09409      0.00000     0.40465    0.00126     0.40591
      H   36    0.10271      0.00000     0.39605    0.00124     0.39729
      H   37    0.10087      0.00000     0.39832    0.00081     0.39913
      H   38    0.09775      0.00000     0.40156    0.00069     0.40225
      H   39    0.10865      0.00000     0.39025    0.00110     0.39135
 =======================================================================
   * Total *    0.00000     15.99420    45.79762    0.20818    62.00000

 Normal termination of Gaussian 16 at Fri Dec 11 00:58:09 2020.
