 Gaussian 16, Revision A.03,

 -----------------------------------------------------------
 # opt freq B3LYP/6-31G(d) empiricaldispersion=gd3bj scf=xqc
 -----------------------------------------------------------

 ------------------------------
 CID_66373171_JID_8241_neutraal
 ------------------------------
 Symbolic Z-matrix:
 Charge =  0 Multiplicity = 1

 SCF Done:  E(RB3LYP) =  -1178.06769376     A.U. after   15 cycles
 SCF Done:  E(RB3LYP) =  -1178.07385648     A.U. after   13 cycles
 SCF Done:  E(RB3LYP) =  -1178.07472354     A.U. after   12 cycles
 SCF Done:  E(RB3LYP) =  -1178.07484264     A.U. after   12 cycles
 SCF Done:  E(RB3LYP) =  -1178.07497296     A.U. after   11 cycles
 SCF Done:  E(RB3LYP) =  -1178.07501178     A.U. after   11 cycles
 SCF Done:  E(RB3LYP) =  -1178.07504688     A.U. after    9 cycles
 SCF Done:  E(RB3LYP) =  -1178.07505278     A.U. after   10 cycles
 SCF Done:  E(RB3LYP) =  -1178.07505442     A.U. after    9 cycles
 SCF Done:  E(RB3LYP) =  -1178.07505652     A.U. after   10 cycles
 SCF Done:  E(RB3LYP) =  -1178.07505799     A.U. after   10 cycles
 SCF Done:  E(RB3LYP) =  -1178.07505877     A.U. after   10 cycles
 SCF Done:  E(RB3LYP) =  -1178.07505916     A.U. after    9 cycles
 SCF Done:  E(RB3LYP) =  -1178.07505924     A.U. after    8 cycles
 SCF Done:  E(RB3LYP) =  -1178.07505922     A.U. after    7 cycles
 Optimization completed.
    -- Stationary point found.
 Normal termination of Gaussian 16 at Fri Dec 11 19:41:17 2020.

 --------------------------------------------------------------------
 #N Geom=AllCheck Guess=TCheck SCRF=Check GenChk RB3LYP/6-31G(d) Freq
 --------------------------------------------------------------------

 Structure from the checkpoint file:  "JID_8241.chk"
 ------------------------------
 CID_66373171_JID_8241_neutraal
 ------------------------------
 Charge =  0 Multiplicity = 1

 SCF Done:  E(RB3LYP) =  -1178.07505922     A.U. after    1 cycles

  Exact polarizability: 155.679   8.505 164.236   2.743  14.198 157.515
 Approx polarizability: 221.311  14.579 274.718   9.638  35.890 279.059

                      1                      2                      3
                      A                      A                      A
 Frequencies --     12.0135                14.9484                31.6718
 Red. masses --      4.4193                 7.1225                 6.6842
 Frc consts  --      0.0004                 0.0009                 0.0040
 IR Inten    --      0.1482                 0.3829                 0.8262

                      4                      5                      6
                      A                      A                      A
 Frequencies --     64.5594               106.5684               115.0773
 Red. masses --     11.7267                 5.4496                 4.5964
 Frc consts  --      0.0288                 0.0365                 0.0359
 IR Inten    --      2.2966                 0.6145                 1.0256

                      7                      8                      9
                      A                      A                      A
 Frequencies --    138.1804               159.2808               193.4106
 Red. masses --      3.7059                 4.5389                 3.9521
 Frc consts  --      0.0417                 0.0678                 0.0871
 IR Inten    --      0.0670                 2.6154                 0.4539

                     10                     11                     12
                      A                      A                      A
 Frequencies --    212.1885               229.2920               248.6658
 Red. masses --      1.1290                 3.4041                 4.5670
 Frc consts  --      0.0299                 0.1054                 0.1664
 IR Inten    --      1.5800                 3.0700                 0.6241

                     13                     14                     15
                      A                      A                      A
 Frequencies --    260.2842               269.6682               306.4104
 Red. masses --      1.1995                 3.6319                 2.6956
 Frc consts  --      0.0479                 0.1556                 0.1491
 IR Inten    --      0.2309                 0.3002                 2.7048

                     16                     17                     18
                      A                      A                      A
 Frequencies --    376.8819               380.0743               405.7061
 Red. masses --      4.3360                 7.9164                 4.3134
 Frc consts  --      0.3629                 0.6738                 0.4183
 IR Inten    --      5.1646                 2.1424                 1.9848

                     19                     20                     21
                      A                      A                      A
 Frequencies --    433.7535               480.2038               504.6336
 Red. masses --      2.8045                 3.6483                 6.3165
 Frc consts  --      0.3109                 0.4957                 0.9477
 IR Inten    --      2.1561                22.3702                 2.6684

                     22                     23                     24
                      A                      A                      A
 Frequencies --    543.0193               549.6022               569.2393
 Red. masses --      3.6559                 3.1412                 3.0477
 Frc consts  --      0.6351                 0.5590                 0.5819
 IR Inten    --      4.5785                15.7268                29.6951

                     25                     26                     27
                      A                      A                      A
 Frequencies --    589.7687               620.4596               639.0130
 Red. masses --      5.4280                 3.2268                 2.2146
 Frc consts  --      1.1124                 0.7319                 0.5328
 IR Inten    --      5.5239                 7.4787                90.2252

                     28                     29                     30
                      A                      A                      A
 Frequencies --    662.0436               683.4310               688.0184
 Red. masses --      3.0562                 3.5930                 3.1499
 Frc consts  --      0.7892                 0.9888                 0.8785
 IR Inten    --     35.9535                62.2725                48.2363

                     31                     32                     33
                      A                      A                      A
 Frequencies --    757.4715               763.9218               770.9173
 Red. masses --      4.0700                 2.7952                 2.6184
 Frc consts  --      1.3759                 0.9611                 0.9169
 IR Inten    --      2.4385                22.8870                73.3396

                     34                     35                     36
                      A                      A                      A
 Frequencies --    813.7088               822.9153               824.2373
 Red. masses --      4.2615                 1.9711                 1.7130
 Frc consts  --      1.6625                 0.7865                 0.6857
 IR Inten    --      4.5410                12.6940                29.7187

                     37                     38                     39
                      A                      A                      A
 Frequencies --    863.5518               871.7611               935.7885
 Red. masses --      4.0714                 2.8882                 1.3003
 Frc consts  --      1.7888                 1.2932                 0.6709
 IR Inten    --     10.3664                14.4125                 0.4991

                     40                     41                     42
                      A                      A                      A
 Frequencies --    948.4087               972.1029               974.2082
 Red. masses --      3.6025                 2.7812                 1.4176
 Frc consts  --      1.9092                 1.5485                 0.7927
 IR Inten    --      1.6837                 9.7462                 0.2497

                     43                     44                     45
                      A                      A                      A
 Frequencies --   1028.0357              1054.5717              1077.7078
 Red. masses --      1.5296                 2.6704                 1.4908
 Frc consts  --      0.9524                 1.7498                 1.0202
 IR Inten    --     12.5638                61.2906                 1.6982

                     46                     47                     48
                      A                      A                      A
 Frequencies --   1083.3928              1103.5574              1122.3636
 Red. masses --      2.2310                 2.1190                 2.0568
 Frc consts  --      1.5429                 1.5204                 1.5265
 IR Inten    --     30.4165                 2.4071                23.3991

                     49                     50                     51
                      A                      A                      A
 Frequencies --   1131.5938              1176.9914              1208.0040
 Red. masses --      2.6511                 2.4189                 2.0382
 Frc consts  --      2.0001                 1.9743                 1.7524
 IR Inten    --     71.1969                19.6803               244.4709

                     52                     53                     54
                      A                      A                      A
 Frequencies --   1229.4245              1238.2703              1307.0621
 Red. masses --      3.1307                 1.6533                 3.5655
 Frc consts  --      2.7880                 1.4936                 3.5889
 IR Inten    --     32.6944                28.9192                16.6526

                     55                     56                     57
                      A                      A                      A
 Frequencies --   1331.4685              1354.0568              1355.7599
 Red. masses --      3.1708                 2.2231                 1.5417
 Frc consts  --      3.3120                 2.4015                 1.6696
 IR Inten    --     26.3753                30.3406                12.6889

                     58                     59                     60
                      A                      A                      A
 Frequencies --   1366.9440              1388.0539              1415.0807
 Red. masses --      1.6544                 1.4468                 3.8684
 Frc consts  --      1.8214                 1.6424                 4.5639
 IR Inten    --     26.2458                 5.5890                34.2975

                     61                     62                     63
                      A                      A                      A
 Frequencies --   1432.9721              1443.4040              1462.2853
 Red. masses --      1.2363                 1.2786                 2.3739
 Frc consts  --      1.4957                 1.5695                 2.9907
 IR Inten    --      7.8048                 2.9085                15.6911

                     64                     65                     66
                      A                      A                      A
 Frequencies --   1504.5806              1516.2067              1519.5814
 Red. masses --      1.3374                 1.0460                 1.0666
 Frc consts  --      1.7838                 1.4168                 1.4511
 IR Inten    --      6.7486                 6.0408                16.7949

                     67                     68                     69
                      A                      A                      A
 Frequencies --   1528.9196              1543.1339              1547.2589
 Red. masses --      1.0971                 1.3200                 6.7611
 Frc consts  --      1.5110                 1.8520                 9.5366
 IR Inten    --      2.0689                14.0894                89.5859

                     70                     71                     72
                      A                      A                      A
 Frequencies --   1559.7932              1567.0135              1638.4066
 Red. masses --      2.0592                 8.2173                 3.7692
 Frc consts  --      2.9517                11.8885                 5.9613
 IR Inten    --    103.2724                 8.4736               121.5912

                     73                     74                     75
                      A                      A                      A
 Frequencies --   1656.5772              1821.8954              3023.7598
 Red. masses --      5.3358                 9.9726                 1.0420
 Frc consts  --      8.6272                19.5032                 5.6134
 IR Inten    --    106.1383               312.0754                23.0113

                     76                     77                     78
                      A                      A                      A
 Frequencies --   3062.3174              3072.6981              3085.7147
 Red. masses --      1.0351                 1.0987                 1.0847
 Frc consts  --      5.7189                 6.1116                 6.0854
 IR Inten    --     14.7221                21.4074                 6.9054

                     79                     80                     81
                      A                      A                      A
 Frequencies --   3129.5799              3137.0876              3148.2009
 Red. masses --      1.0973                 1.1023                 1.1044
 Frc consts  --      6.3323                 6.3913                 6.4489
 IR Inten    --     11.5170                17.2160                19.9877

                     82                     83                     84
                      A                      A                      A
 Frequencies --   3153.4019              3167.1425              3221.4241
 Red. masses --      1.0894                 1.0898                 1.0915
 Frc consts  --      6.3826                 6.4407                 6.6739
 IR Inten    --     45.6592                28.2076                17.9548

                     85                     86                     87
                      A                      A                      A
 Frequencies --   3295.5356              3572.7930              3691.5751
 Red. masses --      1.0948                 1.0745                 1.0640
 Frc consts  --      7.0057                 8.0808                 8.5428
 IR Inten    --      7.6113                12.1114                72.1392

 - Thermochemistry -
 -------------------
 Temperature   298.150 Kelvin.  Pressure   1.00000 Atm.
 Atom     1 has atomic number  6 and mass  12.00000

 Molecular mass:   263.07285 amu.
 Principal axes and moments of inertia in atomic units:
                           1         2         3
     Eigenvalues --  3576.397686957.488537721.93532
           X            0.99991   0.01124   0.00790
           Y           -0.01114   0.99985  -0.01301
           Z           -0.00804   0.01292   0.99988
 This molecule is an asymmetric top.
 Rotational symmetry number  1.
 Warning -- assumption of classical behavior for rotation
           may cause significant error
 Rotational temperatures (Kelvin)      0.02422     0.01245     0.01122
 Rotational constants (GHZ):           0.50463     0.25940     0.23372
 Zero-point vibrational energy     635711.5 (Joules/Mol)
                                  151.93869 (Kcal/Mol)
 Warning -- explicit consideration of  26 degrees of freedom as
           vibrations may cause significant error
 Vibrational temperatures:     17.28    21.51    45.57    92.89   153.33
          (Kelvin)            165.57   198.81   229.17   278.27   305.29
                              329.90   357.77   374.49   387.99   440.86
                              542.25   546.84   583.72   624.07   690.91
                              726.06   781.28   790.75   819.01   848.55
                              892.70   919.40   952.53   983.30   989.91
                             1089.83  1099.11  1109.18  1170.75  1183.99
                             1185.89  1242.46  1254.27  1346.39  1364.55
                             1398.64  1401.67  1479.11  1517.29  1550.58
                             1558.76  1587.77  1614.83  1628.11  1693.43
                             1738.05  1768.87  1781.59  1880.57  1915.69
                             1948.19  1950.64  1966.73  1997.10  2035.99
                             2061.73  2076.74  2103.90  2164.76  2181.48
                             2186.34  2199.77  2220.23  2226.16  2244.19
                             2254.58  2357.30  2383.45  2621.30  4350.52
                             4405.99  4420.93  4439.66  4502.77  4513.57
                             4529.56  4537.04  4556.81  4634.91  4741.54
                             5140.45  5311.35

 Zero-point correction=                           0.242130 (Hartree/Particle)
 Thermal correction to Energy=                    0.258889
 Thermal correction to Enthalpy=                  0.259833
 Thermal correction to Gibbs Free Energy=         0.194464
 Sum of electronic and zero-point Energies=          -1177.832930
 Sum of electronic and thermal Energies=             -1177.816171
 Sum of electronic and thermal Enthalpies=           -1177.815226
 Sum of electronic and thermal Free Energies=        -1177.880595

                     E (Thermal)             CV                S
                      KCal/Mol        Cal/Mol-Kelvin    Cal/Mol-Kelvin
 Total                  162.455             62.766            137.580
 Electronic               0.000              0.000              0.000
 Translational            0.889              2.981             42.601
 Rotational               0.889              2.981             33.618
 Vibrational            160.678             56.804             61.361
 Vibration     1          0.593              1.987              7.647
 Vibration     2          0.593              1.986              7.212
 Vibration     3          0.594              1.983              5.722
 Vibration     4          0.597              1.971              4.313
 Vibration     5          0.605              1.944              3.330
 Vibration     6          0.608              1.937              3.181
 Vibration     7          0.614              1.915              2.829
 Vibration     8          0.621              1.892              2.558
 Vibration     9          0.635              1.849              2.195
 Vibration    10          0.643              1.822              2.025
 Vibration    11          0.652              1.796              1.884
 Vibration    12          0.662              1.765              1.740
 Vibration    13          0.668              1.745              1.660
 Vibration    14          0.674              1.729              1.598
 Vibration    15          0.697              1.662              1.382
 Vibration    16          0.747              1.519              1.052
 Vibration    17          0.750              1.513              1.039
 Vibration    18          0.771              1.458              0.942
 Vibration    19          0.794              1.397              0.846
 Vibration    20          0.837              1.294              0.710
 Vibration    21          0.860              1.240              0.647
 Vibration    22          0.898              1.155              0.559
 Vibration    23          0.905              1.141              0.545
 Vibration    24          0.925              1.098              0.506
 Vibration    25          0.947              1.054              0.468
 Vibration    26          0.981              0.989              0.416

                           ! Non-Optimized Parameters !
 Normal termination of Gaussian 16 at Fri Dec 11 19:52:52 2020.

 ----------------------------------------------------------------------
 # B3LYP/6-311++G(d,p) empiricaldispersion=gd3bj scf=xqc pop=npa geom=c
 heck
 ----------------------------------------------------------------------

 --------------------------------------
 CID_66373171_JID_8241_Energie_neutraal
 --------------------------------------
 Structure from the checkpoint file:  "JID_8241.chk"
 Charge =  0 Multiplicity = 1

 SCF Done:  E(RB3LYP) =  -1178.32340648     A.U. after   17 cycles
 Normal termination of Gaussian 16 at Fri Dec 11 19:58:06 2020.

 ----------------------------------------------------------------------
 # B3LYP/6-311++G(d,p) empiricaldispersion=gd3bj scf=xqc pop=npa geom=c
 heck
 ----------------------------------------------------------------------

 ------------------------------------
 CID_66373171_JID_8241_Energie_kation
 ------------------------------------
 Structure from the checkpoint file:  "JID_8241.chk"
 Charge =  1 Multiplicity = 2

 SCF Done:  E(UB3LYP) =  -1178.02587706     A.U. after   32 cycles
 Normal termination of Gaussian 16 at Fri Dec 11 20:11:22 2020.
 Gaussian 16:  ES64L-G16RevA.03 25-Dec-2016

 ----------------------------------------------------------------------
 # B3LYP/6-311++G(d,p) empiricaldispersion=gd3bj scf=xqc pop=npa geom=c
 heck
 ----------------------------------------------------------------------

 -----------------------------------
 CID_66373171_JID_8241_Energie_anion
 -----------------------------------
 Structure from the checkpoint file:  "JID_8241.chk"
 Charge = -1 Multiplicity = 2

                         Standard orientation:
 ---------------------------------------------------------------------
 Center     Atomic      Atomic             Coordinates (Angstroms)
 Number     Number       Type             X           Y           Z
 ---------------------------------------------------------------------
      1          6           0        2.655811    1.562397    1.875280
      2          6           0        2.728098    0.959922    0.498156
      3          6           0        2.064959   -0.250460    0.193422
      4          6           0        2.160872   -0.733177   -1.119794
      5          6           0        2.908402   -0.016740   -2.050071
      6          7           0        3.549834    1.125033   -1.783213
      7          6           0        3.440765    1.577594   -0.526502
      8          7           0        1.385709   -0.929729    1.201858
      9          6           0        0.319136   -1.866498    0.880392
     10          6           0       -0.160214   -2.548900    2.166730
     11          6           0       -0.835456   -1.159249    0.195323
     12          7           0       -1.295769   -0.014224    0.596691
     13          6           0       -2.353497    0.401369   -0.183401
     14          6           0       -2.710438   -0.445689   -1.200979
     15         16           0       -1.682746   -1.829128   -1.201396
     16          6           0       -3.060339    1.680394    0.048151
     17          8           0       -3.999941    2.063266   -0.620223
     18          8           0       -2.553031    2.383772    1.083438
     19          1           0        3.244840    2.482443    1.926341
     20          1           0        1.622920    1.819439    2.151638
     21          1           0        3.040053    0.876253    2.641650
     22          1           0        1.666441   -1.647593   -1.426093
     23          1           0        2.988550   -0.386258   -3.071300
     24          1           0        3.958776    2.512553   -0.312268
     25          1           0        1.114908   -0.321386    1.965996
     26          1           0        0.720273   -2.632349    0.209685
     27          1           0       -0.583655   -1.805634    2.850918
     28          1           0       -0.938601   -3.284866    1.945156
     29          1           0        0.678569   -3.050990    2.657186
     30          1           0       -3.501577   -0.301496   -1.922159
     31          1           0       -3.090792    3.196294    1.132295
 ---------------------------------------------------------------------

 SCF Done:  E(UB3LYP) =  -1178.33459872     A.U. after   33 cycles
 SCF Done:  E(UB3LYP) =  -1178.33459872     a.u. after    1 cycles

 The electronic state is 2-A.
 Alpha  occ. eigenvalues --  -88.72987 -19.02847 -18.95807 -14.22743 -14.19740
 Alpha  occ. eigenvalues --  -14.17555 -10.14483 -10.12337 -10.11539 -10.10013
 Alpha  occ. eigenvalues --  -10.09934 -10.08522 -10.08480 -10.08390 -10.06944
 Alpha  occ. eigenvalues --  -10.06925 -10.05179 -10.03152  -7.81657  -5.77934
 Alpha  occ. eigenvalues --   -5.77588  -5.77308  -0.96621  -0.87192  -0.85457
 Alpha  occ. eigenvalues --   -0.83180  -0.81599  -0.71229  -0.67568  -0.65463
 Alpha  occ. eigenvalues --   -0.65119  -0.60945  -0.60303  -0.54942  -0.51733
 Alpha  occ. eigenvalues --   -0.50901  -0.49595  -0.44873  -0.43688  -0.42150
 Alpha  occ. eigenvalues --   -0.39541  -0.36546  -0.35941  -0.35238  -0.34749
 Alpha  occ. eigenvalues --   -0.34108  -0.33901  -0.33345  -0.31892  -0.31540
 Alpha  occ. eigenvalues --   -0.30759  -0.30136  -0.29432  -0.28406  -0.27267
 Alpha  occ. eigenvalues --   -0.27069  -0.26065  -0.25134  -0.24812  -0.22478
 Alpha  occ. eigenvalues --   -0.21923  -0.18735  -0.15739  -0.15640  -0.14969
 Alpha  occ. eigenvalues --   -0.14750  -0.13647  -0.12336  -0.10974   0.04578
 Alpha virt. eigenvalues --    0.06804   0.07668   0.08237   0.08532   0.08667
 Alpha virt. eigenvalues --    0.09390   0.09886   0.10238   0.10659   0.11286
 Alpha virt. eigenvalues --    0.11539   0.12249   0.12562   0.13442   0.13916

  Beta  occ. eigenvalues --  -88.72910 -19.02770 -18.95678 -14.22728 -14.19745
  Beta  occ. eigenvalues --  -14.17620 -10.14268 -10.12336 -10.11549 -10.09999
  Beta  occ. eigenvalues --  -10.09923 -10.08480 -10.08385 -10.08301 -10.06930
  Beta  occ. eigenvalues --  -10.06906 -10.05171 -10.02505  -7.81587  -5.77903
  Beta  occ. eigenvalues --   -5.77560  -5.77042  -0.96390  -0.86963  -0.85412
  Beta  occ. eigenvalues --   -0.83138  -0.81490  -0.71193  -0.67528  -0.65245
  Beta  occ. eigenvalues --   -0.64673  -0.60574  -0.60243  -0.54843  -0.51508
  Beta  occ. eigenvalues --   -0.50879  -0.49178  -0.44583  -0.43567  -0.41896
  Beta  occ. eigenvalues --   -0.39367  -0.36323  -0.35893  -0.35088  -0.34690
  Beta  occ. eigenvalues --   -0.34065  -0.33730  -0.33276  -0.31809  -0.31033
  Beta  occ. eigenvalues --   -0.30433  -0.29917  -0.29341  -0.28352  -0.27044
  Beta  occ. eigenvalues --   -0.26959  -0.25906  -0.24922  -0.24305  -0.21997
  Beta  occ. eigenvalues --   -0.21809  -0.18017  -0.15736  -0.15559  -0.14718
  Beta  occ. eigenvalues --   -0.13723  -0.13526  -0.12246  -0.08928
  Beta virt. eigenvalues --    0.06792   0.07691   0.08297   0.08587   0.08679
  Beta virt. eigenvalues --    0.09384   0.09814   0.10282   0.10576   0.11124
  Beta virt. eigenvalues --    0.11266   0.12036   0.12404   0.12982   0.13495

 Mulliken charges and spin densities:
               1          2
     1  C   -0.690502  -0.031727
     2  C    0.782154   0.071620
     3  C   -0.568645   0.071999
     4  C    0.682599  -0.076065
     5  C   -0.465629  -0.275491
     6  N   -0.091918  -0.001997
     7  C   -0.729231   0.028863
     8  N    0.308174  -0.017535
     9  C   -0.298310   0.439817
    10  C   -0.525500  -0.047959
    11  C    0.693792  -0.321297
    12  N    0.138609  -0.031783
    13  C   -0.779589  -0.092646
    14  C    0.186281   0.508084
    15  S   -0.504677   0.064512
    16  C   -0.245294   0.132313
    17  O   -0.417451   0.047616
    18  O   -0.206667   0.013074
    19  H    0.134334  -0.000084
    20  H    0.179715   0.000410
    21  H    0.147051   0.009134
    22  H   -0.052931   0.211811
    23  H    0.109317   0.040140
    24  H    0.130354   0.001161
    25  H    0.269691  -0.017803
    26  H    0.015726   0.140413
    27  H    0.128653   0.035411
    28  H    0.162109  -0.020139
    29  H   -0.009942   0.152691
    30  H    0.254127  -0.034450
    31  H    0.263603  -0.000093
 Sum of Mulliken charges =  -1.00000   1.00000

 Dipole moment (field-independent basis, Debye):
    X=              4.4585    Y=             -1.1330    Z=              4.2798  Tot=              6.2832
 Quadrupole moment (field-independent basis, Debye-Ang):
   XX=           -172.5743   YY=           -131.6476   ZZ=           -130.0034
   XY=              6.1043   XZ=              2.3087   YZ=              8.1441

 Summary of Natural Population Analysis:

                                       Natural Population
                Natural  -----------------------------------------------
    Atom  No    Charge         Core      Valence    Rydberg      Total
 -----------------------------------------------------------------------
      C    1   -0.29899      0.99965     2.29494    0.00439     3.29899
      C    2   -0.05439      0.99948     2.04740    0.00752     3.05439
      C    3    0.11290      0.99946     1.87573    0.01191     2.88710
      C    4   -0.14518      0.99952     2.13599    0.00967     3.14518
      C    5    0.03005      0.99960     1.95471    0.01563     2.96995
      N    6   -0.25378      0.99972     2.74247    0.01159     3.75378
      C    7    0.03065      0.99954     1.95636    0.01346     2.96935
      N    8   -0.30727      0.99967     2.79644    0.01117     3.80727
      C    9   -0.03214      0.99954     2.01867    0.01393     3.03214
      C   10   -0.27919      0.99965     2.27442    0.00512     3.27919
      C   11    0.04726      0.99958     1.93268    0.02048     2.95274
      N   12   -0.25240      0.99962     2.74173    0.01105     3.75240
      C   13   -0.01474      0.99942     2.00149    0.01383     3.01474
      C   14   -0.04760      0.99950     2.03877    0.00932     3.04760
      S   15    0.19712      4.99942     2.78254    0.02092     7.80288
      C   16    0.41782      0.99966     1.55872    0.02380     2.58218
      O   17   -0.32302      0.99987     3.31669    0.00646     4.32302
      O   18   -0.33984      0.99988     3.33364    0.00632     4.33984
      H   19    0.10220      0.00000     0.39695    0.00086     0.39780
      H   20    0.10834      0.00000     0.39047    0.00120     0.39166
      H   21    0.10077      0.00000     0.39808    0.00116     0.39923
      H   22    0.10832      0.00000     0.38994    0.00173     0.39168
      H   23    0.08694      0.00000     0.41137    0.00169     0.41306
      H   24    0.08353      0.00000     0.41538    0.00109     0.41647
      H   25    0.18951      0.00000     0.30799    0.00251     0.31049
      H   26    0.09928      0.00000     0.39878    0.00194     0.40072
      H   27    0.10156      0.00000     0.39740    0.00103     0.39844
      H   28    0.10398      0.00000     0.39532    0.00070     0.39602
      H   29    0.09664      0.00000     0.40174    0.00162     0.40336
      H   30    0.10596      0.00000     0.39309    0.00094     0.39404
      H   31    0.22572      0.00000     0.26888    0.00540     0.27428
 =======================================================================
   * Total *    0.00000     21.99277    46.76877    0.23846    69.00000

 Normal termination of Gaussian 16 at Fri Dec 11 20:25:38 2020.
