 Gaussian 16, Revision A.03,

 -----------------------------------------------------------
 # opt freq B3LYP/6-31G(d) empiricaldispersion=gd3bj scf=xqc
 -----------------------------------------------------------

 -------------------------------
 CID_140328080_JID_6560_neutraal
 -------------------------------
 Symbolic Z-matrix:
 Charge =  0 Multiplicity = 1

 SCF Done:  E(RB3LYP) =  -1104.18901839     A.U. after   15 cycles
 SCF Done:  E(RB3LYP) =  -1104.19612115     A.U. after   12 cycles
 SCF Done:  E(RB3LYP) =  -1104.19783252     A.U. after   12 cycles
 SCF Done:  E(RB3LYP) =  -1104.19886441     A.U. after   12 cycles
 SCF Done:  E(RB3LYP) =  -1104.19952405     A.U. after   12 cycles
 SCF Done:  E(RB3LYP) =  -1104.20035305     A.U. after   13 cycles
 SCF Done:  E(RB3LYP) =  -1104.20077241     A.U. after   13 cycles
 SCF Done:  E(RB3LYP) =  -1104.20173970     A.U. after   12 cycles
 SCF Done:  E(RB3LYP) =  -1104.20285732     A.U. after   13 cycles
 SCF Done:  E(RB3LYP) =  -1104.20396282     A.U. after   13 cycles
 SCF Done:  E(RB3LYP) =  -1104.20715826     A.U. after   11 cycles
 SCF Done:  E(RB3LYP) =  -1104.20717108     A.U. after   10 cycles
 SCF Done:  E(RB3LYP) =  -1104.20717368     A.U. after    8 cycles
 SCF Done:  E(RB3LYP) =  -1104.20717471     A.U. after    8 cycles
 SCF Done:  E(RB3LYP) =  -1104.20717497     A.U. after    7 cycles
 SCF Done:  E(RB3LYP) =  -1104.20717504     A.U. after    7 cycles
 Optimization completed.
    -- Stationary point found.
 Normal termination of Gaussian 16 at Thu Dec 10 23:41:56 2020.

 --------------------------------------------------------------------
 #N Geom=AllCheck Guess=TCheck SCRF=Check GenChk RB3LYP/6-31G(d) Freq
 --------------------------------------------------------------------

 Structure from the checkpoint file:  "JID_6560.chk"
 -------------------------------
 CID_140328080_JID_6560_neutraal
 -------------------------------
 Charge =  0 Multiplicity = 1

 SCF Done:  E(RB3LYP) =  -1104.20717504     A.U. after    1 cycles

  Exact polarizability: 188.484  -0.444 173.197  -1.559   2.825  97.469
 Approx polarizability: 270.103  -8.477 252.325  -6.659  -2.192 154.160

                      1                      2                      3
                      A                      A                      A
 Frequencies --     31.3225                43.8984                66.6670
 Red. masses --      5.0015                 3.7041                 3.8220
 Frc consts  --      0.0029                 0.0042                 0.0100
 IR Inten    --      3.2955                 2.2689                 3.3726

                      4                      5                      6
                      A                      A                      A
 Frequencies --     79.0744                94.8431               121.0455
 Red. masses --      3.2738                 3.2303                 2.5051
 Frc consts  --      0.0121                 0.0171                 0.0216
 IR Inten    --      0.7435                 1.9872                 4.3774

                      7                      8                      9
                      A                      A                      A
 Frequencies --    146.7445               159.4983               173.6052
 Red. masses --      1.7679                 1.3493                 1.3686
 Frc consts  --      0.0224                 0.0202                 0.0243
 IR Inten    --      3.6857                 1.3321                 2.2231

                     10                     11                     12
                      A                      A                      A
 Frequencies --    196.4117               203.0198               223.2255
 Red. masses --      1.1091                 3.4744                 3.4099
 Frc consts  --      0.0252                 0.0844                 0.1001
 IR Inten    --      0.4624                 3.0290                 0.4751

                     13                     14                     15
                      A                      A                      A
 Frequencies --    242.5811               256.6231               275.2274
 Red. masses --      4.3643                 3.3255                 3.7469
 Frc consts  --      0.1513                 0.1290                 0.1672
 IR Inten    --      1.2106                 1.0504                 7.7127

                     16                     17                     18
                      A                      A                      A
 Frequencies --    300.3154               303.6876               332.0408
 Red. masses --      1.3199                 2.8700                 2.7071
 Frc consts  --      0.0701                 0.1560                 0.1759
 IR Inten    --     18.3015                 8.0837                 3.3097

                     19                     20                     21
                      A                      A                      A
 Frequencies --    338.5892               344.8732               389.8338
 Red. masses --      3.3737                 3.5644                 4.9037
 Frc consts  --      0.2279                 0.2498                 0.4391
 IR Inten    --      0.8140                 3.0916                 2.4979

                     22                     23                     24
                      A                      A                      A
 Frequencies --    465.6513               468.8532               515.2990
 Red. masses --      6.7848                 3.2868                 5.1953
 Frc consts  --      0.8668                 0.4257                 0.8128
 IR Inten    --     33.6742                12.4409                43.7335

                     25                     26                     27
                      A                      A                      A
 Frequencies --    537.9865               566.7451               573.4946
 Red. masses --      5.7445                 3.2920                 3.9905
 Frc consts  --      0.9796                 0.6230                 0.7733
 IR Inten    --     19.6209                 5.1880                 2.4109

                     28                     29                     30
                      A                      A                      A
 Frequencies --    613.9978               652.4427               668.9997
 Red. masses --      2.1486                 5.6473                 1.7467
 Frc consts  --      0.4772                 1.4164                 0.4606
 IR Inten    --    103.5914                 7.5251                49.7019

                     31                     32                     33
                      A                      A                      A
 Frequencies --    744.7957               768.0919               784.5194
 Red. masses --      5.9494                 6.1407                 3.6738
 Frc consts  --      1.9445                 2.1345                 1.3322
 IR Inten    --     87.4870                 5.1785                13.8912

                     34                     35                     36
                      A                      A                      A
 Frequencies --    844.1586               878.1015               922.3207
 Red. masses --      1.4599                 1.2622                 4.0351
 Frc consts  --      0.6130                 0.5734                 2.0224
 IR Inten    --     63.4676                 9.4142                 6.7944

                     37                     38                     39
                      A                      A                      A
 Frequencies --    925.4345               933.7065               979.2468
 Red. masses --      2.2203                 1.8450                 1.6229
 Frc consts  --      1.1203                 0.9477                 0.9169
 IR Inten    --      5.3683                48.0017                 1.1513

                     40                     41                     42
                      A                      A                      A
 Frequencies --    990.7131               998.9936              1025.3058
 Red. masses --      1.3542                 1.6869                 1.4230
 Frc consts  --      0.7831                 0.9919                 0.8814
 IR Inten    --      1.1598                50.0092                 9.3485

                     43                     44                     45
                      A                      A                      A
 Frequencies --   1029.9247              1058.2026              1079.9308
 Red. masses --      1.5104                 1.4355                 1.5756
 Frc consts  --      0.9440                 0.9471                 1.0827
 IR Inten    --     19.5173                 2.5197                 0.5529

                     46                     47                     48
                      A                      A                      A
 Frequencies --   1093.9246              1109.0375              1129.2563
 Red. masses --      2.8603                 2.6672                 4.8200
 Frc consts  --      2.0167                 1.9328                 3.6215
 IR Inten    --     11.6793                99.0065               115.9815

                     49                     50                     51
                      A                      A                      A
 Frequencies --   1152.5571              1195.1481              1206.4839
 Red. masses --      2.5531                 3.0922                 1.2755
 Frc consts  --      1.9982                 2.6023                 1.0939
 IR Inten    --     20.1437                15.6531                19.4238

                     52                     53                     54
                      A                      A                      A
 Frequencies --   1233.1337              1280.5427              1307.9699
 Red. masses --      2.1347                 1.4430                13.4050
 Frc consts  --      1.9125                 1.3941                13.5118
 IR Inten    --      3.0258                18.5539               157.7667

                     55                     56                     57
                      A                      A                      A
 Frequencies --   1314.1468              1341.5493              1363.0786
 Red. masses --      2.5918                 1.3349                 1.2161
 Frc consts  --      2.6372                 1.4155                 1.3312
 IR Inten    --      7.4018                 4.0361                13.5674

                     58                     59                     60
                      A                      A                      A
 Frequencies --   1369.2447              1390.7304              1437.9146
 Red. masses --      1.9405                 2.6507                 1.4250
 Frc consts  --      2.1435                 3.0206                 1.7360
 IR Inten    --     46.1720                18.1352                 4.2118

                     61                     62                     63
                      A                      A                      A
 Frequencies --   1443.0128              1445.3726              1458.9710
 Red. masses --      1.4464                 1.2792                 1.6803
 Frc consts  --      1.7746                 1.5745                 2.1074
 IR Inten    --     11.1682                 6.5482                 3.1516

                     64                     65                     66
                      A                      A                      A
 Frequencies --   1476.6483              1485.9281              1491.8127
 Red. masses --      1.0760                 2.0214                 1.3374
 Frc consts  --      1.3823                 2.6297                 1.7537
 IR Inten    --      3.1255                 7.7570                10.0778

                     67                     68                     69
                      A                      A                      A
 Frequencies --   1510.2753              1511.5153              1529.2796
 Red. masses --      1.0511                 1.1380                 1.0460
 Frc consts  --      1.4125                 1.5319                 1.4412
 IR Inten    --     14.5475                 7.6516                 0.0756

                     70                     71                     72
                      A                      A                      A
 Frequencies --   1532.1980              1537.1044              1542.5215
 Red. masses --      1.0870                 1.1626                 1.1210
 Frc consts  --      1.5036                 1.6185                 1.5715
 IR Inten    --     25.2946                95.6814                 0.3703

                     73                     74                     75
                      A                      A                      A
 Frequencies --   1557.2666              1617.0684              1651.2315
 Red. masses --      2.4414                 4.7070                 6.8355
 Frc consts  --      3.4883                 7.2520                10.9809
 IR Inten    --    392.2490                27.6199               241.0353

                     76                     77                     78
                      A                      A                      A
 Frequencies --   1695.2119              2997.2665              3005.9367
 Red. masses --      1.0892                 1.0726                 1.0725
 Frc consts  --      1.8443                 5.6770                 5.7098
 IR Inten    --     31.6461                33.1661                85.8613

                     79                     80                     81
                      A                      A                      A
 Frequencies --   3029.3520              3051.8110              3076.3640
 Red. masses --      1.0460                 1.0384                 1.0965
 Frc consts  --      5.6555                 5.6979                 6.1143
 IR Inten    --     24.1802                18.5955                15.8122

                     82                     83                     84
                      A                      A                      A
 Frequencies --   3087.7944              3088.5996              3105.7067
 Red. masses --      1.0912                 1.0296                 1.1007
 Frc consts  --      6.1300                 5.7869                 6.2552
 IR Inten    --     28.0109                 1.6646                12.2726

                     85                     86                     87
                      A                      A                      A
 Frequencies --   3106.4368              3140.4395              3160.3095
 Red. masses --      1.0905                 1.1005                 1.0945
 Frc consts  --      6.2003                 6.3948                 6.4404
 IR Inten    --     27.7120                15.7268                14.6498

                     88                     89                     90
                      A                      A                      A
 Frequencies --   3187.5263              3203.5246              3240.6014
 Red. masses --      1.1070                 1.1069                 1.0916
 Frc consts  --      6.6270                 6.6932                 6.7538
 IR Inten    --      1.3904                 0.2897                 1.2320

                     91                     92                     93
                      A                      A                      A
 Frequencies --   3473.1351              3561.7231              3566.0195
 Red. masses --      1.0507                 1.0920                 1.0756
 Frc consts  --      7.4677                 8.1620                 8.0589
 IR Inten    --      0.2267                 0.5154               120.4015

 - Thermochemistry -
 -------------------
 Temperature   298.150 Kelvin.  Pressure   1.00000 Atm.
 Atom     1 has atomic number  6 and mass  12.00000

 Molecular mass:   243.10415 amu.
 Principal axes and moments of inertia in atomic units:
                           1         2         3
     Eigenvalues --  2978.470775763.858468204.71505
           X            0.99976  -0.02034   0.00823
           Y            0.02024   0.99971   0.01280
           Z           -0.00848  -0.01263   0.99988
 This molecule is an asymmetric top.
 Rotational symmetry number  1.
 Warning -- assumption of classical behavior for rotation
           may cause significant error
 Rotational temperatures (Kelvin)      0.02908     0.01503     0.01056
 Rotational constants (GHZ):           0.60593     0.31311     0.21996
 Zero-point vibrational energy     722800.0 (Joules/Mol)
                                  172.75335 (Kcal/Mol)
 Warning -- explicit consideration of  28 degrees of freedom as
           vibrations may cause significant error
 Vibrational temperatures:     45.07    63.16    95.92   113.77   136.46
          (Kelvin)            174.16   211.13   229.48   249.78   282.59
                              292.10   321.17   349.02   369.22   395.99
                              432.09   436.94   477.73   487.15   496.20
                              560.88   669.97   674.58   741.40   774.04
                              815.42   825.13   883.41   938.72   962.54
                             1071.59  1105.11  1128.75  1214.56  1263.39
                             1327.01  1331.49  1343.40  1408.92  1425.42
                             1437.33  1475.19  1481.83  1522.52  1553.78
                             1573.91  1595.66  1624.75  1658.27  1719.55
                             1735.86  1774.20  1842.42  1881.88  1890.76
                             1930.19  1961.17  1970.04  2000.95  2068.84
                             2076.17  2079.57  2099.13  2124.57  2137.92
                             2146.39  2172.95  2174.73  2200.29  2204.49
                             2211.55  2219.34  2240.56  2326.60  2375.75
                             2439.03  4312.40  4324.87  4358.56  4390.88
                             4426.20  4442.65  4443.81  4468.42  4469.47
                             4518.39  4546.98  4586.14  4609.16  4662.50
                             4997.07  5124.53  5130.71

 Zero-point correction=                           0.275300 (Hartree/Particle)
 Thermal correction to Energy=                    0.292839
 Thermal correction to Enthalpy=                  0.293783
 Thermal correction to Gibbs Free Energy=         0.229537
 Sum of electronic and zero-point Energies=          -1103.931875
 Sum of electronic and thermal Energies=             -1103.914336
 Sum of electronic and thermal Enthalpies=           -1103.913392
 Sum of electronic and thermal Free Energies=        -1103.977638

                     E (Thermal)             CV                S
                      KCal/Mol        Cal/Mol-Kelvin    Cal/Mol-Kelvin
 Total                  183.759             64.682            135.217
 Electronic               0.000              0.000              0.000
 Translational            0.889              2.981             42.366
 Rotational               0.889              2.981             33.310
 Vibrational            181.982             58.720             59.542
 Vibration     1          0.594              1.983              5.744
 Vibration     2          0.595              1.980              5.075
 Vibration     3          0.598              1.970              4.249
 Vibration     4          0.600              1.963              3.914
 Vibration     5          0.603              1.953              3.558
 Vibration     6          0.609              1.932              3.084
 Vibration     7          0.617              1.906              2.714
 Vibration     8          0.621              1.892              2.556
 Vibration     9          0.627              1.875              2.396
 Vibration    10          0.636              1.845              2.166
 Vibration    11          0.639              1.836              2.106
 Vibration    12          0.649              1.806              1.933
 Vibration    13          0.659              1.775              1.784
 Vibration    14          0.666              1.752              1.685
 Vibration    15          0.677              1.719              1.563
 Vibration    16          0.693              1.673              1.415
 Vibration    17          0.695              1.667              1.396
 Vibration    18          0.714              1.612              1.250
 Vibration    19          0.719              1.598              1.219
 Vibration    20          0.723              1.586              1.190
 Vibration    21          0.758              1.492              1.001
 Vibration    22          0.823              1.326              0.750
 Vibration    23          0.826              1.319              0.741
 Vibration    24          0.870              1.216              0.621
 Vibration    25          0.893              1.166              0.570
 Vibration    26          0.923              1.103              0.511
 Vibration    27          0.930              1.089              0.498
 Vibration    28          0.973              1.002              0.426

                           ! Non-Optimized Parameters !
 Normal termination of Gaussian 16 at Thu Dec 10 23:51:43 2020.

 ----------------------------------------------------------------------
 # B3LYP/6-311++G(d,p) empiricaldispersion=gd3bj scf=xqc pop=npa geom=c
 heck
 ----------------------------------------------------------------------

 ---------------------------------------
 CID_140328080_JID_6560_Energie_neutraal
 ---------------------------------------
 Structure from the checkpoint file:  "JID_6560.chk"
 Charge =  0 Multiplicity = 1

 SCF Done:  E(RB3LYP) =  -1104.43952948     A.U. after   15 cycles
 Normal termination of Gaussian 16 at Thu Dec 10 23:56:02 2020.

 ----------------------------------------------------------------------
 # B3LYP/6-311++G(d,p) empiricaldispersion=gd3bj scf=xqc pop=npa geom=c
 heck
 ----------------------------------------------------------------------

 -------------------------------------
 CID_140328080_JID_6560_Energie_kation
 -------------------------------------
 Structure from the checkpoint file:  "JID_6560.chk"
 Charge =  1 Multiplicity = 2

 SCF Done:  E(UB3LYP) =  -1104.15410948     A.U. after   24 cycles
 Normal termination of Gaussian 16 at Fri Dec 11 00:05:40 2020.
 Gaussian 16:  ES64L-G16RevA.03 25-Dec-2016

 ----------------------------------------------------------------------
 # B3LYP/6-311++G(d,p) empiricaldispersion=gd3bj scf=xqc pop=npa geom=c
 heck
 ----------------------------------------------------------------------

 ------------------------------------
 CID_140328080_JID_6560_Energie_anion
 ------------------------------------
 Structure from the checkpoint file:  "JID_6560.chk"
 Charge = -1 Multiplicity = 2

                         Standard orientation:
 ---------------------------------------------------------------------
 Center     Atomic      Atomic             Coordinates (Angstroms)
 Number     Number       Type             X           Y           Z
 ---------------------------------------------------------------------
      1          6           0       -0.578725    3.842714    0.068787
      2          6           0       -0.373862    2.347956    0.013104
      3          6           0       -1.494754    1.496777    0.072156
      4          6           0       -1.264571    0.137361    0.024906
      5          7           0       -0.074823   -0.448315   -0.078604
      6          6           0        0.994247    0.358919   -0.144388
      7          6           0        0.895278    1.781510   -0.100572
      8          6           0        2.158545    2.596021   -0.188276
      9          7           0        2.217622   -0.241341   -0.289229
     10          6           0        2.381064   -1.671672   -0.097706
     11          6           0        3.859152   -2.015959   -0.268569
     12          7           0        4.668342   -1.161204    0.612445
     13         16           0       -2.664261   -1.001077    0.170541
     14          8           0       -2.513146   -1.794112    1.400424
     15          8           0       -3.893104   -0.221541   -0.061230
     16          6           0       -2.408105   -2.107787   -1.231519
     17          1           0       -0.207673    4.334665   -0.838074
     18          1           0       -1.640185    4.083184    0.168813
     19          1           0       -0.051498    4.289472    0.919559
     20          1           0       -2.504709    1.880418    0.147767
     21          1           0        1.956354    3.666270   -0.248086
     22          1           0        2.804614    2.433587    0.686408
     23          1           0        2.743988    2.313492   -1.072736
     24          1           0        3.036100    0.277559    0.009732
     25          1           0        2.022990   -1.984410    0.896510
     26          1           0        1.777239   -2.216307   -0.829478
     27          1           0        3.994677   -3.096648   -0.102264
     28          1           0        4.158960   -1.801089   -1.300506
     29          1           0        4.545557   -1.450343    1.582297
     30          1           0        5.657618   -1.270644    0.401241
     31          1           0       -2.526270   -1.540225   -2.156269
     32          1           0       -1.406197   -2.530095   -1.152557
     33          1           0       -3.170995   -2.885439   -1.154381
 ---------------------------------------------------------------------

 SCF Done:  E(UB3LYP) =  -1104.43753394     A.U. after   32 cycles

 The electronic state is 2-A.
 Alpha  occ. eigenvalues --  -88.93041 -19.00115 -18.99817 -14.21304 -14.19686
 Alpha  occ. eigenvalues --  -14.18617 -10.13198 -10.10403 -10.10353 -10.09498
 Alpha  occ. eigenvalues --  -10.09436 -10.07946 -10.07745 -10.07127 -10.06645
 Alpha  occ. eigenvalues --  -10.06349  -7.99496  -5.95769  -5.95666  -5.95584
 Alpha  occ. eigenvalues --   -0.99211  -0.88860  -0.86392  -0.80784  -0.77672
 Alpha  occ. eigenvalues --   -0.72096  -0.67902  -0.66369  -0.62374  -0.61986
 Alpha  occ. eigenvalues --   -0.59040  -0.53406  -0.51483  -0.50050  -0.46497
 Alpha  occ. eigenvalues --   -0.42731  -0.41133  -0.39836  -0.38559  -0.37116
 Alpha  occ. eigenvalues --   -0.36359  -0.35607  -0.35225  -0.34959  -0.33781
 Alpha  occ. eigenvalues --   -0.32842  -0.32302  -0.31764  -0.31301  -0.30554
 Alpha  occ. eigenvalues --   -0.29050  -0.28942  -0.28154  -0.26739  -0.26365
 Alpha  occ. eigenvalues --   -0.25482  -0.22335  -0.21224  -0.20137  -0.19374
 Alpha  occ. eigenvalues --   -0.18712  -0.16415  -0.15451  -0.15295  -0.10603
 Alpha  occ. eigenvalues --    0.03978
 Alpha virt. eigenvalues --    0.05623   0.06705   0.07535   0.08370   0.08638
 Alpha virt. eigenvalues --    0.09086   0.09683   0.10142   0.10721   0.11319
 Alpha virt. eigenvalues --    0.11464   0.12030   0.12505   0.12834   0.13123

  Beta  occ. eigenvalues --  -88.93040 -19.00100 -18.99786 -14.21307 -14.19626
  Beta  occ. eigenvalues --  -14.18404 -10.13239 -10.10348 -10.10211 -10.09471
  Beta  occ. eigenvalues --  -10.09431 -10.07814 -10.07752 -10.07132 -10.06478
  Beta  occ. eigenvalues --  -10.06392  -7.99494  -5.95767  -5.95655  -5.95588
  Beta  occ. eigenvalues --   -0.99143  -0.88802  -0.86226  -0.80615  -0.77556
  Beta  occ. eigenvalues --   -0.71809  -0.67765  -0.66260  -0.62221  -0.61891
  Beta  occ. eigenvalues --   -0.58916  -0.53268  -0.51403  -0.49996  -0.46283
  Beta  occ. eigenvalues --   -0.42653  -0.41030  -0.39745  -0.38482  -0.36982
  Beta  occ. eigenvalues --   -0.36305  -0.35533  -0.35099  -0.34864  -0.33590
  Beta  occ. eigenvalues --   -0.32763  -0.32246  -0.31687  -0.31182  -0.30487
  Beta  occ. eigenvalues --   -0.29015  -0.28641  -0.28000  -0.26571  -0.26262
  Beta  occ. eigenvalues --   -0.25355  -0.22254  -0.21155  -0.19965  -0.19268
  Beta  occ. eigenvalues --   -0.18556  -0.15504  -0.15274  -0.15058  -0.10107
  Beta virt. eigenvalues --    0.06425   0.07003   0.07572   0.07900   0.08667
  Beta virt. eigenvalues --    0.08970   0.09426   0.09851   0.10350   0.10735
  Beta virt. eigenvalues --    0.11292   0.11569   0.12109   0.12750   0.12941

 Mulliken charges and spin densities:
               1          2
     1  C   -0.191535  -0.155394
     2  C    0.640086  -0.001011
     3  C   -0.218158   0.077115
     4  C   -1.274947   0.012867
     5  N    0.095520   0.108543
     6  C   -0.772274   0.192431
     7  C    0.271011   0.215117
     8  C   -0.543474  -0.258497
     9  N   -0.004862   0.035006
    10  C   -0.747383   0.727825
    11  C    1.379400  -2.088039
    12  N   -0.477978   0.087786
    13  S    0.728194  -0.087842
    14  O   -0.096506  -0.024959
    15  O   -0.203162   0.003137
    16  C   -0.636284  -0.014582
    17  H    0.163606  -0.009082
    18  H    0.128625   0.005729
    19  H    0.074762   0.089251
    20  H    0.186153   0.028858
    21  H    0.034944   0.107080
    22  H    0.118305   0.046601
    23  H    0.004457   0.162909
    24  H    0.479425  -0.133174
    25  H    0.072330   0.128578
    26  H    0.316965  -0.172608
    27  H   -0.286730   0.432614
    28  H   -0.352712   0.534134
    29  H   -0.090683   0.306474
    30  H   -0.323507   0.575370
    31  H    0.174680   0.004198
    32  H    0.142914   0.068224
    33  H    0.208816  -0.004658
 Sum of Mulliken charges =  -1.00000   1.00000

 Dipole moment (field-independent basis, Debye):
    X=             -5.2150    Y=              3.1843    Z=             -3.0888  Tot=              6.8466
 Quadrupole moment (field-independent basis, Debye-Ang):
   XX=           -208.5554   YY=           -130.7911   ZZ=           -124.6615
   XY=             13.9409   XZ=              6.4806   YZ=              8.1348

 Summary of Natural Population Analysis:

                                       Natural Population
                Natural  -----------------------------------------------
    Atom  No    Charge         Core      Valence    Rydberg      Total
 -----------------------------------------------------------------------
      C    1   -0.29570      0.99964     2.29109    0.00497     3.29570
      C    2    0.02262      0.99949     1.96955    0.00834     2.97738
      C    3   -0.14718      0.99945     2.13751    0.01022     3.14718
      C    4    0.02673      0.99941     1.95230    0.02156     2.97327
      N    5   -0.25264      0.99963     2.73737    0.01563     3.75264
      C    6    0.24376      0.99951     1.74573    0.01100     2.75624
      C    7   -0.03051      0.99948     2.01956    0.01147     3.03051
      C    8   -0.30152      0.99965     2.29686    0.00501     3.30152
      N    9   -0.32971      0.99968     2.81555    0.01448     3.82971
      C   10   -0.09129      0.99963     2.07819    0.01347     3.09129
      C   11   -0.09390      0.99964     2.08137    0.01290     3.09390
      N   12   -0.43231      0.99977     2.92090    0.01164     3.93231
      S   13    1.01849      4.99924     1.88545    0.09682     6.98151
      O   14   -0.46487      0.99991     3.45930    0.00566     4.46487
      O   15   -0.47793      0.99991     3.47260    0.00542     4.47793
      C   16   -0.39281      0.99962     2.38688    0.00632     3.39281
      H   17    0.10183      0.00000     0.39705    0.00112     0.39817
      H   18    0.10109      0.00000     0.39801    0.00090     0.39891
      H   19    0.10353      0.00000     0.39513    0.00134     0.39647
      H   20    0.11219      0.00000     0.38644    0.00137     0.38781
      H   21    0.10197      0.00000     0.39717    0.00086     0.39803
      H   22    0.10392      0.00000     0.39454    0.00154     0.39608
      H   23    0.10710      0.00000     0.39123    0.00167     0.39290
      H   24    0.20151      0.00000     0.29415    0.00434     0.29849
      H   25    0.08948      0.00000     0.40897    0.00155     0.41052
      H   26    0.09984      0.00000     0.39859    0.00157     0.40016
      H   27    0.08377      0.00000     0.41461    0.00162     0.41623
      H   28    0.09170      0.00000     0.40666    0.00164     0.40830
      H   29    0.17552      0.00000     0.32207    0.00240     0.32448
      H   30    0.18373      0.00000     0.30951    0.00676     0.31627
      H   31    0.10990      0.00000     0.38818    0.00192     0.39010
      H   32    0.12118      0.00000     0.37685    0.00197     0.37882
      H   33    0.11060      0.00000     0.38847    0.00093     0.38940
 =======================================================================
   * Total *    0.00009     19.99366    44.71784    0.28842    64.99991

 Normal termination of Gaussian 16 at Fri Dec 11 00:18:17 2020.
