 Gaussian 16, Revision A.03,

 -----------------------------------------------------------
 # opt freq B3LYP/6-31G(d) empiricaldispersion=gd3bj scf=xqc
 -----------------------------------------------------------

 -------------------------------
 CID_104469462_JID_3991_neutraal
 -------------------------------
 Symbolic Z-matrix:
 Charge =  0 Multiplicity = 1

 SCF Done:  E(RB3LYP) =  -1242.49623773     A.U. after   15 cycles
 SCF Done:  E(RB3LYP) =  -1242.49998717     A.U. after   12 cycles
 SCF Done:  E(RB3LYP) =  -1242.50063469     A.U. after   12 cycles
 SCF Done:  E(RB3LYP) =  -1242.50064856     A.U. after   12 cycles
 SCF Done:  E(RB3LYP) =  -1242.50093069     A.U. after   12 cycles
 SCF Done:  E(RB3LYP) =  -1242.50093909     A.U. after   12 cycles
 SCF Done:  E(RB3LYP) =  -1242.50123086     A.U. after   11 cycles
 SCF Done:  E(RB3LYP) =  -1242.50133224     A.U. after   11 cycles
 SCF Done:  E(RB3LYP) =  -1242.50134973     A.U. after   10 cycles
 SCF Done:  E(RB3LYP) =  -1242.50135409     A.U. after    9 cycles
 SCF Done:  E(RB3LYP) =  -1242.50135461     A.U. after    8 cycles
 SCF Done:  E(RB3LYP) =  -1242.50135475     A.U. after    7 cycles
 SCF Done:  E(RB3LYP) =  -1242.50135481     A.U. after    7 cycles
 SCF Done:  E(RB3LYP) =  -1242.50135485     A.U. after    7 cycles
 SCF Done:  E(RB3LYP) =  -1242.50135486     A.U. after    7 cycles
 Optimization completed.
    -- Stationary point found.
 Normal termination of Gaussian 16 at Mon Dec 14 13:12:39 2020.

 --------------------------------------------------------------------
 #N Geom=AllCheck Guess=TCheck SCRF=Check GenChk RB3LYP/6-31G(d) Freq
 --------------------------------------------------------------------

 Structure from the checkpoint file:  "JID_3991.chk"
 -------------------------------
 CID_104469462_JID_3991_neutraal
 -------------------------------
 Charge =  0 Multiplicity = 1

 SCF Done:  E(RB3LYP) =  -1242.50135486     A.U. after    1 cycles

  Exact polarizability: 164.354   1.480 151.726  -7.664  -3.177 112.272
 Approx polarizability: 223.998   3.910 247.047 -21.895  -4.397 179.552

                      1                      2                      3
                      A                      A                      A
 Frequencies --     17.3238                30.4411                44.1750
 Red. masses --      4.4664                 3.7129                 3.3670
 Frc consts  --      0.0008                 0.0020                 0.0039
 IR Inten    --      0.2976                 0.3245                 0.4273

                      4                      5                      6
                      A                      A                      A
 Frequencies --     74.3811                85.4085               111.9867
 Red. masses --      3.7483                 3.0236                 3.5700
 Frc consts  --      0.0122                 0.0130                 0.0264
 IR Inten    --      0.4954                 0.1095                 0.6977

                      7                      8                      9
                      A                      A                      A
 Frequencies --    127.2499               147.8780               226.2197
 Red. masses --      2.8383                 2.2215                 3.4447
 Frc consts  --      0.0271                 0.0286                 0.1039
 IR Inten    --      1.7624                 1.4428                 3.0906

                     10                     11                     12
                      A                      A                      A
 Frequencies --    242.8769               253.9300               266.5660
 Red. masses --      1.4415                 2.0924                 2.6371
 Frc consts  --      0.0501                 0.0795                 0.1104
 IR Inten    --      1.3076                 2.6372                 0.2408

                     13                     14                     15
                      A                      A                      A
 Frequencies --    307.6128               314.7924               328.1130
 Red. masses --      1.5493                 1.8203                 3.4858
 Frc consts  --      0.0864                 0.1063                 0.2211
 IR Inten    --      2.0984                 2.5202                 0.7621

                     16                     17                     18
                      A                      A                      A
 Frequencies --    383.2632               424.1167               433.6543
 Red. masses --      2.5715                 2.8155                 2.1031
 Frc consts  --      0.2225                 0.2984                 0.2330
 IR Inten    --      0.2637                 0.8456                 1.1861

                     19                     20                     21
                      A                      A                      A
 Frequencies --    536.0347               574.0701               642.7568
 Red. masses --      5.9466                 5.9576                 3.8189
 Frc consts  --      1.0067                 1.1568                 0.9296
 IR Inten    --      2.2781                 0.8587                 1.1199

                     22                     23                     24
                      A                      A                      A
 Frequencies --    644.8289               652.6216               703.8107
 Red. masses --      4.0351                 5.6410                 3.2704
 Frc consts  --      0.9885                 1.4156                 0.9545
 IR Inten    --     15.8857                 0.6355                 5.4852

                     25                     26                     27
                      A                      A                      A
 Frequencies --    714.5636               751.9772               786.4496
 Red. masses --      4.5946                 1.2805                 1.3592
 Frc consts  --      1.3822                 0.4266                 0.4953
 IR Inten    --      2.8204                25.3922                 5.0874

                     28                     29                     30
                      A                      A                      A
 Frequencies --    808.8257               855.0511               857.3772
 Red. masses --      1.6394                 1.6351                 2.6772
 Frc consts  --      0.6319                 0.7043                 1.1595
 IR Inten    --     13.7122                 1.1538                10.5429

                     31                     32                     33
                      A                      A                      A
 Frequencies --    878.6540               897.4349               906.0802
 Red. masses --      2.4463                 2.1656                 1.6160
 Frc consts  --      1.1127                 1.0276                 0.7817
 IR Inten    --      0.2403                 2.2848                 1.4889

                     34                     35                     36
                      A                      A                      A
 Frequencies --    928.3671               992.7018              1057.4347
 Red. masses --      1.6660                 3.4056                 1.9676
 Frc consts  --      0.8460                 1.9773                 1.2962
 IR Inten    --      2.5364                 9.1076                10.1450

                     37                     38                     39
                      A                      A                      A
 Frequencies --   1067.9916              1089.8609              1101.5230
 Red. masses --      1.6751                 1.6935                 1.6026
 Frc consts  --      1.1257                 1.1852                 1.1457
 IR Inten    --      0.6326                11.5490                 1.8870

                     40                     41                     42
                      A                      A                      A
 Frequencies --   1108.6554              1117.6840              1133.3239
 Red. masses --      1.9765                 1.5690                 1.8723
 Frc consts  --      1.4313                 1.1548                 1.4169
 IR Inten    --     10.6753                 0.3495                42.9580

                     43                     44                     45
                      A                      A                      A
 Frequencies --   1179.0035              1253.7395              1260.9884
 Red. masses --      1.4497                 1.5315                 1.4671
 Frc consts  --      1.1873                 1.4184                 1.3744
 IR Inten    --     11.5160                 2.6897                21.2409

                     46                     47                     48
                      A                      A                      A
 Frequencies --   1266.5856              1287.0084              1298.6299
 Red. masses --      1.2751                 1.3195                 1.2646
 Frc consts  --      1.2052                 1.2877                 1.2566
 IR Inten    --      3.9704                 3.0887                 1.6263

                     49                     50                     51
                      A                      A                      A
 Frequencies --   1307.0558              1355.5317              1357.2597
 Red. masses --      1.2562                 2.7990                 1.1884
 Frc consts  --      1.2644                 3.0303                 1.2898
 IR Inten    --      2.1212                15.4169                15.4299

                     52                     53                     54
                      A                      A                      A
 Frequencies --   1379.8584              1398.4256              1398.9454
 Red. masses --      1.3542                 1.4852                 1.4081
 Frc consts  --      1.5191                 1.7112                 1.6236
 IR Inten    --      5.3179                 1.9209                 1.8049

                     55                     56                     57
                      A                      A                      A
 Frequencies --   1442.8568              1443.7957              1485.3154
 Red. masses --      1.2603                 1.2649                 1.1189
 Frc consts  --      1.5458                 1.5536                 1.4544
 IR Inten    --      5.9694                 5.7997                 5.2710

                     58                     59                     60
                      A                      A                      A
 Frequencies --   1489.2173              1505.1937              1513.8369
 Red. masses --      1.0883                 1.1149                 1.0830
 Frc consts  --      1.4220                 1.4882                 1.4623
 IR Inten    --      3.5739                 3.2624                 2.1183

                     61                     62                     63
                      A                      A                      A
 Frequencies --   1516.9535              1530.2694              1531.3043
 Red. masses --      1.1224                 1.0874                 1.0786
 Frc consts  --      1.5218                 1.5003                 1.4902
 IR Inten    --      4.2550                12.3670                 6.3850

                     64                     65                     66
                      A                      A                      A
 Frequencies --   1535.2796              1542.2656              1550.3566
 Red. masses --      1.1066                 3.3612                 1.0545
 Frc consts  --      1.5368                 4.7105                 1.4933
 IR Inten    --      4.6263                 7.8405                10.4362

                     67                     68                     69
                      A                      A                      A
 Frequencies --   1582.8542              3026.5464              3040.4295
 Red. masses --      7.1274                 1.0655                 1.0609
 Frc consts  --     10.5211                 5.7505                 5.7781
 IR Inten    --     30.1987                36.3941                17.9416

                     70                     71                     72
                      A                      A                      A
 Frequencies --   3045.4199              3051.1991              3051.6555
 Red. masses --      1.0384                 1.0608                 1.0353
 Frc consts  --      5.6742                 5.8186                 5.6805
 IR Inten    --     22.6931                41.0352                20.6691

                     73                     74                     75
                      A                      A                      A
 Frequencies --   3070.7190              3077.8299              3079.7080
 Red. masses --      1.0851                 1.0723                 1.1028
 Frc consts  --      6.0284                 5.9851                 6.1624
 IR Inten    --     16.1032                19.4806                10.6119

                     76                     77                     78
                      A                      A                      A
 Frequencies --   3092.2029              3100.2311              3112.8829
 Red. masses --      1.1003                 1.0612                 1.1012
 Frc consts  --      6.1988                 6.0094                 6.2870
 IR Inten    --     16.2089                 7.4472                52.2588

                     79                     80                     81
                      A                      A                      A
 Frequencies --   3118.0323              3122.4391              3124.7426
 Red. masses --      1.1019                 1.1026                 1.1043
 Frc consts  --      6.3121                 6.3338                 6.3530
 IR Inten    --     45.6077                53.3053                 9.7394

                     82                     83                     84
                      A                      A                      A
 Frequencies --   3129.6354              3165.2542              3274.8560
 Red. masses --      1.1036                 1.1041                 1.0946
 Frc consts  --      6.3687                 6.5175                 6.9165
 IR Inten    --     19.5897                 1.8503                 1.3534

 - Thermochemistry -
 -------------------
 Temperature   298.150 Kelvin.  Pressure   1.00000 Atm.
 Atom     1 has atomic number  6 and mass  12.00000

 Molecular mass:   215.08024 amu.
 Principal axes and moments of inertia in atomic units:
                           1         2         3
     Eigenvalues --  2104.479884751.233536033.64682
           X            0.99997  -0.00667   0.00490
           Y            0.00665   0.99997   0.00312
           Z           -0.00492  -0.00309   0.99998
 This molecule is an asymmetric top.
 Rotational symmetry number  1.
 Warning -- assumption of classical behavior for rotation
           may cause significant error
 Rotational temperatures (Kelvin)      0.04116     0.01823     0.01436
 Rotational constants (GHZ):           0.85757     0.37985     0.29911
 Zero-point vibrational energy     674241.5 (Joules/Mol)
                                  161.14759 (Kcal/Mol)
 Warning -- explicit consideration of  20 degrees of freedom as
           vibrations may cause significant error
 Vibrational temperatures:     24.93    43.80    63.56   107.02   122.88
          (Kelvin)            161.12   183.08   212.76   325.48   349.45
                              365.35   383.53   442.59   452.92   472.08
                              551.43   610.21   623.93   771.23   825.96
                              924.78   927.77   938.98  1012.63  1028.10
                             1081.93  1131.53  1163.72  1230.23  1233.57
                             1264.19  1291.21  1303.65  1335.71  1428.28
                             1521.41  1536.60  1568.07  1584.85  1595.11
                             1608.10  1630.60  1696.32  1803.85  1814.28
                             1822.33  1851.72  1868.44  1880.56  1950.31
                             1952.79  1985.31  2012.02  2012.77  2075.95
                             2077.30  2137.04  2142.65  2165.64  2178.07
                             2182.56  2201.72  2203.21  2208.92  2218.98
                             2230.62  2277.37  4354.53  4374.50  4381.68
                             4389.99  4390.65  4418.08  4428.31  4431.01
                             4448.99  4460.54  4478.74  4486.15  4492.49
                             4495.81  4502.85  4554.09  4711.79

 Zero-point correction=                           0.256805 (Hartree/Particle)
 Thermal correction to Energy=                    0.271911
 Thermal correction to Enthalpy=                  0.272855
 Thermal correction to Gibbs Free Energy=         0.212006
 Sum of electronic and zero-point Energies=          -1242.244550
 Sum of electronic and thermal Energies=             -1242.229444
 Sum of electronic and thermal Enthalpies=           -1242.228500
 Sum of electronic and thermal Free Energies=        -1242.289349

                     E (Thermal)             CV                S
                      KCal/Mol        Cal/Mol-Kelvin    Cal/Mol-Kelvin
 Total                  170.627             54.813            128.068
 Electronic               0.000              0.000              0.000
 Translational            0.889              2.981             42.001
 Rotational               0.889              2.981             32.467
 Vibrational            168.849             48.851             53.600
 Vibration     1          0.593              1.986              6.919
 Vibration     2          0.594              1.984              5.800
 Vibration     3          0.595              1.980              5.062
 Vibration     4          0.599              1.966              4.034
 Vibration     5          0.601              1.959              3.763
 Vibration     6          0.607              1.940              3.234
 Vibration     7          0.611              1.926              2.987
 Vibration     8          0.617              1.905              2.699
 Vibration     9          0.650              1.801              1.909
 Vibration    10          0.659              1.775              1.782
 Vibration    11          0.665              1.756              1.703
 Vibration    12          0.672              1.734              1.618
 Vibration    13          0.697              1.659              1.375
 Vibration    14          0.702              1.645              1.337
 Vibration    15          0.711              1.619              1.269
 Vibration    16          0.752              1.506              1.026
 Vibration    17          0.786              1.418              0.878
 Vibration    18          0.794              1.397              0.847
 Vibration    19          0.891              1.170              0.574
 Vibration    20          0.930              1.087              0.496

 Optimization completed.
    -- Stationary point found.
 Normal termination of Gaussian 16 at Mon Dec 14 13:20:16 2020.

 ----------------------------------------------------------------------
 # B3LYP/6-311++G(d,p) empiricaldispersion=gd3bj scf=xqc pop=npa geom=c
 heck
 ----------------------------------------------------------------------

 ---------------------------------------
 CID_104469462_JID_3991_Energie_neutraal
 ---------------------------------------
 Structure from the checkpoint file:  "JID_3991.chk"
 Charge =  0 Multiplicity = 1

 SCF Done:  E(RB3LYP) =  -1242.67505777     A.U. after   15 cycles
 Normal termination of Gaussian 16 at Mon Dec 14 13:23:41 2020.

 ----------------------------------------------------------------------
 # B3LYP/6-311++G(d,p) empiricaldispersion=gd3bj scf=xqc pop=npa geom=c
 heck
 ----------------------------------------------------------------------

 -------------------------------------
 CID_104469462_JID_3991_Energie_kation
 -------------------------------------
 Structure from the checkpoint file:  "JID_3991.chk"
 Charge =  1 Multiplicity = 2

 SCF Done:  E(UB3LYP) =  -1242.38178858     A.U. after   22 cycles
 Normal termination of Gaussian 16 at Mon Dec 14 13:30:21 2020.
 Gaussian 16:  ES64L-G16RevA.03 25-Dec-2016

 ----------------------------------------------------------------------
 # B3LYP/6-311++G(d,p) empiricaldispersion=gd3bj scf=xqc pop=npa geom=c
 heck
 ----------------------------------------------------------------------

 ------------------------------------
 CID_104469462_JID_3991_Energie_anion
 ------------------------------------
 Structure from the checkpoint file:  "JID_3991.chk"
 Charge = -1 Multiplicity = 2

                         Standard orientation:
 ---------------------------------------------------------------------
 Center     Atomic      Atomic             Coordinates (Angstroms)
 Number     Number       Type             X           Y           Z
 ---------------------------------------------------------------------
      1          6           0        4.154187    0.930678    0.999263
      2          6           0        3.244095    1.787153    0.117216
      3          6           0        2.626364    1.001805   -1.054882
      4          6           0        1.720803   -0.104103   -0.594330
      5          6           0        1.893641   -1.442721   -0.811318
      6         16           0        0.613154   -2.355158   -0.075587
      7          6           0       -0.075616   -0.843662    0.501854
      8          7           0        0.599298    0.216664    0.151156
      9          6           0       -1.356098   -0.785952    1.262841
     10         16           0       -2.861943   -0.883995    0.190036
     11          6           0       -2.572737    0.463457   -1.028383
     12          6           0       -3.063156    1.855078   -0.620928
     13          6           0       -2.363246    2.438215    0.608584
     14          1           0        3.601503    0.094649    1.441546
     15          1           0        4.582758    1.520891    1.816495
     16          1           0        4.984600    0.509160    0.418975
     17          1           0        2.429293    2.205830    0.719498
     18          1           0        3.808849    2.635499   -0.289715
     19          1           0        2.050013    1.691476   -1.685265
     20          1           0        3.420352    0.579608   -1.682743
     21          1           0        2.693342   -1.932268   -1.349255
     22          1           0       -1.457035   -1.636837    1.941848
     23          1           0       -1.365652    0.133540    1.848680
     24          1           0       -1.503628    0.481140   -1.260446
     25          1           0       -3.097134    0.125641   -1.928245
     26          1           0       -2.898408    2.517198   -1.483442
     27          1           0       -4.146890    1.824497   -0.453671
     28          1           0       -1.273792    2.376477    0.508749
     29          1           0       -2.639606    3.488334    0.753439
     30          1           0       -2.652453    1.895279    1.514752
 ---------------------------------------------------------------------

 SCF Done:  E(UB3LYP) =  -1242.66467551     A.U. after   33 cycles
 SCF Done:  E(UB3LYP) =  -1242.66467551     a.u. after    1 cycles

 The electronic state is 2-A.
 Alpha  occ. eigenvalues --  -88.74472 -88.72333 -14.17734 -10.09690 -10.09233
 Alpha  occ. eigenvalues --  -10.08533 -10.07671 -10.06807 -10.06154 -10.05831
 Alpha  occ. eigenvalues --  -10.05553 -10.05332 -10.05166  -7.83140  -7.80955
 Alpha  occ. eigenvalues --   -5.79416  -5.79076  -5.78758  -5.77348  -5.76992
 Alpha  occ. eigenvalues --   -5.76322  -0.83355  -0.70815  -0.68801  -0.66575
 Alpha  occ. eigenvalues --   -0.66206  -0.61999  -0.59328  -0.55562  -0.52136
 Alpha  occ. eigenvalues --   -0.47993  -0.47206  -0.44653  -0.40843  -0.36858
 Alpha  occ. eigenvalues --   -0.36193  -0.35278  -0.34191  -0.33069  -0.32288
 Alpha  occ. eigenvalues --   -0.31031  -0.30222  -0.29066  -0.27365  -0.26730
 Alpha  occ. eigenvalues --   -0.26442  -0.25532  -0.25346  -0.24110  -0.23622
 Alpha  occ. eigenvalues --   -0.22708  -0.22495  -0.21562  -0.19729  -0.15831
 Alpha  occ. eigenvalues --   -0.14977  -0.12207  -0.10787   0.04918
 Alpha virt. eigenvalues --    0.06909   0.07199   0.08195   0.08519   0.08864
 Alpha virt. eigenvalues --    0.09223   0.09899   0.10490   0.11109   0.11542
 Alpha virt. eigenvalues --    0.12032   0.12213   0.12621   0.13142   0.13780

  Beta  occ. eigenvalues --  -88.74432 -88.72300 -14.17635 -10.09396 -10.09232
  Beta  occ. eigenvalues --  -10.08528 -10.07693 -10.06795 -10.05932 -10.05822
  Beta  occ. eigenvalues --  -10.05536 -10.05322 -10.05155  -7.83104  -7.80920
  Beta  occ. eigenvalues --   -5.79402  -5.79062  -5.78616  -5.77286  -5.76953
  Beta  occ. eigenvalues --   -5.76298  -0.83067  -0.70708  -0.68730  -0.66296
  Beta  occ. eigenvalues --   -0.66064  -0.61871  -0.59279  -0.55403  -0.52002
  Beta  occ. eigenvalues --   -0.47866  -0.47014  -0.44486  -0.40620  -0.36726
  Beta  occ. eigenvalues --   -0.36101  -0.35223  -0.34097  -0.32998  -0.32172
  Beta  occ. eigenvalues --   -0.30919  -0.30103  -0.28768  -0.27252  -0.26599
  Beta  occ. eigenvalues --   -0.26191  -0.25417  -0.25290  -0.24045  -0.23522
  Beta  occ. eigenvalues --   -0.22527  -0.22455  -0.21450  -0.19608  -0.14988
  Beta  occ. eigenvalues --   -0.14806  -0.11722  -0.10111
  Beta virt. eigenvalues --    0.07071   0.07489   0.08315   0.08632   0.09009
  Beta virt. eigenvalues --    0.09163   0.09532   0.10337   0.10653   0.11205
  Beta virt. eigenvalues --    0.11618   0.12197   0.12321   0.12627   0.13138

 Mulliken charges and spin densities:
               1          2
     1  C    0.050243  -0.685474
     2  C   -0.156124   0.063829
     3  C   -0.117720  -0.310050
     4  C   -1.229612  -0.024479
     5  C    1.010145  -0.250176
     6  S   -0.621956   0.030694
     7  C   -0.461747   0.619368
     8  N    0.218473   0.069757
     9  C    0.635299  -0.466901
    10  S    0.172356  -0.152515
    11  C   -0.093578   0.038660
    12  C   -0.171752  -0.247454
    13  C   -0.254320  -0.333612
    14  H    0.060087   0.105276
    15  H   -0.074837   0.195395
    16  H    0.059401   0.053461
    17  H    0.117913   0.014374
    18  H   -0.480926   0.632499
    19  H    0.012550   0.131858
    20  H   -0.249713   0.387124
    21  H    0.056579   0.182689
    22  H    0.078570   0.171895
    23  H    0.156041  -0.007324
    24  H    0.218602  -0.068950
    25  H   -0.009610   0.240846
    26  H   -0.057056   0.168587
    27  H   -0.064596   0.165495
    28  H    0.198175   0.006316
    29  H   -0.026257   0.147615
    30  H    0.025370   0.121198
 Sum of Mulliken charges =  -1.00000   1.00000

 Dipole moment (field-independent basis, Debye):
    X=             -1.6737    Y=             -1.8157    Z=              0.9754  Tot=              2.6550
 Quadrupole moment (field-independent basis, Debye-Ang):
   XX=           -163.8974   YY=           -134.1132   ZZ=           -117.4975
   XY=            -10.8745   XZ=              3.3508   YZ=              1.4529

 Summary of Natural Population Analysis:

                                       Natural Population
                Natural  -----------------------------------------------
    Atom  No    Charge         Core      Valence    Rydberg      Total
 -----------------------------------------------------------------------
      C    1   -0.28845      0.99967     2.28273    0.00605     3.28845
      C    2   -0.18829      0.99964     2.18047    0.00818     3.18829
      C    3   -0.19773      0.99959     2.18737    0.01077     3.19773
      C    4    0.05109      0.99948     1.93351    0.01591     2.94891
      C    5   -0.17108      0.99944     2.16241    0.00923     3.17108
      S    6    0.18384      4.99942     2.79645    0.02028     7.81616
      C    7    0.07087      0.99958     1.91188    0.01766     2.92913
      N    8   -0.24947      0.99963     2.73889    0.01095     3.74947
      C    9   -0.26382      0.99950     2.25363    0.01068     3.26382
      S   10    0.08712      4.99964     2.89569    0.01755     7.91288
      C   11   -0.25606      0.99958     2.24469    0.01179     3.25606
      C   12   -0.19429      0.99963     2.18563    0.00903     3.19429
      C   13   -0.29262      0.99966     2.28782    0.00514     3.29262
      H   14    0.10156      0.00000     0.39737    0.00107     0.39844
      H   15    0.09494      0.00000     0.40432    0.00074     0.40506
      H   16    0.09261      0.00000     0.40643    0.00096     0.40739
      H   17    0.10007      0.00000     0.39849    0.00144     0.39993
      H   18    0.09329      0.00000     0.40463    0.00208     0.40671
      H   19    0.10356      0.00000     0.39517    0.00127     0.39644
      H   20    0.09712      0.00000     0.40172    0.00116     0.40288
      H   21    0.10428      0.00000     0.39457    0.00115     0.39572
      H   22    0.10989      0.00000     0.38864    0.00147     0.39011
      H   23    0.11121      0.00000     0.38686    0.00192     0.38879
      H   24    0.11254      0.00000     0.38551    0.00195     0.38746
      H   25    0.10241      0.00000     0.39662    0.00097     0.39759
      H   26    0.09318      0.00000     0.40556    0.00127     0.40682
      H   27    0.09314      0.00000     0.40495    0.00191     0.40686
      H   28    0.10863      0.00000     0.38980    0.00157     0.39137
      H   29    0.09425      0.00000     0.40478    0.00097     0.40575
      H   30    0.09618      0.00000     0.40235    0.00148     0.40382
 =======================================================================
   * Total *   -0.00000     20.99446    36.82892    0.17662    58.00000

 Normal termination of Gaussian 16 at Mon Dec 14 13:40:19 2020.
