 Gaussian 16, Revision A.03,

 -----------------------------------------------------------
 # opt freq B3LYP/6-31G(d) empiricaldispersion=gd3bj scf=xqc
 -----------------------------------------------------------

 ------------------------------
 CID_62416931_JID_3030_neutraal
 ------------------------------
 Symbolic Z-matrix:
 Charge =  0 Multiplicity = 1

 SCF Done:  E(RB3LYP) =  -591.448514337     A.U. after   15 cycles
 SCF Done:  E(RB3LYP) =  -591.467026056     A.U. after   12 cycles
 SCF Done:  E(RB3LYP) =  -591.471042590     A.U. after   13 cycles
 SCF Done:  E(RB3LYP) =  -591.471970946     A.U. after   13 cycles
 SCF Done:  E(RB3LYP) =  -591.473039401     A.U. after   13 cycles
 SCF Done:  E(RB3LYP) =  -591.473102087     A.U. after   12 cycles
 SCF Done:  E(RB3LYP) =  -591.473498136     A.U. after   12 cycles
 SCF Done:  E(RB3LYP) =  -591.473639398     A.U. after   12 cycles
 SCF Done:  E(RB3LYP) =  -591.473684339     A.U. after   11 cycles
 SCF Done:  E(RB3LYP) =  -591.473729638     A.U. after   11 cycles
 SCF Done:  E(RB3LYP) =  -591.473741392     A.U. after   10 cycles
 SCF Done:  E(RB3LYP) =  -591.473749996     A.U. after   10 cycles
 SCF Done:  E(RB3LYP) =  -591.473755248     A.U. after   10 cycles
 SCF Done:  E(RB3LYP) =  -591.473755603     A.U. after    7 cycles
 Optimization completed.
    -- Stationary point found.
 Normal termination of Gaussian 16 at Wed Dec  9 22:23:24 2020.

 --------------------------------------------------------------------
 #N Geom=AllCheck Guess=TCheck SCRF=Check GenChk RB3LYP/6-31G(d) Freq
 --------------------------------------------------------------------

 Structure from the checkpoint file:  "JID_3030.chk"
 ------------------------------
 CID_62416931_JID_3030_neutraal
 ------------------------------
 Charge =  0 Multiplicity = 1

 SCF Done:  E(RB3LYP) =  -591.473755603     A.U. after    2 cycles

  Exact polarizability: 119.496   2.627 104.949   2.365  -5.393  99.754
 Approx polarizability: 154.684  10.325 146.214   5.851 -10.553 167.035

                      1                      2                      3
                      A                      A                      A
 Frequencies --     24.4731                50.8052                57.3646
 Red. masses --      5.4675                 5.9133                 3.5502
 Frc consts  --      0.0019                 0.0090                 0.0069
 IR Inten    --      0.5626                 2.8240                 9.4931

                      4                      5                      6
                      A                      A                      A
 Frequencies --     69.0805               108.3483               123.8760
 Red. masses --      3.3373                 4.9854                 4.2004
 Frc consts  --      0.0094                 0.0345                 0.0380
 IR Inten    --      0.8469                 1.1132                 6.6433

                      7                      8                      9
                      A                      A                      A
 Frequencies --    147.0808               171.8595               237.7882
 Red. masses --      2.9290                 3.3955                 3.3011
 Frc consts  --      0.0373                 0.0591                 0.1100
 IR Inten    --      3.2895                 2.0042                 1.8751

                     10                     11                     12
                      A                      A                      A
 Frequencies --    274.1271               289.8858               372.2769
 Red. masses --      2.8173                 2.3377                 4.7881
 Frc consts  --      0.1247                 0.1157                 0.3910
 IR Inten    --      6.2796                 7.7797                 1.6636

                     13                     14                     15
                      A                      A                      A
 Frequencies --    383.1074               431.1077               445.7479
 Red. masses --      2.9738                 2.9713                 2.0896
 Frc consts  --      0.2572                 0.3254                 0.2446
 IR Inten    --      0.3700                 3.9258                 7.7711

                     16                     17                     18
                      A                      A                      A
 Frequencies --    507.7873               533.7314               591.0437
 Red. masses --      2.1392                 3.0797                 2.6624
 Frc consts  --      0.3250                 0.5169                 0.5480
 IR Inten    --     20.8663                18.9468                37.0535

                     19                     20                     21
                      A                      A                      A
 Frequencies --    609.0547               621.4196               686.1495
 Red. masses --      2.5998                 2.3425                 2.0347
 Frc consts  --      0.5682                 0.5330                 0.5644
 IR Inten    --      4.9542                10.8350                68.7952

                     22                     23                     24
                      A                      A                      A
 Frequencies --    749.1970               796.9872               799.5820
 Red. masses --      1.6209                 1.2499                 2.1347
 Frc consts  --      0.5360                 0.4678                 0.8041
 IR Inten    --     30.3634                 2.2563                24.7766

                     25                     26                     27
                      A                      A                      A
 Frequencies --    835.5595               873.5920               896.6968
 Red. masses --      2.6414                 2.1815                 2.2838
 Frc consts  --      1.0865                 0.9809                 1.0819
 IR Inten    --      8.2541                81.6846                 2.3079

                     28                     29                     30
                      A                      A                      A
 Frequencies --    906.1247               937.6086               954.3122
 Red. masses --      2.0527                 2.4721                 1.5141
 Frc consts  --      0.9930                 1.2804                 0.8124
 IR Inten    --     14.7490                 0.5588                 7.1993

                     31                     32                     33
                      A                      A                      A
 Frequencies --    970.8875              1010.3008              1014.5522
 Red. masses --      2.2085                 2.2636                 2.1713
 Frc consts  --      1.2266                 1.3613                 1.3168
 IR Inten    --      6.2157                 4.3379                 4.4033

                     34                     35                     36
                      A                      A                      A
 Frequencies --   1051.3197              1065.7893              1099.6575
 Red. masses --      1.9918                 1.9721                 2.8443
 Frc consts  --      1.2971                 1.3198                 2.0265
 IR Inten    --      8.4361                 5.0755                 2.9659

                     37                     38                     39
                      A                      A                      A
 Frequencies --   1149.8414              1177.6562              1179.7623
 Red. masses --      2.7459                 2.5682                 2.0187
 Frc consts  --      2.1390                 2.0985                 1.6555
 IR Inten    --      8.9964                18.6295                39.1499

                     40                     41                     42
                      A                      A                      A
 Frequencies --   1207.9503              1235.0466              1246.0202
 Red. masses --      1.3838                 1.3203                 1.2321
 Frc consts  --      1.1896                 1.1866                 1.1270
 IR Inten    --      3.0582                14.6173                 4.7872

                     43                     44                     45
                      A                      A                      A
 Frequencies --   1265.8251              1272.1276              1283.1486
 Red. masses --      1.2857                 1.2089                 1.4897
 Frc consts  --      1.2138                 1.1526                 1.4451
 IR Inten    --      1.1015                 0.5545                22.5608

                     46                     47                     48
                      A                      A                      A
 Frequencies --   1289.9869              1308.9442              1315.5261
 Red. masses --      1.3761                 1.4233                 1.5707
 Frc consts  --      1.3491                 1.4368                 1.6016
 IR Inten    --     16.5724                 0.4955                77.5102

                     49                     50                     51
                      A                      A                      A
 Frequencies --   1338.3050              1376.0984              1384.3474
 Red. masses --      1.4367                 1.3499                 1.4391
 Frc consts  --      1.5161                 1.5060                 1.6249
 IR Inten    --     33.0910                 6.1976                41.6763

                     52                     53                     54
                      A                      A                      A
 Frequencies --   1411.9533              1436.7901              1491.2346
 Red. masses --      1.2699                 1.5653                 1.0994
 Frc consts  --      1.4917                 1.9038                 1.4404
 IR Inten    --      6.6395                29.4565                 3.4143

                     55                     56                     57
                      A                      A                      A
 Frequencies --   1492.1140              1503.5692              1507.9343
 Red. masses --      1.2560                 1.3553                 1.0960
 Frc consts  --      1.6475                 1.8053                 1.4683
 IR Inten    --     16.3484                34.4504                 3.5146

                     58                     59                     60
                      A                      A                      A
 Frequencies --   1516.5650              1524.6284              1535.5642
 Red. masses --      1.1030                 1.1420                 1.1764
 Frc consts  --      1.4947                 1.5641                 1.6343
 IR Inten    --      2.8722                10.6607                32.5861

                     61                     62                     63
                      A                      A                      A
 Frequencies --   1542.9382              1786.7094              2374.1384
 Red. masses --      1.1559                 8.2751                12.5922
 Frc consts  --      1.6213                15.5643                41.8179
 IR Inten    --      5.3262               283.3677                 5.1330

                     64                     65                     66
                      A                      A                      A
 Frequencies --   3023.7751              3041.1361              3063.0938
 Red. masses --      1.0842                 1.0680                 1.0609
 Frc consts  --      5.8405                 5.8198                 5.8644
 IR Inten    --     27.6454                29.5637                45.6424

                     67                     68                     69
                      A                      A                      A
 Frequencies --   3066.1710              3071.2691              3077.5210
 Red. masses --      1.0596                 1.0602                 1.0633
 Frc consts  --      5.8693                 5.8923                 5.9334
 IR Inten    --      5.2383                35.0666                26.2014

                     70                     71                     72
                      A                      A                      A
 Frequencies --   3090.7290              3109.0967              3112.3931
 Red. masses --      1.0664                 1.0964                 1.0958
 Frc consts  --      6.0018                 6.2445                 6.2542
 IR Inten    --     16.0472                19.3021                24.9966

                     73                     74                     75
                      A                      A                      A
 Frequencies --   3116.8566              3124.8573              3138.8847
 Red. masses --      1.1041                 1.1070                 1.1056
 Frc consts  --      6.3198                 6.3685                 6.4179
 IR Inten    --     23.7127                24.2094                48.6192

                     76                     77                     78
                      A                      A                      A
 Frequencies --   3140.7605              3478.3332              3577.7453
 Red. masses --      1.1059                 1.0727                 1.0761
 Frc consts  --      6.4276                 7.6465                 8.1153
 IR Inten    --     14.3012                 2.9598                22.2841

 - Thermochemistry -
 -------------------
 Temperature   298.150 Kelvin.  Pressure   1.00000 Atm.
 Atom     1 has atomic number  6 and mass  12.00000

 Molecular mass:   181.12151 amu.
 Principal axes and moments of inertia in atomic units:
                           1         2         3
     Eigenvalues --  1783.795293261.683274139.90768
           X            0.99883  -0.04622   0.01405
           Y            0.04642   0.99882  -0.01410
           Z           -0.01338   0.01474   0.99980
 This molecule is an asymmetric top.
 Rotational symmetry number  1.
 Warning -- assumption of classical behavior for rotation
           may cause significant error
 Rotational temperatures (Kelvin)      0.04856     0.02655     0.02092
 Rotational constants (GHZ):           1.01174     0.55332     0.43594
 Zero-point vibrational energy     634533.0 (Joules/Mol)
                                  151.65702 (Kcal/Mol)
 Warning -- explicit consideration of  19 degrees of freedom as
           vibrations may cause significant error
 Vibrational temperatures:     35.21    73.10    82.53    99.39   155.89
          (Kelvin)            178.23   211.62   247.27   342.12   394.41
                              417.08   535.62   551.21   620.27   641.33
                              730.59   767.92   850.38   876.29   894.08
                              987.22  1077.93  1146.69  1150.42  1202.18
                             1256.90  1290.15  1303.71  1349.01  1373.04
                             1396.89  1453.60  1459.71  1512.61  1533.43
                             1582.16  1654.37  1694.38  1697.41  1737.97
                             1776.96  1792.75  1821.24  1830.31  1846.16
                             1856.00  1883.28  1892.75  1925.52  1979.90
                             1991.77  2031.49  2067.22  2145.55  2146.82
                             2163.30  2169.58  2182.00  2193.60  2209.33
                             2219.94  2570.68  3415.86  4350.54  4375.52
                             4407.11  4411.54  4418.87  4427.87  4446.87
                             4473.30  4478.04  4484.46  4495.97  4516.15
                             4518.85  5004.55  5147.58

 Zero-point correction=                           0.241681 (Hartree/Particle)
 Thermal correction to Energy=                    0.255145
 Thermal correction to Enthalpy=                  0.256090
 Thermal correction to Gibbs Free Energy=         0.199858
 Sum of electronic and zero-point Energies=           -591.232075
 Sum of electronic and thermal Energies=              -591.218610
 Sum of electronic and thermal Enthalpies=            -591.217666
 Sum of electronic and thermal Free Energies=         -591.273898

                     E (Thermal)             CV                S
                      KCal/Mol        Cal/Mol-Kelvin    Cal/Mol-Kelvin
 Total                  160.106             49.260            118.349
 Electronic               0.000              0.000              0.000
 Translational            0.889              2.981             41.489
 Rotational               0.889              2.981             31.555
 Vibrational            158.329             43.299             45.306
 Vibration     1          0.593              1.985              6.233
 Vibration     2          0.595              1.977              4.786
 Vibration     3          0.596              1.975              4.546
 Vibration     4          0.598              1.969              4.179
 Vibration     5          0.606              1.943              3.298
 Vibration     6          0.610              1.929              3.039
 Vibration     7          0.617              1.906              2.710
 Vibration     8          0.626              1.877              2.415
 Vibration     9          0.656              1.783              1.819
 Vibration    10          0.676              1.721              1.570
 Vibration    11          0.686              1.693              1.475
 Vibration    12          0.744              1.529              1.070
 Vibration    13          0.752              1.506              1.027
 Vibration    14          0.792              1.402              0.855
 Vibration    15          0.805              1.370              0.809
 Vibration    16          0.863              1.233              0.639
 Vibration    17          0.889              1.175              0.579
 Vibration    18          0.948              1.051              0.465
 Vibration    19          0.968              1.013              0.434

 Optimization completed.
    -- Stationary point found.
 Normal termination of Gaussian 16 at Wed Dec  9 22:30:34 2020.

 ----------------------------------------------------------------------
 # B3LYP/6-311++G(d,p) empiricaldispersion=gd3bj scf=xqc pop=npa geom=c
 heck
 ----------------------------------------------------------------------

 --------------------------------------
 CID_62416931_JID_3030_Energie_neutraal
 --------------------------------------
 Structure from the checkpoint file:  "JID_3030.chk"
 Charge =  0 Multiplicity = 1

 SCF Done:  E(RB3LYP) =  -591.647631886     A.U. after   14 cycles
 Normal termination of Gaussian 16 at Wed Dec  9 22:33:08 2020.

 ----------------------------------------------------------------------
 # B3LYP/6-311++G(d,p) empiricaldispersion=gd3bj scf=xqc pop=npa geom=c
 heck
 ----------------------------------------------------------------------

 ------------------------------------
 CID_62416931_JID_3030_Energie_kation
 ------------------------------------
 Structure from the checkpoint file:  "JID_3030.chk"
 Charge =  1 Multiplicity = 2

 SCF Done:  E(UB3LYP) =  -591.336433546     A.U. after   22 cycles
 Normal termination of Gaussian 16 at Wed Dec  9 22:38:26 2020.
 Gaussian 16:  ES64L-G16RevA.03 25-Dec-2016

 ----------------------------------------------------------------------
 # B3LYP/6-311++G(d,p) empiricaldispersion=gd3bj scf=xqc pop=npa geom=c
 heck
 ----------------------------------------------------------------------

 -----------------------------------
 CID_62416931_JID_3030_Energie_anion
 -----------------------------------
 Structure from the checkpoint file:  "JID_3030.chk"
 Charge = -1 Multiplicity = 2

                         Standard orientation:
 ---------------------------------------------------------------------
 Center     Atomic      Atomic             Coordinates (Angstroms)
 Number     Number       Type             X           Y           Z
 ---------------------------------------------------------------------
      1          6           0        2.744090   -1.858924    0.297976
      2          6           0        1.437129   -1.061286    0.536791
      3          6           0        1.905665   -0.079182   -0.591119
      4          6           0        3.344722   -0.598238   -0.377829
      5          7           0        1.710464    1.358518   -0.532856
      6          6           0        0.321360    1.762905   -0.672728
      7          6           0       -0.504812    1.496327    0.597446
      8          8           0        0.003109    1.653972    1.700237
      9          7           0       -1.822539    1.135825    0.469440
     10          6           0       -2.498325    0.695006   -0.734143
     11          6           0       -2.165957   -0.762250   -1.137773
     12          6           0       -2.488743   -1.700242   -0.062368
     13          7           0       -2.754263   -2.408093    0.817976
     14          1           0        2.600308   -2.673098   -0.420064
     15          1           0        3.260178   -2.256199    1.176082
     16          1           0        0.482651   -1.586417    0.420773
     17          1           0        1.438246   -0.556569    1.506895
     18          1           0        1.526609   -0.424561   -1.563486
     19          1           0        3.871752    0.028934    0.350939
     20          1           0        3.980873   -0.720030   -1.259507
     21          1           0        2.035580    1.700226    0.372042
     22          1           0        0.273910    2.845338   -0.855832
     23          1           0       -0.092705    1.275353   -1.560001
     24          1           0       -2.261819    0.914173    1.356295
     25          1           0       -3.574869    0.787433   -0.566862
     26          1           0       -2.248950    1.354632   -1.568786
     27          1           0       -2.724276   -1.037787   -2.040541
     28          1           0       -1.098772   -0.851652   -1.369267
 ---------------------------------------------------------------------

 SCF Done:  E(UB3LYP) =  -591.643524569     A.U. after   29 cycles

 The electronic state is 2-A.
 Alpha  occ. eigenvalues --  -19.00035 -14.24909 -14.21363 -14.20896 -10.18201
 Alpha  occ. eigenvalues --  -10.12661 -10.11464 -10.11392 -10.11006 -10.10694
 Alpha  occ. eigenvalues --  -10.08112 -10.07988 -10.06987  -0.95264  -0.83990
 Alpha  occ. eigenvalues --   -0.82395  -0.81008  -0.74209  -0.69607  -0.62182
 Alpha  occ. eigenvalues --   -0.58328  -0.56998  -0.54695  -0.48854  -0.47511
 Alpha  occ. eigenvalues --   -0.42951  -0.41932  -0.40473  -0.39180  -0.38800
 Alpha  occ. eigenvalues --   -0.37378  -0.35494  -0.34531  -0.33154  -0.31341
 Alpha  occ. eigenvalues --   -0.30193  -0.29583  -0.29397  -0.27659  -0.27330
 Alpha  occ. eigenvalues --   -0.26811  -0.24266  -0.23717  -0.23181  -0.23117
 Alpha  occ. eigenvalues --   -0.22008  -0.17707  -0.17128  -0.13751   0.04206
 Alpha virt. eigenvalues --    0.06790   0.07644   0.07873   0.08880   0.09209
 Alpha virt. eigenvalues --    0.09534   0.09795   0.11104   0.11587   0.12055
 Alpha virt. eigenvalues --    0.12110   0.12586   0.12805   0.13263   0.13450

  Beta  occ. eigenvalues --  -19.00029 -14.24904 -14.21330 -14.20893 -10.18198
  Beta  occ. eigenvalues --  -10.12594 -10.11407 -10.11377 -10.10973 -10.10678
  Beta  occ. eigenvalues --  -10.08107 -10.07986 -10.06982  -0.95251  -0.83963
  Beta  occ. eigenvalues --   -0.82379  -0.80950  -0.74193  -0.69499  -0.62134
  Beta  occ. eigenvalues --   -0.58194  -0.56985  -0.54663  -0.48810  -0.47486
  Beta  occ. eigenvalues --   -0.42873  -0.41878  -0.40419  -0.39147  -0.38771
  Beta  occ. eigenvalues --   -0.37301  -0.35415  -0.34477  -0.33092  -0.31299
  Beta  occ. eigenvalues --   -0.30163  -0.29559  -0.29332  -0.27637  -0.27296
  Beta  occ. eigenvalues --   -0.26759  -0.24245  -0.23613  -0.23147  -0.23083
  Beta  occ. eigenvalues --   -0.21991  -0.17696  -0.17092  -0.13740
  Beta virt. eigenvalues --    0.06782   0.07559   0.08003   0.08337   0.09297
  Beta virt. eigenvalues --    0.09535   0.09964   0.10404   0.11418   0.11813
  Beta virt. eigenvalues --    0.12317   0.12444   0.12738   0.13172   0.13518

 Mulliken charges and spin densities:
               1          2
     1  C   -0.325213  -0.100484
     2  C    0.130057  -0.238712
     3  C   -0.552786   0.032016
     4  C    0.125892  -0.389160
     5  N    0.006404   0.087162
     6  C    0.667864  -0.927378
     7  C   -0.439406   0.375148
     8  O   -0.342998   0.002478
     9  N   -0.099156   0.009120
    10  C    1.518711  -2.060980
    11  C   -0.498105   0.756769
    12  C    1.500936  -1.645345
    13  N   -0.360832   0.042171
    14  H    0.027770   0.110702
    15  H    0.124266   0.008548
    16  H    0.315499  -0.200841
    17  H    0.159599   0.026929
    18  H   -0.269386   0.451975
    19  H    0.116375  -0.017735
    20  H    0.046346   0.098399
    21  H    0.240640  -0.015006
    22  H   -0.069490   0.291299
    23  H   -0.289858   0.462865
    24  H    0.191442   0.109728
    25  H   -0.525432   0.719647
    26  H   -0.863591   1.092785
    27  H   -1.297353   1.560820
    28  H   -0.238196   0.357081
 Sum of Mulliken charges =  -1.00000   1.00000

 Dipole moment (field-independent basis, Debye):
    X=              8.1241    Y=              0.3899    Z=              5.7683  Tot=              9.9713
 Quadrupole moment (field-independent basis, Debye-Ang):
   XX=           -138.1081   YY=           -119.1023   ZZ=           -131.2367
   XY=             -6.8169   XZ=            -12.8780   YZ=              3.6492

 Summary of Natural Population Analysis:

                                       Natural Population
                Natural  -----------------------------------------------
    Atom  No    Charge         Core      Valence    Rydberg      Total
 -----------------------------------------------------------------------
      C    1   -0.19267      0.99965     2.18533    0.00769     3.19267
      C    2   -0.20465      0.99962     2.19703    0.00800     3.20465
      C    3   -0.01177      0.99959     1.99767    0.01450     3.01177
      C    4   -0.18855      0.99963     2.18001    0.00891     3.18855
      N    5   -0.33271      0.99973     2.82148    0.01149     3.83271
      C    6   -0.13403      0.99959     2.12263    0.01182     3.13403
      C    7    0.33837      0.99968     1.63844    0.02352     2.66163
      O    8   -0.33018      0.99988     3.32439    0.00591     4.33018
      N    9   -0.31882      0.99967     2.80893    0.01022     3.81882
      C   10   -0.08589      0.99961     2.07275    0.01353     3.08589
      C   11   -0.25733      0.99954     2.24557    0.01221     3.25733
      C   12    0.16384      0.99966     1.82033    0.01617     2.83616
      N   13   -0.18609      0.99979     2.67532    0.01099     3.68609
      H   14    0.09657      0.00000     0.40236    0.00106     0.40343
      H   15    0.09372      0.00000     0.40557    0.00072     0.40628
      H   16    0.10092      0.00000     0.39803    0.00105     0.39908
      H   17    0.10427      0.00000     0.39475    0.00098     0.39573
      H   18    0.09413      0.00000     0.40392    0.00195     0.40587
      H   19    0.09290      0.00000     0.40600    0.00110     0.40710
      H   20    0.09696      0.00000     0.40209    0.00095     0.40304
      H   21    0.17825      0.00000     0.31950    0.00225     0.32175
      H   22    0.10745      0.00000     0.39149    0.00106     0.39255
      H   23    0.10405      0.00000     0.39372    0.00223     0.39595
      H   24    0.19674      0.00000     0.30125    0.00201     0.30326
      H   25    0.10712      0.00000     0.39018    0.00271     0.39288
      H   26    0.11237      0.00000     0.37892    0.00870     0.38763
      H   27    0.13502      0.00000     0.35325    0.01173     0.36498
      H   28    0.12001      0.00000     0.37662    0.00337     0.37999
 =======================================================================
   * Total *    0.00000     12.99564    35.80753    0.19684    49.00000

 Normal termination of Gaussian 16 at Wed Dec  9 22:45:38 2020.
