 Gaussian 16, Revision A.03,

 -----------------------------------------------------------
 # opt freq B3LYP/6-31G(d) empiricaldispersion=gd3bj scf=xqc
 -----------------------------------------------------------

 -------------------------------
 CID_114750168_JID_4789_neutraal
 -------------------------------
 Symbolic Z-matrix:
 Charge =  0 Multiplicity = 1

 SCF Done:  E(RB3LYP) =  -602.316736205     A.U. after   12 cycles
 SCF Done:  E(RB3LYP) =  -602.321088204     A.U. after   11 cycles
 SCF Done:  E(RB3LYP) =  -602.321719679     A.U. after   10 cycles
 SCF Done:  E(RB3LYP) =  -602.321818218     A.U. after   11 cycles
 SCF Done:  E(RB3LYP) =  -602.321998937     A.U. after   10 cycles
 SCF Done:  E(RB3LYP) =  -602.322034390     A.U. after   10 cycles
 SCF Done:  E(RB3LYP) =  -602.322056184     A.U. after    9 cycles
 SCF Done:  E(RB3LYP) =  -602.322066225     A.U. after    9 cycles
 SCF Done:  E(RB3LYP) =  -602.322069945     A.U. after    8 cycles
 SCF Done:  E(RB3LYP) =  -602.322070835     A.U. after    7 cycles
 SCF Done:  E(RB3LYP) =  -602.322071076     A.U. after    7 cycles
 SCF Done:  E(RB3LYP) =  -602.322071457     A.U. after    7 cycles
 SCF Done:  E(RB3LYP) =  -602.322071606     A.U. after    7 cycles
 SCF Done:  E(RB3LYP) =  -602.322071650     A.U. after    6 cycles
 Optimization completed.
    -- Stationary point found.
 Normal termination of Gaussian 16 at Thu Dec 10 10:47:07 2020.

 --------------------------------------------------------------------
 #N Geom=AllCheck Guess=TCheck SCRF=Check GenChk RB3LYP/6-31G(d) Freq
 --------------------------------------------------------------------

 Structure from the checkpoint file:  "JID_4789.chk"
 -------------------------------
 CID_114750168_JID_4789_neutraal
 -------------------------------
 Charge =  0 Multiplicity = 1

 SCF Done:  E(RB3LYP) =  -602.322071650     A.U. after    1 cycles

  Exact polarizability: 157.036   0.232 129.323  -0.505   2.462 118.363
 Approx polarizability: 184.690   0.485 185.428   1.260   0.929 179.901

                      1                      2                      3
                      A                      A                      A
 Frequencies --     19.1438                28.6564                47.1980
 Red. masses --      4.0382                 3.4146                 3.4882
 Frc consts  --      0.0009                 0.0017                 0.0046
 IR Inten    --      1.0466                 0.1317                 0.2987

                      4                      5                      6
                      A                      A                      A
 Frequencies --     55.7109                87.8791               106.1662
 Red. masses --      3.4034                 3.0399                 3.2953
 Frc consts  --      0.0062                 0.0138                 0.0219
 IR Inten    --      1.6652                 0.5999                 1.0930

                      7                      8                      9
                      A                      A                      A
 Frequencies --    124.8661               141.3818               195.3351
 Red. masses --      2.1449                 2.7160                 1.6630
 Frc consts  --      0.0197                 0.0320                 0.0374
 IR Inten    --      0.0469                 1.7821                 0.1509

                     10                     11                     12
                      A                      A                      A
 Frequencies --    219.5970               234.4572               237.1766
 Red. masses --      2.1096                 2.2562                 1.2189
 Frc consts  --      0.0599                 0.0731                 0.0404
 IR Inten    --      0.4217                 0.0464                 0.2889

                     13                     14                     15
                      A                      A                      A
 Frequencies --    242.6895               266.2614               304.5632
 Red. masses --      2.2337                 2.1321                 1.6103
 Frc consts  --      0.0775                 0.0891                 0.0880
 IR Inten    --      3.9570                 1.0456                 0.0865

                     16                     17                     18
                      A                      A                      A
 Frequencies --    329.9206               335.3846               355.7447
 Red. masses --      3.2515                 2.2560                 2.1380
 Frc consts  --      0.2085                 0.1495                 0.1594
 IR Inten    --      0.0954                 0.3955                 2.0104

                     19                     20                     21
                      A                      A                      A
 Frequencies --    390.1367               398.6369               412.2485
 Red. masses --      2.1683                 1.9330                 1.2394
 Frc consts  --      0.1944                 0.1810                 0.1241
 IR Inten    --      2.5071                29.9762               162.2586

                     22                     23                     24
                      A                      A                      A
 Frequencies --    446.3896               484.8794               545.0684
 Red. masses --      2.1092                 2.5101                 2.4936
 Frc consts  --      0.2476                 0.3477                 0.4365
 IR Inten    --      2.9006                 3.6522                 5.4988

                     25                     26                     27
                      A                      A                      A
 Frequencies --    621.8849               686.1297               751.2598
 Red. masses --      2.6865                 2.3287                 1.4821
 Frc consts  --      0.6122                 0.6459                 0.4928
 IR Inten    --      9.6368                30.0777                 5.1565

                     28                     29                     30
                      A                      A                      A
 Frequencies --    788.2271               800.1780               835.7353
 Red. masses --      1.4716                 1.0695                 1.7691
 Frc consts  --      0.5387                 0.4035                 0.7280
 IR Inten    --     60.8374                 3.8048                 1.4853

                     31                     32                     33
                      A                      A                      A
 Frequencies --    861.9652               867.1669               891.1614
 Red. masses --      1.9825                 1.6052                 2.0713
 Frc consts  --      0.8679                 0.7112                 0.9692
 IR Inten    --      8.6908                 2.0856                22.0105

                     34                     35                     36
                      A                      A                      A
 Frequencies --    900.4276               912.6337               929.3992
 Red. masses --      1.8041                 1.9618                 2.3393
 Frc consts  --      0.8618                 0.9627                 1.1905
 IR Inten    --      6.2327                 2.7236                 1.7837

                     37                     38                     39
                      A                      A                      A
 Frequencies --    945.2211               959.1017               973.9777
 Red. masses --      1.5154                 1.2937                 1.8951
 Frc consts  --      0.7977                 0.7012                 1.0592
 IR Inten    --     22.6841                 3.7050                 2.2620

                     40                     41                     42
                      A                      A                      A
 Frequencies --    992.6384               999.6068              1033.3713
 Red. masses --      2.0403                 2.1190                 1.4240
 Frc consts  --      1.1845                 1.2475                 0.8959
 IR Inten    --     24.4742                 2.2172                 0.3921

                     43                     44                     45
                      A                      A                      A
 Frequencies --   1035.0040              1056.9700              1068.7725
 Red. masses --      1.7139                 1.2665                 1.7240
 Frc consts  --      1.0817                 0.8337                 1.1602
 IR Inten    --      1.2109                15.0925                20.2840

                     46                     47                     48
                      A                      A                      A
 Frequencies --   1085.2365              1087.1290              1092.8130
 Red. masses --      2.5331                 1.4228                 2.5309
 Frc consts  --      1.7577                 0.9907                 1.7808
 IR Inten    --      6.2979                 1.4678                45.2219

                     49                     50                     51
                      A                      A                      A
 Frequencies --   1100.7459              1162.6112              1172.1709
 Red. masses --      2.3029                 3.0065                 2.0877
 Frc consts  --      1.6440                 2.3943                 1.6900
 IR Inten    --     18.8564                75.7887                 4.0549

                     52                     53                     54
                      A                      A                      A
 Frequencies --   1177.3457              1199.4141              1203.6696
 Red. masses --      2.1489                 1.5639                 1.5623
 Frc consts  --      1.7550                 1.3255                 1.3336
 IR Inten    --      5.6630                 1.8987                 2.9164

                     55                     56                     57
                      A                      A                      A
 Frequencies --   1213.8229              1239.2938              1245.8657
 Red. masses --      1.3229                 1.3477                 1.4505
 Frc consts  --      1.1484                 1.2195                 1.3265
 IR Inten    --      6.1845                 1.2239                 9.1670

                     58                     59                     60
                      A                      A                      A
 Frequencies --   1290.1509              1302.2150              1326.8910
 Red. masses --      1.4414                 1.4455                 1.3896
 Frc consts  --      1.4136                 1.4442                 1.4415
 IR Inten    --      1.1870                 2.0492                 3.7406

                     61                     62                     63
                      A                      A                      A
 Frequencies --   1332.2094              1352.2640              1376.6514
 Red. masses --      1.4096                 1.4914                 1.2934
 Frc consts  --      1.4740                 1.6069                 1.4443
 IR Inten    --      3.5484                 0.7576                 2.6946

                     64                     65                     66
                      A                      A                      A
 Frequencies --   1384.9588              1391.5491              1401.0115
 Red. masses --      1.3250                 1.3964                 1.3356
 Frc consts  --      1.4974                 1.5932                 1.5446
 IR Inten    --      2.6504                12.8852                 4.1140

                     67                     68                     69
                      A                      A                      A
 Frequencies --   1404.5374              1412.5297              1418.5863
 Red. masses --      1.4593                 1.2295                 1.4462
 Frc consts  --      1.6962                 1.4453                 1.7148
 IR Inten    --     15.1249                11.5319                 1.3277

                     70                     71                     72
                      A                      A                      A
 Frequencies --   1428.5335              1439.8193              1440.9803
 Red. masses --      1.3993                 1.2890                 1.2391
 Frc consts  --      1.6824                 1.5744                 1.5159
 IR Inten    --      2.3266                30.6772                 5.9880

                     73                     74                     75
                      A                      A                      A
 Frequencies --   1444.8311              1495.1972              1504.9841
 Red. masses --      1.2697                 1.0914                 1.0927
 Frc consts  --      1.5616                 1.4376                 1.4582
 IR Inten    --     10.1028                 0.2536                 6.0631

                     76                     77                     78
                      A                      A                      A
 Frequencies --   1510.7506              1511.8574              1521.8270
 Red. masses --      1.0931                 1.0986                 1.0704
 Frc consts  --      1.4700                 1.4795                 1.4606
 IR Inten    --      3.5643                 2.7481                 2.6562

                     79                     80                     81
                      A                      A                      A
 Frequencies --   1526.1984              1528.2264              1533.1137
 Red. masses --      1.0685                 1.1364                 1.1130
 Frc consts  --      1.4663                 1.5637                 1.5413
 IR Inten    --      4.1386                18.2212                 1.4496

                     82                     83                     84
                      A                      A                      A
 Frequencies --   1534.4116              1535.5417              1537.9956
 Red. masses --      1.0544                 1.0836                 1.2080
 Frc consts  --      1.4627                 1.5054                 1.6835
 IR Inten    --      4.1410                 0.8076                 2.2411

                     85                     86                     87
                      A                      A                      A
 Frequencies --   1541.1932              1545.7371              2936.3900
 Red. masses --      1.1023                 1.0724                 1.0714
 Frc consts  --      1.5426                 1.5096                 5.4430
 IR Inten    --     10.7804                11.9689                52.0994

                     88                     89                     90
                      A                      A                      A
 Frequencies --   3006.3716              3009.4034              3036.6064
 Red. masses --      1.0706                 1.0630                 1.0658
 Frc consts  --      5.7010                 5.6720                 5.7902
 IR Inten    --     54.0064                30.2699                62.4408

                     91                     92                     93
                      A                      A                      A
 Frequencies --   3037.7912              3039.9381              3042.1493
 Red. masses --      1.0554                 1.0689                 1.0580
 Frc consts  --      5.7385                 5.8199                 5.7690
 IR Inten    --     17.5099                11.3687                36.5933

                     94                     95                     96
                      A                      A                      A
 Frequencies --   3044.2212              3047.0615              3054.9233
 Red. masses --      1.0573                 1.0515                 1.0935
 Frc consts  --      5.7728                 5.7519                 6.0127
 IR Inten    --      3.3330                23.9773                21.4312

                     97                     98                     99
                      A                      A                      A
 Frequencies --   3061.4858              3074.4019              3096.9573
 Red. masses --      1.0918                 1.0992                 1.0937
 Frc consts  --      6.0291                 6.1215                 6.1802
 IR Inten    --     34.4749                51.7255                41.6778

                    100                    101                    102
                      A                      A                      A
 Frequencies --   3099.8234              3102.6056              3110.5013
 Red. masses --      1.0986                 1.1005                 1.1018
 Frc consts  --      6.2195                 6.2413                 6.2806
 IR Inten    --      3.7899                42.4471                43.2554

                    103                    104                    105
                      A                      A                      A
 Frequencies --   3115.6645              3117.6011              3122.9942
 Red. masses --      1.0946                 1.1017                 1.0998
 Frc consts  --      6.2605                 6.3090                 6.3197
 IR Inten    --     43.6534                67.7312                32.9867

                    106                    107                    108
                      A                      A                      A
 Frequencies --   3133.9354              3137.9929              3206.4120
 Red. masses --      1.0514                 1.0575                 1.1185
 Frc consts  --      6.0839                 6.1355                 6.7750
 IR Inten    --     23.1817                16.4402                 0.2274

                    109                    110                    111
                      A                      A                      A
 Frequencies --   3220.5855              3504.4243              3749.7533
 Red. masses --      1.1158                 1.0728                 1.0660
 Frc consts  --      6.8188                 7.7628                 8.8311
 IR Inten    --     26.4160                 1.2070                 9.1683

 - Thermochemistry -
 -------------------
 Temperature   298.150 Kelvin.  Pressure   1.00000 Atm.
 Atom     1 has atomic number  6 and mass  12.00000

 Molecular mass:   199.19361 amu.
 Principal axes and moments of inertia in atomic units:
                           1         2         3
     Eigenvalues --  1434.717096829.470087407.53848
           X            0.99997   0.00604  -0.00409
           Y           -0.00591   0.99947   0.03204
           Z            0.00428  -0.03202   0.99948
 This molecule is an asymmetric top.
 Rotational symmetry number  1.
 Warning -- assumption of classical behavior for rotation
           may cause significant error
 Rotational temperatures (Kelvin)      0.06037     0.01268     0.01169
 Rotational constants (GHZ):           1.25791     0.26426     0.24364
 Zero-point vibrational energy     950942.6 (Joules/Mol)
                                  227.28074 (Kcal/Mol)
 Warning -- explicit consideration of  24 degrees of freedom as
           vibrations may cause significant error
 Vibrational temperatures:     27.54    41.23    67.91    80.16   126.44
          (Kelvin)            152.75   179.65   203.42   281.04   315.95
                              337.33   341.24   349.18   383.09   438.20
                              474.68   482.54   511.84   561.32   573.55
                              593.13   642.26   697.63   784.23   894.75
                              987.19  1080.90  1134.08  1151.28  1202.44
                             1240.18  1247.66  1282.18  1295.51  1313.08
                             1337.20  1359.96  1379.93  1401.34  1428.19
                             1438.21  1486.79  1489.14  1520.74  1537.73
                             1561.41  1564.14  1572.31  1583.73  1672.74
                             1686.49  1693.94  1725.69  1731.81  1746.42
                             1783.07  1792.52  1856.24  1873.60  1909.10
                             1916.75  1945.61  1980.69  1992.65  2002.13
                             2015.74  2020.82  2032.32  2041.03  2055.34
                             2071.58  2073.25  2078.79  2151.26  2165.34
                             2173.63  2175.23  2189.57  2195.86  2198.78
                             2205.81  2207.68  2209.30  2212.83  2217.43
                             2223.97  4224.81  4325.50  4329.86  4369.00
                             4370.70  4373.79  4376.97  4379.96  4384.04
                             4395.35  4404.80  4423.38  4455.83  4459.95
                             4463.96  4475.32  4482.75  4485.53  4493.29
                             4509.03  4514.87  4613.31  4633.70  5042.08
                             5395.06

 Zero-point correction=                           0.362195 (Hartree/Particle)
 Thermal correction to Energy=                    0.379200
 Thermal correction to Enthalpy=                  0.380144
 Thermal correction to Gibbs Free Energy=         0.316021
 Sum of electronic and zero-point Energies=           -601.959877
 Sum of electronic and thermal Energies=              -601.942872
 Sum of electronic and thermal Enthalpies=            -601.941927
 Sum of electronic and thermal Free Energies=         -602.006050

                     E (Thermal)             CV                S
                      KCal/Mol        Cal/Mol-Kelvin    Cal/Mol-Kelvin
 Total                  237.952             63.408            134.958
 Electronic               0.000              0.000              0.000
 Translational            0.889              2.981             41.772
 Rotational               0.889              2.981             32.651
 Vibrational            236.174             57.446             60.535
 Vibration     1          0.593              1.986              6.721
 Vibration     2          0.593              1.984              5.920
 Vibration     3          0.595              1.979              4.931
 Vibration     4          0.596              1.975              4.604
 Vibration     5          0.601              1.958              3.707
 Vibration     6          0.605              1.944              3.338
 Vibration     7          0.610              1.928              3.024
 Vibration     8          0.615              1.912              2.785
 Vibration     9          0.636              1.846              2.177
 Vibration    10          0.647              1.811              1.962
 Vibration    11          0.654              1.788              1.845
 Vibration    12          0.656              1.784              1.824
 Vibration    13          0.659              1.775              1.783
 Vibration    14          0.672              1.735              1.620
 Vibration    15          0.695              1.665              1.392
 Vibration    16          0.713              1.616              1.260
 Vibration    17          0.716              1.605              1.234
 Vibration    18          0.731              1.563              1.141
 Vibration    19          0.758              1.491              1.000
 Vibration    20          0.765              1.473              0.968
 Vibration    21          0.776              1.444              0.919
 Vibration    22          0.806              1.369              0.807
 Vibration    23          0.841              1.284              0.697
 Vibration    24          0.900              1.150              0.554

 Optimization completed.
    -- Stationary point found.
 Normal termination of Gaussian 16 at Thu Dec 10 11:00:07 2020.

 ----------------------------------------------------------------------
 # B3LYP/6-311++G(d,p) empiricaldispersion=gd3bj scf=xqc pop=npa geom=c
 heck
 ----------------------------------------------------------------------

 ---------------------------------------
 CID_114750168_JID_4789_Energie_neutraal
 ---------------------------------------
 Structure from the checkpoint file:  "JID_4789.chk"
 Charge =  0 Multiplicity = 1

 SCF Done:  E(RB3LYP) =  -602.504600449     A.U. after   13 cycles
 Normal termination of Gaussian 16 at Thu Dec 10 11:07:10 2020.

 ----------------------------------------------------------------------
 # B3LYP/6-311++G(d,p) empiricaldispersion=gd3bj scf=xqc pop=npa geom=c
 heck
 ----------------------------------------------------------------------

 -------------------------------------
 CID_114750168_JID_4789_Energie_kation
 -------------------------------------
 Structure from the checkpoint file:  "JID_4789.chk"
 Charge =  1 Multiplicity = 2

 SCF Done:  E(UB3LYP) =  -602.205248896     A.U. after   21 cycles
 Normal termination of Gaussian 16 at Thu Dec 10 11:21:29 2020.
 Gaussian 16:  ES64L-G16RevA.03 25-Dec-2016

 ----------------------------------------------------------------------
 # B3LYP/6-311++G(d,p) empiricaldispersion=gd3bj scf=xqc pop=npa geom=c
 heck
 ----------------------------------------------------------------------

 ------------------------------------
 CID_114750168_JID_4789_Energie_anion
 ------------------------------------
 Structure from the checkpoint file:  "JID_4789.chk"
 Charge = -1 Multiplicity = 2

                         Standard orientation:
 ---------------------------------------------------------------------
 Center     Atomic      Atomic             Coordinates (Angstroms)
 Number     Number       Type             X           Y           Z
 ---------------------------------------------------------------------
      1          6           0       -5.054675    0.313080    0.919023
      2          6           0       -4.419589    0.607356   -0.443207
      3          6           0       -2.883450    0.612406   -0.423135
      4          6           0       -2.214647   -0.696507    0.035548
      5          6           0       -2.668353   -1.900468   -0.798811
      6          6           0       -0.683399   -0.582137   -0.017269
      7          7           0       -0.175920    0.470371    0.859024
      8          6           0        1.264462    0.461955    1.095710
      9          6           0        2.185140    0.690063   -0.118956
     10          6           0        1.979621    1.986016   -0.866985
     11          6           0        3.211380    1.805335   -0.018795
     12          6           0        2.597733   -0.553583   -0.908036
     13          6           0        3.835323   -1.257805   -0.341483
     14          8           0        3.714584   -1.604729    1.035314
     15          1           0       -4.818215   -0.698808    1.265849
     16          1           0       -6.145938    0.400590    0.873409
     17          1           0       -4.693114    1.014599    1.680940
     18          1           0       -4.781906   -0.118647   -1.181946
     19          1           0       -4.762153    1.589413   -0.795162
     20          1           0       -2.514869    0.859577   -1.430703
     21          1           0       -2.557371    1.424708    0.240535
     22          1           0       -2.480132   -0.872215    1.086024
     23          1           0       -2.459095   -1.741668   -1.864768
     24          1           0       -2.144272   -2.812029   -0.488530
     25          1           0       -3.741898   -2.086423   -0.695929
     26          1           0       -0.247649   -1.529304    0.326056
     27          1           0       -0.375000   -0.458692   -1.073054
     28          1           0       -0.437201    1.376274    0.476653
     29          1           0        1.464845    1.242909    1.841083
     30          1           0        1.518464   -0.497894    1.558187
     31          1           0        2.092469    1.981125   -1.947835
     32          1           0        1.213624    2.670600   -0.508809
     33          1           0        3.278330    2.364352    0.911572
     34          1           0        4.163770    1.678775   -0.527381
     35          1           0        1.766530   -1.264503   -0.933713
     36          1           0        2.813687   -0.283812   -1.951207
     37          1           0        4.000772   -2.200973   -0.872207
     38          1           0        4.727218   -0.632426   -0.501870
     39          1           0        3.736595   -0.774558    1.535512
 ---------------------------------------------------------------------

 SCF Done:  E(UB3LYP) =  -602.490460641     A.U. after   32 cycles

 The electronic state is 2-A.
 Alpha  occ. eigenvalues --  -19.03284 -14.20079 -10.12247 -10.09833 -10.09402
 Alpha  occ. eigenvalues --  -10.09202 -10.07811 -10.07776 -10.07679 -10.07549
 Alpha  occ. eigenvalues --  -10.07302 -10.06966 -10.06748 -10.06718  -0.93343
 Alpha  occ. eigenvalues --   -0.81584  -0.77006  -0.71791  -0.66735  -0.65867
 Alpha  occ. eigenvalues --   -0.60700  -0.58994  -0.56105  -0.53375  -0.51246
 Alpha  occ. eigenvalues --   -0.50868  -0.45655  -0.45245  -0.41931  -0.41331
 Alpha  occ. eigenvalues --   -0.38837  -0.38306  -0.37834  -0.35749  -0.34725
 Alpha  occ. eigenvalues --   -0.34411  -0.33378  -0.32610  -0.31233  -0.30854
 Alpha  occ. eigenvalues --   -0.29574  -0.29178  -0.28145  -0.27641  -0.27018
 Alpha  occ. eigenvalues --   -0.26493  -0.25739  -0.25294  -0.24130  -0.22971
 Alpha  occ. eigenvalues --   -0.22541  -0.21891  -0.20600  -0.19890  -0.17479
 Alpha  occ. eigenvalues --   -0.13100   0.04162
 Alpha virt. eigenvalues --    0.05629   0.06644   0.06901   0.07470   0.08000
 Alpha virt. eigenvalues --    0.08210   0.09197   0.09307   0.10007   0.10155
 Alpha virt. eigenvalues --    0.10467   0.10998   0.11420   0.11666   0.12535

  Beta  occ. eigenvalues --  -19.03274 -14.20072 -10.12226 -10.09822 -10.09396
  Beta  occ. eigenvalues --  -10.09203 -10.07780 -10.07751 -10.07676 -10.07535
  Beta  occ. eigenvalues --  -10.07284 -10.06954 -10.06726 -10.06698  -0.93322
  Beta  occ. eigenvalues --   -0.81570  -0.76990  -0.71771  -0.66707  -0.65832
  Beta  occ. eigenvalues --   -0.60674  -0.58955  -0.56069  -0.53329  -0.51184
  Beta  occ. eigenvalues --   -0.50799  -0.45614  -0.45198  -0.41893  -0.41308
  Beta  occ. eigenvalues --   -0.38814  -0.38267  -0.37805  -0.35718  -0.34690
  Beta  occ. eigenvalues --   -0.34373  -0.33347  -0.32580  -0.31208  -0.30830
  Beta  occ. eigenvalues --   -0.29551  -0.29159  -0.28123  -0.27606  -0.26988
  Beta  occ. eigenvalues --   -0.26470  -0.25710  -0.25271  -0.24109  -0.22946
  Beta  occ. eigenvalues --   -0.22514  -0.21869  -0.20578  -0.19858  -0.17453
  Beta  occ. eigenvalues --   -0.13084
  Beta virt. eigenvalues --    0.06084   0.06597   0.07205   0.07399   0.07980
  Beta virt. eigenvalues --    0.08234   0.08661   0.09560   0.09765   0.10244
  Beta virt. eigenvalues --    0.10420   0.10708   0.11202   0.11706   0.11952

 Mulliken charges and spin densities:
               1          2
     1  C    0.276179  -0.874738
     2  C   -0.056010  -0.208545
     3  C   -0.035262  -0.237904
     4  C   -1.093084   1.619803
     5  C    0.198538  -0.911710
     6  C    0.006428  -0.867868
     7  N    0.087129   0.076082
     8  C    0.946704  -1.761641
     9  C   -2.156341   3.016618
    10  C    0.660439  -1.114394
    11  C    1.642556  -2.014079
    12  C   -0.387570   0.094085
    13  C    0.326420  -0.876361
    14  O   -0.249618   0.018319
    15  H   -0.110559   0.261711
    16  H   -0.305925   0.446947
    17  H    0.060303   0.080832
    18  H    0.050506   0.081928
    19  H   -0.342152   0.501369
    20  H   -0.041009   0.189973
    21  H    0.097727  -0.014915
    22  H    0.248371  -0.069339
    23  H   -0.100836   0.263691
    24  H    0.015540   0.100570
    25  H   -0.046305   0.201495
    26  H    0.047680   0.092722
    27  H    0.178448  -0.024259
    28  H   -0.054647   0.253134
    29  H   -0.128222   0.308670
    30  H    0.205891  -0.060617
    31  H   -0.298312   0.465212
    32  H   -0.025038   0.156245
    33  H   -0.330719   0.497793
    34  H   -0.081294   0.220049
    35  H    0.268647  -0.124195
    36  H   -0.369121   0.530917
    37  H   -0.091651   0.262498
    38  H   -0.123735   0.286774
    39  H    0.109906   0.133129
 Sum of Mulliken charges =  -1.00000   1.00000

 Dipole moment (field-independent basis, Debye):
    X=             -0.2183    Y=             -2.0466    Z=              1.1228  Tot=              2.3445
 Quadrupole moment (field-independent basis, Debye-Ang):
   XX=           -200.8729   YY=           -136.1235   ZZ=           -129.6550
   XY=             -0.4235   XZ=              2.9110   YZ=              1.2841

 Summary of Natural Population Analysis:

                                       Natural Population
                Natural  -----------------------------------------------
    Atom  No    Charge         Core      Valence    Rydberg      Total
 -----------------------------------------------------------------------
      C    1   -0.28830      0.99967     2.28283    0.00581     3.28830
      C    2   -0.19020      0.99964     2.18231    0.00824     3.19020
      C    3   -0.19028      0.99961     2.18109    0.00958     3.19028
      C    4   -0.11605      0.99960     2.10714    0.00932     3.11605
      C    5   -0.28636      0.99965     2.28177    0.00494     3.28636
      C    6   -0.08307      0.99960     2.07384    0.00964     3.08307
      N    7   -0.33677      0.99974     2.82639    0.01063     3.83677
      C    8   -0.08547      0.99957     2.07303    0.01288     3.08547
      C    9   -0.06282      0.99955     2.04860    0.01468     3.06282
      C   10   -0.19139      0.99958     2.18188    0.00994     3.19139
      C   11   -0.19795      0.99958     2.18846    0.00991     3.19795
      C   12   -0.20216      0.99957     2.19233    0.01026     3.20216
      C   13   -0.00656      0.99960     1.99442    0.01254     3.00656
      O   14   -0.37014      0.99990     3.36381    0.00643     4.37014
      H   15    0.09564      0.00000     0.40343    0.00093     0.40436
      H   16    0.09881      0.00000     0.40028    0.00092     0.40119
      H   17    0.09635      0.00000     0.40264    0.00101     0.40365
      H   18    0.09349      0.00000     0.40530    0.00121     0.40651
      H   19    0.09608      0.00000     0.40274    0.00118     0.40392
      H   20    0.09612      0.00000     0.40262    0.00125     0.40388
      H   21    0.09650      0.00000     0.40204    0.00146     0.40350
      H   22    0.09624      0.00000     0.40177    0.00199     0.40376
      H   23    0.09749      0.00000     0.40145    0.00106     0.40251
      H   24    0.09813      0.00000     0.40094    0.00093     0.40187
      H   25    0.10027      0.00000     0.39884    0.00089     0.39973
      H   26    0.09203      0.00000     0.40664    0.00133     0.40797
      H   27    0.07880      0.00000     0.41900    0.00220     0.42120
      H   28    0.17087      0.00000     0.32539    0.00374     0.32913
      H   29    0.09504      0.00000     0.40380    0.00116     0.40496
      H   30    0.09864      0.00000     0.39991    0.00144     0.40136
      H   31    0.10462      0.00000     0.39411    0.00127     0.39538
      H   32    0.10000      0.00000     0.39861    0.00139     0.40000
      H   33    0.10275      0.00000     0.39573    0.00152     0.39725
      H   34    0.10402      0.00000     0.39433    0.00166     0.39598
      H   35    0.10218      0.00000     0.39627    0.00155     0.39782
      H   36    0.10372      0.00000     0.39461    0.00167     0.39628
      H   37    0.08481      0.00000     0.41412    0.00108     0.41519
      H   38    0.07691      0.00000     0.42145    0.00164     0.42309
      H   39    0.22800      0.00000     0.26891    0.00309     0.27200
 =======================================================================
   * Total *    0.00000     13.99485    41.83279    0.17236    56.00000

 Normal termination of Gaussian 16 at Thu Dec 10 11:42:20 2020.
