 Gaussian 16, Revision A.03,

 -----------------------------------------------------------
 # opt freq B3LYP/6-31G(d) empiricaldispersion=gd3bj scf=xqc
 -----------------------------------------------------------

 -------------------------------
 CID_105806361_JID_6115_neutraal
 -------------------------------
 Symbolic Z-matrix:
 Charge =  0 Multiplicity = 1

 SCF Done:  E(RB3LYP) =  -677.317641470     A.U. after   14 cycles
 SCF Done:  E(RB3LYP) =  -677.322461186     A.U. after   12 cycles
 SCF Done:  E(RB3LYP) =  -677.321244562     A.U. after   12 cycles
 SCF Done:  E(RB3LYP) =  -677.322656304     A.U. after   11 cycles
 SCF Done:  E(RB3LYP) =  -677.323461543     A.U. after   11 cycles
 SCF Done:  E(RB3LYP) =  -677.324210660     A.U. after   12 cycles
 SCF Done:  E(RB3LYP) =  -677.324508394     A.U. after   11 cycles
 SCF Done:  E(RB3LYP) =  -677.324735965     A.U. after   11 cycles
 SCF Done:  E(RB3LYP) =  -677.324844572     A.U. after   11 cycles
 SCF Done:  E(RB3LYP) =  -677.324879266     A.U. after   10 cycles
 SCF Done:  E(RB3LYP) =  -677.324931727     A.U. after   10 cycles
 SCF Done:  E(RB3LYP) =  -677.324935663     A.U. after   10 cycles
 SCF Done:  E(RB3LYP) =  -677.324937643     A.U. after    9 cycles
 SCF Done:  E(RB3LYP) =  -677.324939377     A.U. after    9 cycles
 SCF Done:  E(RB3LYP) =  -677.324939554     A.U. after    9 cycles
 Optimization completed.
    -- Stationary point found.
 Normal termination of Gaussian 16 at Thu Dec 10 21:20:38 2020.

 --------------------------------------------------------------------
 #N Geom=AllCheck Guess=TCheck SCRF=Check GenChk RB3LYP/6-31G(d) Freq
 --------------------------------------------------------------------

 Structure from the checkpoint file:  "JID_6115.chk"
 -------------------------------
 CID_105806361_JID_6115_neutraal
 -------------------------------
 Charge =  0 Multiplicity = 1

 SCF Done:  E(RB3LYP) =  -677.324939554     A.U. after    1 cycles

  Exact polarizability: 149.520  -5.040 150.384   0.569   0.625 139.856
 Approx polarizability: 186.384 -11.237 224.126   3.845   0.346 227.848

                      1                      2                      3
                      A                      A                      A
 Frequencies --     13.9513                24.6939                60.6053
 Red. masses --      3.4995                 3.3198                 3.2554
 Frc consts  --      0.0004                 0.0012                 0.0070
 IR Inten    --      0.0394                 0.0246                 0.3302

                      4                      5                      6
                      A                      A                      A
 Frequencies --     78.2383                82.4895               122.9479
 Red. masses --      4.0970                 2.9264                 2.5282
 Frc consts  --      0.0148                 0.0117                 0.0225
 IR Inten    --      0.0342                 0.0990                 0.1685

                      7                      8                      9
                      A                      A                      A
 Frequencies --    132.7946               166.9262               169.1616
 Red. masses --      3.5072                 2.4684                 2.6327
 Frc consts  --      0.0364                 0.0405                 0.0444
 IR Inten    --      0.6851                 0.2558                 0.3345

                     10                     11                     12
                      A                      A                      A
 Frequencies --    212.1438               221.2067               252.6335
 Red. masses --      1.9444                 2.4203                 1.3387
 Frc consts  --      0.0516                 0.0698                 0.0503
 IR Inten    --      0.2838                 2.0226                 0.3200

                     13                     14                     15
                      A                      A                      A
 Frequencies --    264.9462               272.5708               284.6427
 Red. masses --      1.1987                 2.4478                 1.5146
 Frc consts  --      0.0496                 0.1071                 0.0723
 IR Inten    --      0.0510                 0.7065                 1.7592

                     16                     17                     18
                      A                      A                      A
 Frequencies --    304.8615               330.3789               341.3880
 Red. masses --      2.3680                 2.8292                 2.0414
 Frc consts  --      0.1297                 0.1819                 0.1402
 IR Inten    --      0.5706                 1.8756                 4.5803

                     19                     20                     21
                      A                      A                      A
 Frequencies --    387.8750               425.9985               464.8272
 Red. masses --      2.1656                 2.9284                 3.7979
 Frc consts  --      0.1920                 0.3131                 0.4835
 IR Inten    --      0.8438                 2.0205                 1.5830

                     22                     23                     24
                      A                      A                      A
 Frequencies --    486.0266               488.3036               569.3690
 Red. masses --      2.4124                 3.2676                 2.8019
 Frc consts  --      0.3358                 0.4590                 0.5352
 IR Inten    --      1.0837                 8.0806                 2.5065

                     25                     26                     27
                      A                      A                      A
 Frequencies --    602.4602               614.4678               682.9316
 Red. masses --      1.8715                 3.4301                 2.3180
 Frc consts  --      0.4002                 0.7631                 0.6370
 IR Inten    --     61.1223                12.9580                 9.3907

                     28                     29                     30
                      A                      A                      A
 Frequencies --    707.0433               726.1436               743.7220
 Red. masses --      2.2870                 1.6231                 2.4603
 Frc consts  --      0.6736                 0.5042                 0.8018
 IR Inten    --      7.0514                30.6986                42.4326

                     31                     32                     33
                      A                      A                      A
 Frequencies --    795.1904               809.0185               834.4424
 Red. masses --      1.1017                 1.2563                 1.3950
 Frc consts  --      0.4104                 0.4844                 0.5723
 IR Inten    --      2.0000                30.2162                28.2299

                     34                     35                     36
                      A                      A                      A
 Frequencies --    855.6451               860.0250               897.8812
 Red. masses --      2.0841                 1.2878                 2.1945
 Frc consts  --      0.8990                 0.5612                 1.0424
 IR Inten    --      4.9469                 1.0027                 1.5862

                     37                     38                     39
                      A                      A                      A
 Frequencies --    910.8891               921.3089               938.3741
 Red. masses --      4.4735                 2.4903                 1.2543
 Frc consts  --      2.1869                 1.2454                 0.6507
 IR Inten    --      4.3978                 7.0649                 0.6737

                     40                     41                     42
                      A                      A                      A
 Frequencies --    946.7864               959.0821               959.7010
 Red. masses --      1.8544                 2.6128                 1.4671
 Frc consts  --      0.9794                 1.4160                 0.7961
 IR Inten    --      8.1397                11.7351                 1.1050

                     43                     44                     45
                      A                      A                      A
 Frequencies --    968.8051               979.8502              1014.2025
 Red. masses --      1.8012                 1.5583                 2.9288
 Frc consts  --      0.9961                 0.8815                 1.7749
 IR Inten    --      0.7571                 0.4037                18.5650

                     46                     47                     48
                      A                      A                      A
 Frequencies --   1037.8484              1045.5783              1061.5636
 Red. masses --      1.4168                 2.0174                 1.4008
 Frc consts  --      0.8992                 1.2994                 0.9301
 IR Inten    --     23.8166                 5.1509                 5.4889

                     49                     50                     51
                      A                      A                      A
 Frequencies --   1073.7794              1093.2909              1108.2628
 Red. masses --      2.0148                 1.3646                 2.1473
 Frc consts  --      1.3687                 0.9610                 1.5539
 IR Inten    --      4.5360                 7.3564                 2.6099

                     52                     53                     54
                      A                      A                      A
 Frequencies --   1112.2613              1125.1914              1144.3542
 Red. masses --      1.6210                 2.4898                 2.1337
 Frc consts  --      1.1816                 1.8573                 1.6463
 IR Inten    --     10.5117                 1.9846                 8.9743

                     55                     56                     57
                      A                      A                      A
 Frequencies --   1152.1237              1162.7440              1182.8131
 Red. masses --      2.3377                 3.5364                 1.8864
 Frc consts  --      1.8283                 2.8170                 1.5550
 IR Inten    --      6.2340                70.8222                13.0513

                     58                     59                     60
                      A                      A                      A
 Frequencies --   1200.5455              1204.1665              1212.6362
 Red. masses --      1.3836                 2.0319                 2.6263
 Frc consts  --      1.1750                 1.7359                 2.2754
 IR Inten    --      3.5106                 5.8912                13.2614

                     61                     62                     63
                      A                      A                      A
 Frequencies --   1260.6556              1267.6173              1296.1076
 Red. masses --      1.7179                 1.5341                 1.4735
 Frc consts  --      1.6086                 1.4524                 1.4584
 IR Inten    --      5.8426                 3.5846                 3.9441

                     64                     65                     66
                      A                      A                      A
 Frequencies --   1312.9033              1337.2494              1358.7011
 Red. masses --      1.7024                 1.8438                 1.5092
 Frc consts  --      1.7289                 1.9426                 1.6415
 IR Inten    --      2.8648                 1.2583                 8.7730

                     67                     68                     69
                      A                      A                      A
 Frequencies --   1369.2929              1379.7457              1394.2169
 Red. masses --      1.3793                 1.3954                 1.3837
 Frc consts  --      1.5237                 1.5651                 1.5847
 IR Inten    --      0.9761                 0.3608                 9.4949

                     70                     71                     72
                      A                      A                      A
 Frequencies --   1405.3127              1428.2318              1434.2793
 Red. masses --      1.2865                 1.2539                 1.6399
 Frc consts  --      1.4969                 1.5069                 1.9876
 IR Inten    --      7.9048                 4.1706                 6.3435

                     73                     74                     75
                      A                      A                      A
 Frequencies --   1440.9170              1448.2453              1451.2708
 Red. masses --      1.2705                 1.2404                 1.8508
 Frc consts  --      1.5542                 1.5329                 2.2967
 IR Inten    --      3.6609                 5.3883                 1.9939

                     76                     77                     78
                      A                      A                      A
 Frequencies --   1497.8177              1504.9625              1514.7184
 Red. masses --      1.0781                 1.0827                 1.1162
 Frc consts  --      1.4250                 1.4448                 1.5089
 IR Inten    --      4.8215                 4.0610                 9.5790

                     79                     80                     81
                      A                      A                      A
 Frequencies --   1516.9460              1521.0374              1528.7735
 Red. masses --      1.0789                 1.1331                 1.0457
 Frc consts  --      1.4627                 1.5445                 1.4399
 IR Inten    --      3.4627                18.0704                 2.3750

                     82                     83                     84
                      A                      A                      A
 Frequencies --   1530.0688              1538.6039              1538.8647
 Red. masses --      1.0730                 1.1105                 1.2709
 Frc consts  --      1.4801                 1.5488                 1.7732
 IR Inten    --      1.3693                12.6149                10.3857

                     85                     86                     87
                      A                      A                      A
 Frequencies --   1539.9039              1543.1032              1543.3028
 Red. masses --      1.2015                 1.5394                 1.6008
 Frc consts  --      1.6786                 2.1597                 2.2465
 IR Inten    --      9.5411                12.7445                 2.7840

                     88                     89                     90
                      A                      A                      A
 Frequencies --   1637.5889              3009.6050              3029.8469
 Red. masses --      5.6165                 1.0837                 1.0684
 Frc consts  --      8.8741                 5.7834                 5.7785
 IR Inten    --      1.4897                18.3626                16.0517

                     91                     92                     93
                      A                      A                      A
 Frequencies --   3031.2986              3042.8118              3047.5946
 Red. masses --      1.0621                 1.0375                 1.0373
 Frc consts  --      5.7501                 5.6598                 5.6766
 IR Inten    --     34.5390                35.5772                32.0354

                     94                     95                     96
                      A                      A                      A
 Frequencies --   3048.9725              3056.2030              3074.9567
 Red. masses --      1.0382                 1.0806                 1.1001
 Frc consts  --      5.6862                 5.9468                 6.1285
 IR Inten    --     24.4392                19.4518                38.3030

                     97                     98                     99
                      A                      A                      A
 Frequencies --   3093.8471              3097.1250              3108.6145
 Red. masses --      1.0955                 1.1008                 1.1012
 Frc consts  --      6.1780                 6.2211                 6.2697
 IR Inten    --     13.8310                28.7446                63.9694

                    100                    101                    102
                      A                      A                      A
 Frequencies --   3114.1480              3115.6250              3126.3834
 Red. masses --      1.1020                 1.1025                 1.1018
 Frc consts  --      6.2967                 6.3058                 6.3453
 IR Inten    --     36.5023                29.4263                45.9574

                    103                    104                    105
                      A                      A                      A
 Frequencies --   3136.9213              3141.3247              3154.1111
 Red. masses --      1.0538                 1.0993                 1.0595
 Frc consts  --      6.1096                 6.3915                 6.2101
 IR Inten    --     24.9669                17.2260                 9.9731

                    106                    107                    108
                      A                      A                      A
 Frequencies --   3211.9323              3245.5603              3260.9736
 Red. masses --      1.1176                 1.1123                 1.0910
 Frc consts  --      6.7931                 6.9034                 6.8357
 IR Inten    --     12.9042                 8.7897                 6.1703

                    109                    110                    111
                      A                      A                      A
 Frequencies --   3272.7650              3303.2423              3557.1573
 Red. masses --      1.0970                 1.1043                 1.0730
 Frc consts  --      6.9229                 7.0996                 7.9994
 IR Inten    --      1.5244                 1.5928                 1.4218

 - Thermochemistry -
 -------------------
 Temperature   298.150 Kelvin.  Pressure   1.00000 Atm.
 Atom     1 has atomic number  6 and mass  12.00000

 Molecular mass:   221.17796 amu.
 Principal axes and moments of inertia in atomic units:
                           1         2         3
     Eigenvalues --  2394.055434752.160065478.99313
           X            0.99982   0.01818   0.00517
           Y           -0.01817   0.99983  -0.00102
           Z           -0.00519   0.00093   0.99999
 This molecule is an asymmetric top.
 Rotational symmetry number  1.
 Warning -- assumption of classical behavior for rotation
           may cause significant error
 Rotational temperatures (Kelvin)      0.03618     0.01823     0.01581
 Rotational constants (GHZ):           0.75384     0.37977     0.32939
 Zero-point vibrational energy     918885.0 (Joules/Mol)
                                  219.61878 (Kcal/Mol)
 Warning -- explicit consideration of  26 degrees of freedom as
           vibrations may cause significant error
 Vibrational temperatures:     20.07    35.53    87.20   112.57   118.68
          (Kelvin)            176.89   191.06   240.17   243.39   305.23
                              318.27   363.48   381.20   392.17   409.54
                              438.63   475.34   491.18   558.07   612.92
                              668.78   699.28   702.56   819.20   866.81
                              884.08   982.59  1017.28  1044.76  1070.05
                             1144.10  1164.00  1200.58  1231.08  1237.38
                             1291.85  1310.57  1325.56  1350.11  1362.21
                             1379.91  1380.80  1393.89  1409.79  1459.21
                             1493.23  1504.35  1527.35  1544.93  1573.00
                             1594.54  1600.30  1618.90  1646.47  1657.65
                             1672.93  1701.80  1727.32  1732.53  1744.71
                             1813.80  1823.82  1864.81  1888.97  1924.00
                             1954.87  1970.11  1985.15  2005.97  2021.93
                             2054.91  2063.61  2073.16  2083.70  2088.05
                             2155.03  2165.31  2179.34  2182.55  2188.43
                             2199.56  2201.43  2213.71  2214.08  2215.58
                             2220.18  2220.47  2356.13  4330.15  4359.27
                             4361.36  4377.93  4384.81  4386.79  4397.19
                             4424.18  4451.36  4456.07  4472.60  4480.56
                             4482.69  4498.17  4513.33  4519.67  4538.06
                             4621.25  4669.64  4691.81  4708.78  4752.63
                             5117.96

 Zero-point correction=                           0.349985 (Hartree/Particle)
 Thermal correction to Energy=                    0.367223
 Thermal correction to Enthalpy=                  0.368167
 Thermal correction to Gibbs Free Energy=         0.303829
 Sum of electronic and zero-point Energies=           -676.974955
 Sum of electronic and thermal Energies=              -676.957717
 Sum of electronic and thermal Enthalpies=            -676.956773
 Sum of electronic and thermal Free Energies=         -677.021111

                     E (Thermal)             CV                S
                      KCal/Mol        Cal/Mol-Kelvin    Cal/Mol-Kelvin
 Total                  230.436             65.933            135.410
 Electronic               0.000              0.000              0.000
 Translational            0.889              2.981             42.084
 Rotational               0.889              2.981             32.500
 Vibrational            228.658             59.971             60.826
 Vibration     1          0.593              1.986              7.350
 Vibration     2          0.593              1.985              6.216
 Vibration     3          0.597              1.973              4.437
 Vibration     4          0.600              1.964              3.935
 Vibration     5          0.600              1.961              3.831
 Vibration     6          0.610              1.930              3.054
 Vibration     7          0.613              1.921              2.905
 Vibration     8          0.624              1.883              2.470
 Vibration     9          0.625              1.880              2.445
 Vibration    10          0.643              1.822              2.025
 Vibration    11          0.648              1.809              1.949
 Vibration    12          0.664              1.758              1.712
 Vibration    13          0.671              1.737              1.629
 Vibration    14          0.676              1.724              1.580
 Vibration    15          0.683              1.702              1.506
 Vibration    16          0.696              1.664              1.390
 Vibration    17          0.713              1.615              1.258
 Vibration    18          0.721              1.593              1.206
 Vibration    19          0.756              1.496              1.008
 Vibration    20          0.788              1.414              0.872
 Vibration    21          0.822              1.328              0.752
 Vibration    22          0.842              1.281              0.694
 Vibration    23          0.844              1.276              0.688
 Vibration    24          0.925              1.098              0.505
 Vibration    25          0.961              1.027              0.445
 Vibration    26          0.974              1.001              0.425

                           ! Non-Optimized Parameters !
 Normal termination of Gaussian 16 at Thu Dec 10 21:35:33 2020.

 ----------------------------------------------------------------------
 # B3LYP/6-311++G(d,p) empiricaldispersion=gd3bj scf=xqc pop=npa geom=c
 heck
 ----------------------------------------------------------------------

 ---------------------------------------
 CID_105806361_JID_6115_Energie_neutraal
 ---------------------------------------
 Structure from the checkpoint file:  "JID_6115.chk"
 Charge =  0 Multiplicity = 1

 SCF Done:  E(RB3LYP) =  -677.512575129     A.U. after   14 cycles
 Normal termination of Gaussian 16 at Thu Dec 10 21:41:41 2020.

 ----------------------------------------------------------------------
 # B3LYP/6-311++G(d,p) empiricaldispersion=gd3bj scf=xqc pop=npa geom=c
 heck
 ----------------------------------------------------------------------

 -------------------------------------
 CID_105806361_JID_6115_Energie_kation
 -------------------------------------
 Structure from the checkpoint file:  "JID_6115.chk"
 Charge =  1 Multiplicity = 2

 SCF Done:  E(UB3LYP) =  -677.233415621     A.U. after   22 cycles
 Normal termination of Gaussian 16 at Thu Dec 10 21:55:01 2020.
 Gaussian 16:  ES64L-G16RevA.03 25-Dec-2016

 ----------------------------------------------------------------------
 # B3LYP/6-311++G(d,p) empiricaldispersion=gd3bj scf=xqc pop=npa geom=c
 heck
 ----------------------------------------------------------------------

 ------------------------------------
 CID_105806361_JID_6115_Energie_anion
 ------------------------------------
 Structure from the checkpoint file:  "JID_6115.chk"
 Charge = -1 Multiplicity = 2

                         Standard orientation:
 ---------------------------------------------------------------------
 Center     Atomic      Atomic             Coordinates (Angstroms)
 Number     Number       Type             X           Y           Z
 ---------------------------------------------------------------------
      1          6           0       -3.768043   -1.685485   -0.134321
      2          6           0       -2.325991   -2.074669    0.193939
      3          6           0       -1.273952   -1.115494   -0.400296
      4          6           0       -1.521439    0.294836    0.069136
      5          6           0       -1.536744    0.896966    1.294492
      6          6           0       -1.874470    2.275541    1.078360
      7          6           0       -2.054944    2.415030   -0.262747
      8          8           0       -1.851648    1.217721   -0.891170
      9          7           0        0.055151   -1.670465   -0.140264
     10          6           0        1.184762   -1.219340   -0.953237
     11          6           0        1.927906    0.073895   -0.610485
     12          6           0        2.573903    0.763366   -1.796522
     13          6           0        1.374671    1.380566   -1.121289
     14          6           0        2.747134    0.130213    0.686583
     15          6           0        1.903530    0.219899    1.966910
     16          6           0        3.766183   -1.013671    0.777903
     17          1           0       -4.018863   -0.702373    0.277588
     18          1           0       -4.472802   -2.414639    0.279575
     19          1           0       -3.927661   -1.643772   -1.218585
     20          1           0       -2.190893   -2.109063    1.284619
     21          1           0       -2.098760   -3.077864   -0.182024
     22          1           0       -1.402295   -1.103970   -1.490073
     23          1           0       -1.332094    0.419549    2.242351
     24          1           0       -1.971774    3.050652    1.825657
     25          1           0       -2.316803    3.242759   -0.903153
     26          1           0        0.268539   -1.640583    0.850867
     27          1           0        1.918605   -2.036522   -0.963192
     28          1           0        0.814099   -1.140204   -1.982382
     29          1           0        3.547015    1.225081   -1.649286
     30          1           0        2.437957    0.329035   -2.784015
     31          1           0        0.428329    1.369823   -1.649686
     32          1           0        1.524880    2.267367   -0.510584
     33          1           0        3.318599    1.068202    0.631333
     34          1           0        1.121274    0.977675    1.871472
     35          1           0        1.421592   -0.734473    2.211450
     36          1           0        2.537610    0.479136    2.823173
     37          1           0        4.435569   -0.869931    1.633832
     38          1           0        3.270977   -1.983041    0.910363
     39          1           0        4.378976   -1.071269   -0.128643
 ---------------------------------------------------------------------

 SCF Done:  E(UB3LYP) =  -677.496239769     A.U. after   33 cycles
 SCF Done:  E(UB3LYP) =  -677.496239768     a.u. after    1 cycles

 The electronic state is 2-A.
 Alpha  occ. eigenvalues --  -19.09520 -14.20457 -10.12806 -10.12568 -10.11973
 Alpha  occ. eigenvalues --  -10.10234 -10.08553 -10.08053 -10.07861 -10.07739
 Alpha  occ. eigenvalues --  -10.07509 -10.07395 -10.07028 -10.06919 -10.06272
 Alpha  occ. eigenvalues --  -10.05787  -1.01757  -0.82005  -0.77177  -0.70785
 Alpha  occ. eigenvalues --   -0.69827  -0.68531  -0.65326  -0.60803  -0.58874
 Alpha  occ. eigenvalues --   -0.55766  -0.52062  -0.51550  -0.50641  -0.49959
 Alpha  occ. eigenvalues --   -0.46389  -0.44965  -0.43700  -0.39437  -0.39327
 Alpha  occ. eigenvalues --   -0.38121  -0.36921  -0.35421  -0.35119  -0.33903
 Alpha  occ. eigenvalues --   -0.33328  -0.32301  -0.31695  -0.31352  -0.31029
 Alpha  occ. eigenvalues --   -0.29915  -0.29356  -0.28469  -0.27738  -0.26978
 Alpha  occ. eigenvalues --   -0.26397  -0.25542  -0.25220  -0.24732  -0.24477
 Alpha  occ. eigenvalues --   -0.22917  -0.19760  -0.19021  -0.18156  -0.14218
 Alpha  occ. eigenvalues --   -0.12349   0.04339
 Alpha virt. eigenvalues --    0.06140   0.06450   0.06799   0.07904   0.08201
 Alpha virt. eigenvalues --    0.08521   0.08694   0.09094   0.09241   0.10211
 Alpha virt. eigenvalues --    0.10655   0.10897   0.11136   0.11547   0.12175

  Beta  occ. eigenvalues --  -19.09519 -14.20450 -10.12808 -10.12554 -10.11970
  Beta  occ. eigenvalues --  -10.10226 -10.08553 -10.08042 -10.07846 -10.07726
  Beta  occ. eigenvalues --  -10.07499 -10.07381 -10.07020 -10.06901 -10.06247
  Beta  occ. eigenvalues --  -10.05759  -1.01751  -0.81993  -0.77165  -0.70767
  Beta  occ. eigenvalues --   -0.69808  -0.68502  -0.65305  -0.60782  -0.58823
  Beta  occ. eigenvalues --   -0.55737  -0.52025  -0.51504  -0.50613  -0.49925
  Beta  occ. eigenvalues --   -0.46361  -0.44936  -0.43667  -0.39416  -0.39301
  Beta  occ. eigenvalues --   -0.38099  -0.36899  -0.35394  -0.35101  -0.33876
  Beta  occ. eigenvalues --   -0.33301  -0.32275  -0.31665  -0.31324  -0.31000
  Beta  occ. eigenvalues --   -0.29891  -0.29332  -0.28449  -0.27714  -0.26960
  Beta  occ. eigenvalues --   -0.26372  -0.25520  -0.25187  -0.24707  -0.24454
  Beta  occ. eigenvalues --   -0.22889  -0.19745  -0.19007  -0.18144  -0.14208
  Beta  occ. eigenvalues --   -0.12339
  Beta virt. eigenvalues --    0.06259   0.06815   0.07241   0.07323   0.08292
  Beta virt. eigenvalues --    0.08644   0.08926   0.09128   0.09216   0.09538
  Beta virt. eigenvalues --    0.10559   0.10905   0.11143   0.11441   0.11795

 Mulliken charges and spin densities:
               1          2
     1  C   -0.051887  -0.646890
     2  C   -0.515338   0.571519
     3  C   -0.233042  -1.345712
     4  C    0.061414   0.357663
     5  C   -0.441686   0.397791
     6  C    1.211355  -1.521243
     7  C    0.286288  -0.271280
     8  O    0.057720   0.010763
     9  N    0.124549   0.101844
    10  C   -0.077054  -0.620197
    11  C   -0.003853   0.883680
    12  C    1.017986  -1.406439
    13  C   -0.071404  -0.222692
    14  C   -1.363811   1.317262
    15  C    0.636874  -1.273058
    16  C    0.407929  -1.088778
    17  H    0.113211   0.041990
    18  H   -0.309796   0.457733
    19  H    0.066960   0.053410
    20  H   -0.070945   0.201537
    21  H   -0.011743   0.185478
    22  H    0.086114   0.118584
    23  H   -0.233389   0.411372
    24  H   -0.842939   1.031896
    25  H   -0.537402   0.712868
    26  H    0.344957  -0.097405
    27  H    0.142670   0.057724
    28  H    0.021258   0.086779
    29  H   -0.029875   0.181887
    30  H    0.060543   0.076052
    31  H    0.206671  -0.054773
    32  H    0.082947   0.088662
    33  H   -0.313603   0.474289
    34  H    0.170660   0.028285
    35  H   -0.132876   0.248884
    36  H   -0.535066   0.687768
    37  H   -0.200793   0.357307
    38  H   -0.134546   0.277510
    39  H    0.010941   0.127929
 Sum of Mulliken charges =  -1.00000   1.00000

 Dipole moment (field-independent basis, Debye):
    X=             -0.4295    Y=             -2.5795    Z=             -4.6779  Tot=              5.3593
 Quadrupole moment (field-independent basis, Debye-Ang):
   XX=           -177.5386   YY=           -157.2898   ZZ=           -145.8444
   XY=              0.7999   XZ=             -4.4605   YZ=             -4.3974

 Summary of Natural Population Analysis:

                                       Natural Population
                Natural  -----------------------------------------------
    Atom  No    Charge         Core      Valence    Rydberg      Total
 -----------------------------------------------------------------------
      C    1   -0.28736      0.99966     2.28342    0.00428     3.28736
      C    2   -0.18402      0.99962     2.17521    0.00919     3.18402
      C    3   -0.02960      0.99953     2.01721    0.01286     3.02960
      C    4    0.14812      0.99943     1.83416    0.01828     2.85188
      C    5   -0.15256      0.99947     2.14318    0.00991     3.15256
      C    6   -0.14436      0.99956     2.13490    0.00991     3.14436
      C    7    0.05331      0.99950     1.93266    0.01453     2.94669
      O    8   -0.24020      0.99986     3.23236    0.00799     4.24020
      N    9   -0.33995      0.99974     2.82915    0.01106     3.83995
      C   10   -0.08119      0.99956     2.06946    0.01218     3.08119
      C   11   -0.04818      0.99951     2.03553    0.01315     3.04818
      C   12   -0.19522      0.99959     2.18704    0.00860     3.19522
      C   13   -0.19651      0.99957     2.18727    0.00967     3.19651
      C   14   -0.10935      0.99957     2.09780    0.01198     3.10935
      C   15   -0.28164      0.99964     2.27558    0.00642     3.28164
      C   16   -0.28507      0.99965     2.27942    0.00601     3.28507
      H   17    0.10233      0.00000     0.39654    0.00113     0.39767
      H   18    0.09925      0.00000     0.39978    0.00096     0.40075
      H   19    0.09478      0.00000     0.40416    0.00106     0.40522
      H   20    0.09509      0.00000     0.40365    0.00126     0.40491
      H   21    0.10069      0.00000     0.39798    0.00133     0.39931
      H   22    0.09958      0.00000     0.39847    0.00195     0.40042
      H   23    0.11205      0.00000     0.38646    0.00149     0.38795
      H   24    0.11141      0.00000     0.38690    0.00169     0.38859
      H   25    0.09655      0.00000     0.40212    0.00133     0.40345
      H   26    0.17595      0.00000     0.32045    0.00360     0.32405
      H   27    0.09560      0.00000     0.40325    0.00114     0.40440
      H   28    0.09275      0.00000     0.40598    0.00127     0.40725
      H   29    0.10172      0.00000     0.39730    0.00099     0.39828
      H   30    0.09807      0.00000     0.40109    0.00084     0.40193
      H   31    0.10701      0.00000     0.39153    0.00145     0.39299
      H   32    0.10487      0.00000     0.39371    0.00142     0.39513
      H   33    0.09539      0.00000     0.40241    0.00220     0.40461
      H   34    0.10620      0.00000     0.39206    0.00174     0.39380
      H   35    0.08754      0.00000     0.41104    0.00142     0.41246
      H   36    0.10093      0.00000     0.39790    0.00117     0.39907
      H   37    0.10142      0.00000     0.39768    0.00090     0.39858
      H   38    0.09518      0.00000     0.40387    0.00095     0.40482
      H   39    0.09940      0.00000     0.39963    0.00097     0.40060
 =======================================================================
   * Total *   -0.00000     15.99345    44.80827    0.19828    61.00000

 Normal termination of Gaussian 16 at Thu Dec 10 22:17:01 2020.
