 Gaussian 16, Revision A.03,

 -----------------------------------------------------------
 # opt freq B3LYP/6-31G(d) empiricaldispersion=gd3bj scf=xqc
 -----------------------------------------------------------

 ------------------------------
 CID_83878265_JID_4495_neutraal
 ------------------------------
 Symbolic Z-matrix:
 Charge =  0 Multiplicity = 1

 SCF Done:  E(RB3LYP) =  -699.050094051     A.U. after   15 cycles
 SCF Done:  E(RB3LYP) =  -699.059436456     A.U. after   13 cycles
 SCF Done:  E(RB3LYP) =  -699.061311385     A.U. after   12 cycles
 SCF Done:  E(RB3LYP) =  -699.061716558     A.U. after   12 cycles
 SCF Done:  E(RB3LYP) =  -699.061534125     A.U. after   12 cycles
 SCF Done:  E(RB3LYP) =  -699.061838248     A.U. after   12 cycles
 SCF Done:  E(RB3LYP) =  -699.061852696     A.U. after   10 cycles
 SCF Done:  E(RB3LYP) =  -699.061864944     A.U. after    9 cycles
 SCF Done:  E(RB3LYP) =  -699.061868185     A.U. after    8 cycles
 SCF Done:  E(RB3LYP) =  -699.061869404     A.U. after    8 cycles
 SCF Done:  E(RB3LYP) =  -699.061869593     A.U. after    8 cycles
 SCF Done:  E(RB3LYP) =  -699.061869659     A.U. after    7 cycles
 SCF Done:  E(RB3LYP) =  -699.061869690     A.U. after    7 cycles
 Optimization completed.
    -- Stationary point found.
 Normal termination of Gaussian 16 at Thu Dec 10 09:53:03 2020.

 --------------------------------------------------------------------
 #N Geom=AllCheck Guess=TCheck SCRF=Check GenChk RB3LYP/6-31G(d) Freq
 --------------------------------------------------------------------

 Structure from the checkpoint file:  "JID_4495.chk"
 ------------------------------
 CID_83878265_JID_4495_neutraal
 ------------------------------
 Charge =  0 Multiplicity = 1

 SCF Done:  E(RB3LYP) =  -699.061869690     A.U. after    1 cycles

  Exact polarizability: 161.760   3.469 121.930  -0.001  -0.001  45.747
 Approx polarizability: 231.962  20.331 237.408  -0.002  -0.009  71.898

                      1                      2                      3
                      A                      A                      A
 Frequencies --     41.0193                63.4702               108.0197
 Red. masses --     11.9198                 7.1107                 4.3126
 Frc consts  --      0.0118                 0.0169                 0.0296
 IR Inten    --      0.1829                 5.2012                 0.1023

                      4                      5                      6
                      A                      A                      A
 Frequencies --    171.9701               193.1663               221.7855
 Red. masses --      5.9579                 1.1501                 4.1920
 Frc consts  --      0.1038                 0.0253                 0.1215
 IR Inten    --      2.3252                 0.2446                 1.6596

                      7                      8                      9
                      A                      A                      A
 Frequencies --    258.2017               275.0774               309.3996
 Red. masses --      4.8520                 4.2818                 5.1739
 Frc consts  --      0.1906                 0.1909                 0.2918
 IR Inten    --      2.3803                 3.3925                 1.3472

                     10                     11                     12
                      A                      A                      A
 Frequencies --    339.4292               379.5401               434.5048
 Red. masses --      9.7290                 6.3717                 6.8395
 Frc consts  --      0.6604                 0.5408                 0.7608
 IR Inten    --      1.5176                 1.2296                 1.9075

                     13                     14                     15
                      A                      A                      A
 Frequencies --    477.7665               516.1596               523.6630
 Red. masses --      2.0224                 5.9063                 1.5181
 Frc consts  --      0.2720                 0.9271                 0.2453
 IR Inten    --     16.6507                 1.6764               116.7130

                     16                     17                     18
                      A                      A                      A
 Frequencies --    588.1891               600.2487               626.9521
 Red. masses --      1.2749                 6.2207                 2.8674
 Frc consts  --      0.2599                 1.3206                 0.6641
 IR Inten    --     74.6821                36.9652                 3.4631

                     19                     20                     21
                      A                      A                      A
 Frequencies --    642.1460               676.2869               707.1569
 Red. masses --      5.4869                 4.8588                 6.3758
 Frc consts  --      1.3330                 1.3093                 1.8785
 IR Inten    --     29.8109                42.8580                18.7599

                     22                     23                     24
                      A                      A                      A
 Frequencies --    743.3124               748.4667               764.3726
 Red. masses --      6.4560                 2.2479                 2.6260
 Frc consts  --      2.1016                 0.7419                 0.9040
 IR Inten    --      1.3991                 7.3196                13.0674

                     25                     26                     27
                      A                      A                      A
 Frequencies --    804.4059               807.8110               898.0457
 Red. masses --      9.5164                 7.1551                 6.2910
 Frc consts  --      3.6280                 2.7510                 2.9893
 IR Inten    --     48.5000                10.4464                 6.5173

                     28                     29                     30
                      A                      A                      A
 Frequencies --    992.9771              1026.9586              1084.8285
 Red. masses --      1.4378                 1.5281                 1.4435
 Frc consts  --      0.8353                 0.9495                 1.0009
 IR Inten    --      2.5719                 3.2117                 2.2007

                     31                     32                     33
                      A                      A                      A
 Frequencies --   1091.3811              1106.3739              1134.8571
 Red. masses --      1.6467                 4.7136                 4.5314
 Frc consts  --      1.1556                 3.3995                 3.4385
 IR Inten    --     22.9325               227.8214                99.5350

                     34                     35                     36
                      A                      A                      A
 Frequencies --   1190.0769              1235.3542              1272.2455
 Red. masses --      5.6748                 2.1751                 1.7969
 Frc consts  --      4.7354                 1.9558                 1.7136
 IR Inten    --     60.7277               144.1310                 6.9828

                     37                     38                     39
                      A                      A                      A
 Frequencies --   1305.0743              1347.0977              1378.0129
 Red. masses --      3.7904                 3.6888                 1.8156
 Frc consts  --      3.8037                 3.9440                 2.0313
 IR Inten    --     13.3684                25.8808               105.5727

                     40                     41                     42
                      A                      A                      A
 Frequencies --   1400.3951              1440.2900              1456.7166
 Red. masses --      4.7134                 2.4606                 1.3147
 Frc consts  --      5.4461                 3.0074                 1.6437
 IR Inten    --     65.6340                43.1234                 1.5268

                     43                     44                     45
                      A                      A                      A
 Frequencies --   1473.8598              1499.0889              1511.8415
 Red. masses --      5.2344                 1.0425                 1.1435
 Frc consts  --      6.6993                 1.3803                 1.5399
 IR Inten    --     70.5849                 7.0047                20.3935

                     46                     47                     48
                      A                      A                      A
 Frequencies --   1584.0119              1658.0094              1673.8874
 Red. masses --      4.5647                 7.6998                 5.5980
 Frc consts  --      6.7481                12.4711                 9.2413
 IR Inten    --    539.4533               269.7232                18.6628

                     49                     50                     51
                      A                      A                      A
 Frequencies --   1782.3517              1850.8795              3072.9491
 Red. masses --     11.2598                10.5100                 1.0363
 Frc consts  --     21.0751                21.2133                 5.7655
 IR Inten    --    102.6985               558.0254                18.5158

                     52                     53                     54
                      A                      A                      A
 Frequencies --   3147.1539              3148.4374              3228.3586
 Red. masses --      1.1024                 1.1017                 1.0911
 Frc consts  --      6.4333                 6.4344                 6.6999
 IR Inten    --     13.3665                 3.4644                 2.4904

                     55                     56                     57
                      A                      A                      A
 Frequencies --   3308.8216              3670.8896              3706.7849
 Red. masses --      1.0992                 1.0811                 1.0642
 Frc consts  --      7.0907                 8.5830                 8.6155
 IR Inten    --      1.4247               138.5200                70.6197

 - Thermochemistry -
 -------------------
 Temperature   298.150 Kelvin.  Pressure   1.00000 Atm.
 Atom     1 has atomic number  6 and mass  12.00000

 Molecular mass:   193.04874 amu.
 Principal axes and moments of inertia in atomic units:
                           1         2         3
     Eigenvalues --  1267.969053385.407144642.30647
           X            0.99962  -0.02754   0.00000
           Y            0.02754   0.99962   0.00001
           Z           -0.00000  -0.00001   1.00000
 This molecule is an asymmetric top.
 Rotational symmetry number  1.
 Warning -- assumption of classical behavior for rotation
           may cause significant error
 Rotational temperatures (Kelvin)      0.06831     0.02558     0.01866
 Rotational constants (GHZ):           1.42333     0.53309     0.38876
 Zero-point vibrational energy     404939.1 (Joules/Mol)
                                   96.78277 (Kcal/Mol)
 Warning -- explicit consideration of  17 degrees of freedom as
           vibrations may cause significant error
 Vibrational temperatures:     59.02    91.32   155.42   247.43   277.92
          (Kelvin)            319.10   371.49   395.77   445.16   488.36
                              546.07   625.16   687.40   742.64   753.43
                              846.27   863.62   902.04   923.90   973.03
                             1017.44  1069.46  1076.88  1099.76  1157.36
                             1162.26  1292.09  1428.67  1477.56  1560.83
                             1570.25  1591.83  1632.81  1712.26  1777.40
                             1830.48  1877.71  1938.17  1982.65  2014.86
                             2072.26  2095.89  2120.56  2156.85  2175.20
                             2279.04  2385.51  2408.35  2564.41  2663.00
                             4421.29  4528.05  4529.90  4644.89  4760.66
                             5281.59  5333.24

 Zero-point correction=                           0.154233 (Hartree/Particle)
 Thermal correction to Energy=                    0.165746
 Thermal correction to Enthalpy=                  0.166690
 Thermal correction to Gibbs Free Energy=         0.116112
 Sum of electronic and zero-point Energies=           -698.907637
 Sum of electronic and thermal Energies=              -698.896124
 Sum of electronic and thermal Enthalpies=            -698.895179
 Sum of electronic and thermal Free Energies=         -698.945758

                     E (Thermal)             CV                S
                      KCal/Mol        Cal/Mol-Kelvin    Cal/Mol-Kelvin
 Total                  104.007             43.898            106.451
 Electronic               0.000              0.000              0.000
 Translational            0.889              2.981             41.679
 Rotational               0.889              2.981             31.367
 Vibrational            102.230             37.936             33.406
 Vibration     1          0.594              1.981              5.209
 Vibration     2          0.597              1.972              4.346
 Vibration     3          0.606              1.943              3.304
 Vibration     4          0.626              1.877              2.414
 Vibration     5          0.635              1.849              2.197
 Vibration     6          0.648              1.808              1.944
 Vibration     7          0.667              1.749              1.674
 Vibration     8          0.677              1.719              1.564
 Vibration     9          0.699              1.656              1.366
 Vibration    10          0.719              1.597              1.215
 Vibration    11          0.750              1.514              1.041
 Vibration    12          0.795              1.395              0.844
 Vibration    13          0.834              1.299              0.716
 Vibration    14          0.871              1.214              0.619
 Vibration    15          0.879              1.198              0.602
 Vibration    16          0.945              1.057              0.470
 Vibration    17          0.958              1.031              0.449

                           ! Non-Optimized Parameters !
 Normal termination of Gaussian 16 at Thu Dec 10 09:58:15 2020.

 ----------------------------------------------------------------------
 # B3LYP/6-311++G(d,p) empiricaldispersion=gd3bj scf=xqc pop=npa geom=c
 heck
 ----------------------------------------------------------------------

 --------------------------------------
 CID_83878265_JID_4495_Energie_neutraal
 --------------------------------------
 Structure from the checkpoint file:  "JID_4495.chk"
 Charge =  0 Multiplicity = 1

 SCF Done:  E(RB3LYP) =  -699.265819543     A.U. after   15 cycles
 Normal termination of Gaussian 16 at Thu Dec 10 09:59:59 2020.

 ----------------------------------------------------------------------
 # B3LYP/6-311++G(d,p) empiricaldispersion=gd3bj scf=xqc pop=npa geom=c
 heck
 ----------------------------------------------------------------------

 ------------------------------------
 CID_83878265_JID_4495_Energie_kation
 ------------------------------------
 Structure from the checkpoint file:  "JID_4495.chk"
 Charge =  1 Multiplicity = 2

 SCF Done:  E(UB3LYP) =  -698.968047988     A.U. after   22 cycles
 Normal termination of Gaussian 16 at Thu Dec 10 10:03:35 2020.
 Gaussian 16:  ES64L-G16RevA.03 25-Dec-2016

 ----------------------------------------------------------------------
 # B3LYP/6-311++G(d,p) empiricaldispersion=gd3bj scf=xqc pop=npa geom=c
 heck
 ----------------------------------------------------------------------

 -----------------------------------
 CID_83878265_JID_4495_Energie_anion
 -----------------------------------
 Structure from the checkpoint file:  "JID_4495.chk"
 Charge = -1 Multiplicity = 2

                         Standard orientation:
 ---------------------------------------------------------------------
 Center     Atomic      Atomic             Coordinates (Angstroms)
 Number     Number       Type             X           Y           Z
 ---------------------------------------------------------------------
      1          6           0       -2.590561    2.108659    0.000274
      2          6           0       -2.309585    0.644180    0.000069
      3          6           0       -3.177056   -0.401779   -0.000154
      4          7           0       -2.441597   -1.584011   -0.000162
      5          6           0       -1.116728   -1.293391   -0.000119
      6          7           0       -0.117189   -2.157604   -0.000262
      7          6           0        1.094316   -1.573696   -0.000167
      8          6           0        1.349773   -0.203104    0.000013
      9          6           0        0.260024    0.755987    0.000235
     10          8           0        0.280208    1.972120    0.000544
     11          7           0       -1.020658    0.075919    0.000091
     12          6           0        2.734898    0.298251   -0.000215
     13          8           0        3.091173    1.457164   -0.001607
     14          8           0        3.650434   -0.722798    0.001341
     15          1           0       -2.159414    2.598037    0.877068
     16          1           0       -3.674140    2.261358    0.000579
     17          1           0       -2.159899    2.598208   -0.876672
     18          1           0       -4.255185   -0.401459   -0.000047
     19          1           0       -2.794067   -2.529291   -0.000856
     20          1           0        1.938448   -2.254990   -0.000285
     21          1           0        4.515365   -0.274525    0.000704
 ---------------------------------------------------------------------

 SCF Done:  E(UB3LYP) =  -699.265125324     A.U. after   33 cycles
 SCF Done:  E(UB3LYP) =  -699.265125324     a.u. after    1 cycles

 The electronic state is 2-A.
 Alpha  occ. eigenvalues --  -19.00584 -18.93435 -18.92966 -14.22884 -14.22447
 Alpha  occ. eigenvalues --  -14.14452 -10.12414 -10.12128 -10.11501 -10.09583
 Alpha  occ. eigenvalues --  -10.08845 -10.06327 -10.01519 -10.00239  -0.93994
 Alpha  occ. eigenvalues --   -0.91972  -0.87919  -0.84428  -0.78631  -0.76674
 Alpha  occ. eigenvalues --   -0.65942  -0.62310  -0.58781  -0.53756  -0.50081
 Alpha  occ. eigenvalues --   -0.47479  -0.45081  -0.39933  -0.38776  -0.35938
 Alpha  occ. eigenvalues --   -0.35088  -0.34098  -0.32081  -0.30681  -0.30245
 Alpha  occ. eigenvalues --   -0.29901  -0.28636  -0.28499  -0.27233  -0.25122
 Alpha  occ. eigenvalues --   -0.24336  -0.24004  -0.20499  -0.17487  -0.16192
 Alpha  occ. eigenvalues --   -0.13679  -0.11995  -0.11770  -0.09637  -0.06526
 Alpha  occ. eigenvalues --    0.06300
 Alpha virt. eigenvalues --    0.07250   0.08915   0.10393   0.10950   0.11547
 Alpha virt. eigenvalues --    0.12914   0.13238   0.13609   0.14907   0.16058
 Alpha virt. eigenvalues --    0.16419   0.17102   0.17492   0.17593   0.17968

  Beta  occ. eigenvalues --  -19.00578 -18.93441 -18.92750 -14.22660 -14.22242
  Beta  occ. eigenvalues --  -14.14614 -10.12404 -10.11964 -10.11096 -10.09632
  Beta  occ. eigenvalues --  -10.08805 -10.06325 -10.00786 -10.00209  -0.93838
  Beta  occ. eigenvalues --   -0.91642  -0.87818  -0.84139  -0.78250  -0.76330
  Beta  occ. eigenvalues --   -0.65845  -0.61783  -0.58657  -0.53447  -0.49519
  Beta  occ. eigenvalues --   -0.46893  -0.44960  -0.39768  -0.38453  -0.35770
  Beta  occ. eigenvalues --   -0.34294  -0.33869  -0.31946  -0.30570  -0.30129
  Beta  occ. eigenvalues --   -0.29562  -0.28447  -0.27852  -0.27121  -0.24637
  Beta  occ. eigenvalues --   -0.24020  -0.23810  -0.19255  -0.16646  -0.15475
  Beta  occ. eigenvalues --   -0.13637  -0.11697  -0.10174  -0.09519  -0.05977
  Beta virt. eigenvalues --    0.07210   0.08882   0.10360   0.10913   0.11636
  Beta virt. eigenvalues --    0.12872   0.13226   0.13479   0.13803   0.14887
  Beta virt. eigenvalues --    0.16038   0.17056   0.17068   0.17573   0.17762

 Mulliken charges and spin densities:
               1          2
     1  C   -0.688932   0.013471
     2  C    0.274556  -0.029600
     3  C   -0.166530   0.061977
     4  N   -0.265597   0.070128
     5  C   -0.079708   0.242214
     6  N   -0.209246  -0.113964
     7  C    0.105691   0.529707
     8  C    0.315705   0.025029
     9  C   -0.673653   0.005654
    10  O   -0.358129  -0.000051
    11  N   -0.021814   0.061076
    12  C    0.040609   0.113506
    13  O   -0.398260   0.074024
    14  O   -0.211691   0.001212
    15  H    0.180139  -0.000851
    16  H    0.103745  -0.000433
    17  H    0.180148  -0.000891
    18  H    0.132344  -0.003680
    19  H    0.307392  -0.005211
    20  H    0.182240  -0.042682
    21  H    0.250991  -0.000637
 Sum of Mulliken charges =  -1.00000   1.00000

 Dipole moment (field-independent basis, Debye):
    X=             -6.8721    Y=             -1.6149    Z=              0.0009  Tot=              7.0593
 Quadrupole moment (field-independent basis, Debye-Ang):
   XX=            -94.0560   YY=           -106.0249   ZZ=            -86.5657
   XY=             -3.4912   XZ=              0.0060   YZ=              0.0083

 Summary of Natural Population Analysis:

                                       Natural Population
                Natural  -----------------------------------------------
    Atom  No    Charge         Core      Valence    Rydberg      Total
 -----------------------------------------------------------------------
      C    1   -0.29623      0.99963     2.29187    0.00473     3.29623
      C    2    0.06287      0.99954     1.92799    0.00960     2.93713
      C    3   -0.03123      0.99951     2.02102    0.01070     3.03123
      N    4   -0.25702      0.99965     2.74935    0.00802     3.75702
      C    5    0.36826      0.99962     1.61682    0.01530     2.63174
      N    6   -0.32232      0.99968     2.81087    0.01177     3.82232
      C    7    0.19951      0.99959     1.78637    0.01453     2.80049
      C    8   -0.18290      0.99943     2.17449    0.00899     3.18290
      C    9    0.33775      0.99962     1.64154    0.02109     2.66225
      O   10   -0.32714      0.99987     3.32077    0.00649     4.32714
      N   11   -0.21042      0.99957     2.70044    0.01041     3.71042
      C   12    0.41214      0.99967     1.56425    0.02394     2.58786
      O   13   -0.30507      0.99987     3.29796    0.00724     4.30507
      O   14   -0.36389      0.99988     3.35794    0.00606     4.36389
      H   15    0.11146      0.00000     0.38733    0.00121     0.38854
      H   16    0.09237      0.00000     0.40660    0.00103     0.40763
      H   17    0.11144      0.00000     0.38735    0.00121     0.38856
      H   18    0.09597      0.00000     0.40316    0.00087     0.40403
      H   19    0.19687      0.00000     0.30098    0.00215     0.30313
      H   20    0.08195      0.00000     0.41672    0.00132     0.41805
      H   21    0.22562      0.00000     0.26803    0.00635     0.27438
 =======================================================================
   * Total *   -0.00000     13.99514    35.83187    0.17299    50.00000

 Normal termination of Gaussian 16 at Thu Dec 10 10:09:15 2020.
