 Gaussian 16, Revision A.03,

 -----------------------------------------------------------
 # opt freq B3LYP/6-31G(d) empiricaldispersion=gd3bj scf=xqc
 -----------------------------------------------------------

 ------------------------------
 CID_10849813_JID_9576_neutraal
 ------------------------------
 Symbolic Z-matrix:
 Charge =  0 Multiplicity = 1

 SCF Done:  E(RB3LYP) =  -1167.96271706     A.U. after   16 cycles
 SCF Done:  E(RB3LYP) =  -1167.96783999     A.U. after   14 cycles
 SCF Done:  E(RB3LYP) =  -1167.97041867     A.U. after   15 cycles
 SCF Done:  E(RB3LYP) =  -1167.97172501     A.U. after   17 cycles
 SCF Done:  E(RB3LYP) =  -1167.97325903     A.U. after   13 cycles
 SCF Done:  E(RB3LYP) =  -1167.97396172     A.U. after   13 cycles
 SCF Done:  E(RB3LYP) =  -1167.97411504     A.U. after   13 cycles
 SCF Done:  E(RB3LYP) =  -1167.97414647     A.U. after   12 cycles
 SCF Done:  E(RB3LYP) =  -1167.97418152     A.U. after   11 cycles
 SCF Done:  E(RB3LYP) =  -1167.97420291     A.U. after   11 cycles
 SCF Done:  E(RB3LYP) =  -1167.97421539     A.U. after    9 cycles
 SCF Done:  E(RB3LYP) =  -1167.97421662     A.U. after    9 cycles
 SCF Done:  E(RB3LYP) =  -1167.97421691     A.U. after    8 cycles
 SCF Done:  E(RB3LYP) =  -1167.97421696     A.U. after    7 cycles
 SCF Done:  E(RB3LYP) =  -1167.97421697     A.U. after    6 cycles
 Optimization completed.
    -- Stationary point found.
 Normal termination of Gaussian 16 at Sun Dec 13 16:20:43 2020.

 --------------------------------------------------------------------
 #N Geom=AllCheck Guess=TCheck SCRF=Check GenChk RB3LYP/6-31G(d) Freq
 --------------------------------------------------------------------

 Structure from the checkpoint file:  "JID_9576.chk"
 ------------------------------
 CID_10849813_JID_9576_neutraal
 ------------------------------
 Charge =  0 Multiplicity = 1

 SCF Done:  E(RB3LYP) =  -1167.97421697     A.U. after    1 cycles

  Exact polarizability: 315.587  -4.491 169.849 -25.498  -5.908 147.936
 Approx polarizability: 408.806 -20.089 270.351 -66.521  -3.249 264.768

                      1                      2                      3
                      A                      A                      A
 Frequencies --     19.9397                21.1051                28.5325
 Red. masses --      3.6986                 5.0139                 1.3673
 Frc consts  --      0.0009                 0.0013                 0.0007
 IR Inten    --      0.5618                 0.1070                 0.3976

                      4                      5                      6
                      A                      A                      A
 Frequencies --     34.2221                55.6920                85.0651
 Red. masses --      1.9526                 4.4653                 5.5864
 Frc consts  --      0.0013                 0.0082                 0.0238
 IR Inten    --      0.1048                 0.5217                 2.8299

                      7                      8                      9
                      A                      A                      A
 Frequencies --     96.7295               104.3680               170.4670
 Red. masses --      3.9764                 3.5800                 5.3630
 Frc consts  --      0.0219                 0.0230                 0.0918
 IR Inten    --      0.3209                 3.6490                 3.8773

                     10                     11                     12
                      A                      A                      A
 Frequencies --    182.8162               197.9277               206.9981
 Red. masses --      3.0742                 3.5721                 5.2433
 Frc consts  --      0.0605                 0.0825                 0.1324
 IR Inten    --      0.4093                 2.1020                 3.6161

                     13                     14                     15
                      A                      A                      A
 Frequencies --    246.4287               263.3898               287.0068
 Red. masses --      2.1034                 1.8205                 4.7396
 Frc consts  --      0.0753                 0.0744                 0.2300
 IR Inten    --      0.8281                 2.4040                 8.4377

                     16                     17                     18
                      A                      A                      A
 Frequencies --    320.2016               327.8497               359.7392
 Red. masses --      3.9094                 4.3018                 3.3898
 Frc consts  --      0.2362                 0.2724                 0.2585
 IR Inten    --      3.7741                 5.9471                 7.0829

                     19                     20                     21
                      A                      A                      A
 Frequencies --    406.1200               414.1051               420.1762
 Red. masses --      4.3791                 3.3497                 3.3110
 Frc consts  --      0.4255                 0.3384                 0.3444
 IR Inten    --      5.2674                 6.4688                 1.9379

                     22                     23                     24
                      A                      A                      A
 Frequencies --    431.2909               468.7220               495.6970
 Red. masses --      4.9307                 5.0289                 4.2502
 Frc consts  --      0.5404                 0.6510                 0.6153
 IR Inten    --      5.4370                13.2089                 7.2658

                     25                     26                     27
                      A                      A                      A
 Frequencies --    531.0140               539.9354               551.4669
 Red. masses --      3.2933                 2.7363                 4.8246
 Frc consts  --      0.5471                 0.4700                 0.8645
 IR Inten    --     20.1706                 3.6985                16.2338

                     28                     29                     30
                      A                      A                      A
 Frequencies --    622.7929               651.2887               653.9938
 Red. masses --      5.6586                 6.9157                 6.9726
 Frc consts  --      1.2931                 1.7284                 1.7571
 IR Inten    --      8.0568                 0.3415                 1.4013

                     31                     32                     33
                      A                      A                      A
 Frequencies --    716.6443               724.5573               762.6087
 Red. masses --      3.7236                 3.7430                 5.6659
 Frc consts  --      1.1267                 1.1577                 1.9414
 IR Inten    --      0.5526                 3.9551                41.7127

                     34                     35                     36
                      A                      A                      A
 Frequencies --    810.3318               813.0588               821.8716
 Red. masses --      1.9865                 2.7981                 1.8033
 Frc consts  --      0.7685                 1.0898                 0.7177
 IR Inten    --     41.8000                13.2953                53.5025

                     37                     38                     39
                      A                      A                      A
 Frequencies --    823.1198               831.3820               856.7970
 Red. masses --      1.3291                 3.5875                 1.7211
 Frc consts  --      0.5306                 1.4610                 0.7444
 IR Inten    --      5.7801                24.0319                14.6715

                     40                     41                     42
                      A                      A                      A
 Frequencies --    862.4280               885.7350               945.4130
 Red. masses --      1.2623                 4.3445                 1.3204
 Frc consts  --      0.5532                 2.0081                 0.6953
 IR Inten    --      3.2328                54.3758                 0.6161

                     43                     44                     45
                      A                      A                      A
 Frequencies --    958.4364               959.9311               984.3464
 Red. masses --      1.2887                 1.2830                 1.2952
 Frc consts  --      0.6975                 0.6966                 0.7394
 IR Inten    --      1.4425                 1.8689                 1.1398

                     46                     47                     48
                      A                      A                      A
 Frequencies --   1005.8680              1019.2136              1031.7483
 Red. masses --      1.1720                 1.4700                 2.7176
 Frc consts  --      0.6986                 0.8997                 1.7044
 IR Inten    --     26.7486                 0.9143                 0.5654

                     49                     50                     51
                      A                      A                      A
 Frequencies --   1038.5662              1063.4913              1076.1270
 Red. masses --      3.3951                 8.4641                 1.5347
 Frc consts  --      2.1576                 5.6402                 1.0472
 IR Inten    --      9.5519               127.2767                16.1678

                     52                     53                     54
                      A                      A                      A
 Frequencies --   1079.2146              1101.4787              1143.9449
 Red. masses --      6.2353                 3.4311                 1.3116
 Frc consts  --      4.2788                 2.4526                 1.0113
 IR Inten    --     61.6335                23.0042                 0.9243

                     55                     56                     57
                      A                      A                      A
 Frequencies --   1145.7318              1185.6327              1207.1562
 Red. masses --      1.3513                 1.2704                 1.2106
 Frc consts  --      1.0451                 1.0522                 1.0394
 IR Inten    --      7.9029                 0.7478                64.3312

                     58                     59                     60
                      A                      A                      A
 Frequencies --   1212.2441              1219.3207              1232.5627
 Red. masses --      1.1851                 1.3902                 1.2373
 Frc consts  --      1.0261                 1.2178                 1.1075
 IR Inten    --      5.7094                 9.3770                30.6233

                     61                     62                     63
                      A                      A                      A
 Frequencies --   1241.2638              1266.8114              1313.7051
 Red. masses --      2.9391                 2.4597                 4.2637
 Frc consts  --      2.6680                 2.3257                 4.3354
 IR Inten    --      4.4849                14.7824               323.1313

                     64                     65                     66
                      A                      A                      A
 Frequencies --   1335.9930              1336.3688              1355.7165
 Red. masses --      1.5513                 1.4081                 7.2624
 Frc consts  --      1.6314                 1.4816                 7.8644
 IR Inten    --     13.3180                 9.7112                 1.2718

                     67                     68                     69
                      A                      A                      A
 Frequencies --   1356.1491              1382.4724              1442.9334
 Red. masses --      1.9113                 2.0898                 1.2758
 Frc consts  --      2.0711                 2.3532                 1.5651
 IR Inten    --     31.7181                63.9171                 0.1868

                     70                     71                     72
                      A                      A                      A
 Frequencies --   1445.3165              1471.6364              1501.3544
 Red. masses --      2.5169                 3.0322                 1.2150
 Frc consts  --      3.0977                 3.8692                 1.6136
 IR Inten    --      8.3665                 4.7440                18.2952

                     73                     74                     75
                      A                      A                      A
 Frequencies --   1517.1922              1522.0917              1522.6526
 Red. masses --      1.0498                 1.0475                 1.0934
 Frc consts  --      1.4237                 1.4298                 1.4936
 IR Inten    --      6.0585                 6.1181                10.8777

                     76                     77                     78
                      A                      A                      A
 Frequencies --   1534.3480              1543.0086              1569.0822
 Red. masses --      1.0626                 2.3178                 2.4553
 Frc consts  --      1.4739                 3.2514                 3.5616
 IR Inten    --     59.6334                16.8002               114.6325

                     79                     80                     81
                      A                      A                      A
 Frequencies --   1624.1997              1634.2308              1659.4413
 Red. masses --      6.3602                 6.0992                 5.6030
 Frc consts  --      9.8855                 9.5973                 9.0906
 IR Inten    --      2.5756                 0.8223                 2.5910

                     82                     83                     84
                      A                      A                      A
 Frequencies --   1668.1911              1686.0354              3031.1168
 Red. masses --      5.4940                 5.8927                 1.0346
 Frc consts  --      9.0080                 9.8696                 5.6003
 IR Inten    --    248.6605                 9.4530                60.1778

                     85                     86                     87
                      A                      A                      A
 Frequencies --   3043.9019              3092.2245              3099.8500
 Red. masses --      1.0397                 1.1069                 1.0972
 Frc consts  --      5.6757                 6.2360                 6.2117
 IR Inten    --     35.1344                39.1153                19.0961

                     88                     89                     90
                      A                      A                      A
 Frequencies --   3128.4067              3145.8100              3165.0945
 Red. masses --      1.1022                 1.0879                 1.1002
 Frc consts  --      6.3554                 6.3430                 6.4936
 IR Inten    --     15.7377                 7.1774                27.6115

                     91                     92                     93
                      A                      A                      A
 Frequencies --   3177.7893              3183.1226              3187.4452
 Red. masses --      1.0870                 1.0891                 1.0890
 Frc consts  --      6.4672                 6.5018                 6.5188
 IR Inten    --     10.6742                24.2722                11.1723

                     94                     95                     96
                      A                      A                      A
 Frequencies --   3195.4233              3195.9007              3204.3082
 Red. masses --      1.0920                 1.0937                 1.0887
 Frc consts  --      6.5692                 6.5815                 6.5861
 IR Inten    --     11.4337                13.8441                 3.6279

                     97                     98                     99
                      A                      A                      A
 Frequencies --   3214.8090              3220.9319              3232.2699
 Red. masses --      1.0917                 1.0933                 1.0919
 Frc consts  --      6.6478                 6.6825                 6.7212
 IR Inten    --      6.9302                 8.9562                11.9970

 - Thermochemistry -
 -------------------
 Temperature   298.150 Kelvin.  Pressure   1.00000 Atm.
 Atom     1 has atomic number  6 and mass  12.00000

 Molecular mass:   272.08710 amu.
 Principal axes and moments of inertia in atomic units:
                           1         2         3
     Eigenvalues --  2808.83252********************
           X            0.99996   0.00835   0.00335
           Y           -0.00828   0.99976  -0.02013
           Z           -0.00352   0.02011   0.99979
 This molecule is an asymmetric top.
 Rotational symmetry number  1.
 Warning -- assumption of classical behavior for rotation
           may cause significant error
 Rotational temperatures (Kelvin)      0.03084     0.00606     0.00545
 Rotational constants (GHZ):           0.64252     0.12627     0.11355
 Zero-point vibrational energy     736676.2 (Joules/Mol)
                                  176.06984 (Kcal/Mol)
 Warning -- explicit consideration of  27 degrees of freedom as
           vibrations may cause significant error
 Vibrational temperatures:     28.69    30.37    41.05    49.24    80.13
          (Kelvin)            122.39   139.17   150.16   245.26   263.03
                              284.77   297.82   354.56   378.96   412.94
                              460.70   471.70   517.58   584.32   595.80
                              604.54   620.53   674.39   713.20   764.01
                              776.85   793.44   896.06   937.06   940.95
                             1031.09  1042.48  1097.22  1165.89  1169.81
                             1182.49  1184.29  1196.17  1232.74  1240.84
                             1274.38  1360.24  1378.98  1381.13  1416.25
                             1447.22  1466.42  1484.46  1494.27  1530.13
                             1548.31  1552.75  1584.78  1645.88  1648.45
                             1705.86  1736.83  1744.15  1754.33  1773.38
                             1785.90  1822.66  1890.13  1922.20  1922.74
                             1950.57  1951.20  1989.07  2076.06  2079.49
                             2117.36  2160.11  2182.90  2189.95  2190.76
                             2207.58  2220.05  2257.56  2336.86  2351.29
                             2387.57  2400.15  2425.83  4361.10  4379.50
                             4449.02  4459.99  4501.08  4526.12  4553.87
                             4572.13  4579.80  4586.02  4597.50  4598.19
                             4610.28  4625.39  4634.20  4650.52

 Zero-point correction=                           0.280585 (Hartree/Particle)
 Thermal correction to Energy=                    0.299028
 Thermal correction to Enthalpy=                  0.299973
 Thermal correction to Gibbs Free Energy=         0.230238
 Sum of electronic and zero-point Energies=          -1167.693632
 Sum of electronic and thermal Energies=             -1167.675189
 Sum of electronic and thermal Enthalpies=           -1167.674244
 Sum of electronic and thermal Free Energies=        -1167.743979

                     E (Thermal)             CV                S
                      KCal/Mol        Cal/Mol-Kelvin    Cal/Mol-Kelvin
 Total                  187.643             68.619            146.768
 Electronic               0.000              0.000              0.000
 Translational            0.889              2.981             42.702
 Rotational               0.889              2.981             34.811
 Vibrational            185.866             62.658             69.255
 Vibration     1          0.593              1.986              6.640
 Vibration     2          0.593              1.985              6.527
 Vibration     3          0.593              1.984              5.929
 Vibration     4          0.594              1.983              5.568
 Vibration     5          0.596              1.975              4.604
 Vibration     6          0.601              1.960              3.770
 Vibration     7          0.603              1.952              3.519
 Vibration     8          0.605              1.946              3.371
 Vibration     9          0.626              1.879              2.430
 Vibration    10          0.630              1.863              2.299
 Vibration    11          0.637              1.843              2.152
 Vibration    12          0.641              1.830              2.070
 Vibration    13          0.661              1.769              1.756
 Vibration    14          0.670              1.740              1.639
 Vibration    15          0.684              1.698              1.492
 Vibration    16          0.706              1.635              1.309
 Vibration    17          0.711              1.620              1.271
 Vibration    18          0.734              1.555              1.123
 Vibration    19          0.771              1.457              0.940
 Vibration    20          0.778              1.440              0.912
 Vibration    21          0.783              1.426              0.891
 Vibration    22          0.792              1.402              0.854
 Vibration    23          0.826              1.319              0.741
 Vibration    24          0.851              1.260              0.669
 Vibration    25          0.886              1.181              0.585
 Vibration    26          0.895              1.162              0.565
 Vibration    27          0.907              1.136              0.541

 Optimization completed.
    -- Stationary point found.
 Normal termination of Gaussian 16 at Sun Dec 13 16:35:11 2020.

 ----------------------------------------------------------------------
 # B3LYP/6-311++G(d,p) empiricaldispersion=gd3bj scf=xqc pop=npa geom=c
 heck
 ----------------------------------------------------------------------

 --------------------------------------
 CID_10849813_JID_9576_Energie_neutraal
 --------------------------------------
 Structure from the checkpoint file:  "JID_9576.chk"
 Charge =  0 Multiplicity = 1

 SCF Done:  E(RB3LYP) =  -1168.20754452     A.U. after   19 cycles
 Normal termination of Gaussian 16 at Sun Dec 13 16:43:56 2020.

 ----------------------------------------------------------------------
 # B3LYP/6-311++G(d,p) empiricaldispersion=gd3bj scf=xqc pop=npa geom=c
 heck
 ----------------------------------------------------------------------

 ------------------------------------
 CID_10849813_JID_9576_Energie_kation
 ------------------------------------
 Structure from the checkpoint file:  "JID_9576.chk"
 Charge =  1 Multiplicity = 2

 SCF Done:  E(UB3LYP) =  -1167.92577752     A.U. after   33 cycles
 SCF Done:  E(UB3LYP) =  -1167.92577752     a.u. after    1 cycles
 Normal termination of Gaussian 16 at Sun Dec 13 17:06:38 2020.
 Gaussian 16:  ES64L-G16RevA.03 25-Dec-2016

 ----------------------------------------------------------------------
 # B3LYP/6-311++G(d,p) empiricaldispersion=gd3bj scf=xqc pop=npa geom=c
 heck
 ----------------------------------------------------------------------

 -----------------------------------
 CID_10849813_JID_9576_Energie_anion
 -----------------------------------
 Structure from the checkpoint file:  "JID_9576.chk"
 Charge = -1 Multiplicity = 2

                         Standard orientation:
 ---------------------------------------------------------------------
 Center     Atomic      Atomic             Coordinates (Angstroms)
 Number     Number       Type             X           Y           Z
 ---------------------------------------------------------------------
      1          6           0       -5.431110   -2.933863   -0.140170
      2          6           0       -4.513783   -1.735906   -0.115074
      3          6           0       -3.485356   -1.606132   -1.061355
      4          6           0       -2.650664   -0.492740   -1.066325
      5          6           0       -2.839235    0.502982   -0.107032
      6          6           0       -3.851704    0.403185    0.839772
      7          6           0       -4.680192   -0.719867    0.832411
      8         16           0       -1.808476    2.004881   -0.102938
      9          8           0       -2.266209    2.828729    1.083334
     10          6           0       -0.283846    1.169584    0.319928
     11          6           0        0.768642    1.266473   -0.507070
     12          6           0        2.088930    0.661679   -0.343402
     13          6           0        3.088992    0.929638   -1.297807
     14          6           0        4.359266    0.387866   -1.187739
     15          6           0        4.671519   -0.450215   -0.108024
     16          6           0        3.690460   -0.735483    0.852941
     17          6           0        2.420008   -0.183668    0.726661
     18          8           0        5.941108   -0.936310   -0.082171
     19          6           0        6.312270   -1.784278    0.994384
     20          1           0       -6.196493   -2.829792   -0.920275
     21          1           0       -4.879305   -3.856644   -0.350489
     22          1           0       -5.950837   -3.058933    0.814752
     23          1           0       -3.338479   -2.389684   -1.800978
     24          1           0       -1.849629   -0.408122   -1.796054
     25          1           0       -3.969852    1.202673    1.564865
     26          1           0       -5.470052   -0.807879    1.574504
     27          1           0       -0.285932    0.640227    1.269236
     28          1           0        0.641400    1.857926   -1.414513
     29          1           0        2.858769    1.580064   -2.137835
     30          1           0        5.129872    0.596696   -1.922276
     31          1           0        3.906411   -1.383507    1.693769
     32          1           0        1.672707   -0.421002    1.477512
     33          1           0        6.221620   -1.269628    1.959426
     34          1           0        5.704475   -2.697962    1.012926
     35          1           0        7.356571   -2.047414    0.820548
 ---------------------------------------------------------------------

 SCF Done:  E(UB3LYP) =  -1168.21940770     A.U. after   26 cycles

 The electronic state is 2-A.
 Alpha  occ. eigenvalues --  -88.81353 -19.04451 -18.94631 -10.13385 -10.09920
 Alpha  occ. eigenvalues --  -10.08420 -10.08032 -10.07794 -10.07381 -10.07262
 Alpha  occ. eigenvalues --  -10.07219 -10.06400 -10.05059 -10.04737 -10.04458
 Alpha  occ. eigenvalues --  -10.03879 -10.03590 -10.03011 -10.02862  -7.88896
 Alpha  occ. eigenvalues --   -5.85181  -5.85025  -5.84541  -0.96220  -0.87725
 Alpha  occ. eigenvalues --   -0.75916  -0.73064  -0.68607  -0.66611  -0.64568
 Alpha  occ. eigenvalues --   -0.63798  -0.62520  -0.60655  -0.58174  -0.53654
 Alpha  occ. eigenvalues --   -0.50861  -0.49527  -0.48192  -0.46509  -0.42744
 Alpha  occ. eigenvalues --   -0.42232  -0.39738  -0.37484  -0.37420  -0.36954
 Alpha  occ. eigenvalues --   -0.35860  -0.34820  -0.33615  -0.33130  -0.32162
 Alpha  occ. eigenvalues --   -0.31747  -0.31335  -0.30388  -0.30079  -0.29203
 Alpha  occ. eigenvalues --   -0.27045  -0.26996  -0.25939  -0.25434  -0.24993
 Alpha  occ. eigenvalues --   -0.24272  -0.23142  -0.22945  -0.22270  -0.20872
 Alpha  occ. eigenvalues --   -0.16817  -0.15508  -0.14588  -0.14014  -0.13632
 Alpha  occ. eigenvalues --   -0.10242  -0.08893   0.03910
 Alpha virt. eigenvalues --    0.06372   0.06519   0.07922   0.08434   0.08675
 Alpha virt. eigenvalues --    0.09016   0.09177   0.09682   0.10319   0.10474
 Alpha virt. eigenvalues --    0.10894   0.10992   0.11809   0.11977   0.12421

  Beta  occ. eigenvalues --  -88.81354 -19.04386 -18.94584 -10.13386 -10.09625
  Beta  occ. eigenvalues --  -10.08427 -10.07931 -10.07748 -10.07367 -10.07288
  Beta  occ. eigenvalues --  -10.07211 -10.06328 -10.05162 -10.04666 -10.04493
  Beta  occ. eigenvalues --  -10.03835 -10.03314 -10.02724 -10.02557  -7.88895
  Beta  occ. eigenvalues --   -5.85168  -5.85031  -5.84543  -0.96044  -0.87584
  Beta  occ. eigenvalues --   -0.75811  -0.72776  -0.68410  -0.66138  -0.64479
  Beta  occ. eigenvalues --   -0.63540  -0.62314  -0.60486  -0.57966  -0.53329
  Beta  occ. eigenvalues --   -0.50821  -0.49229  -0.47952  -0.46369  -0.42453
  Beta  occ. eigenvalues --   -0.41921  -0.39615  -0.37329  -0.37279  -0.36894
  Beta  occ. eigenvalues --   -0.35694  -0.34725  -0.33493  -0.32996  -0.32135
  Beta  occ. eigenvalues --   -0.31574  -0.31206  -0.30299  -0.30040  -0.29096
  Beta  occ. eigenvalues --   -0.26810  -0.26363  -0.25764  -0.25318  -0.24845
  Beta  occ. eigenvalues --   -0.24214  -0.23018  -0.22718  -0.21393  -0.20774
  Beta  occ. eigenvalues --   -0.15932  -0.15122  -0.13913  -0.13812  -0.13000
  Beta  occ. eigenvalues --   -0.10048  -0.07512
  Beta virt. eigenvalues --    0.06316   0.06502   0.08052   0.08480   0.08623
  Beta virt. eigenvalues --    0.08986   0.09126   0.09607   0.09673   0.10472
  Beta virt. eigenvalues --    0.10649   0.10909   0.11195   0.11818   0.11946

 Mulliken charges and spin densities:
               1          2
     1  C   -0.522644  -0.066962
     2  C    0.597521   0.054034
     3  C   -0.527122   0.032209
     4  C   -1.020852   0.136111
     5  C    0.439896  -0.150409
     6  C    0.541068   0.045875
     7  C   -0.662167   0.016370
     8  S    0.488964   0.066411
     9  O   -0.398216  -0.005281
    10  C   -1.197037   0.243861
    11  C    0.211918   0.190229
    12  C    1.653427   0.004628
    13  C    0.056529   0.067387
    14  C   -0.256430  -0.008359
    15  C   -0.924016   0.174165
    16  C   -0.253793  -0.073191
    17  C   -0.882139   0.243856
    18  O   -0.175621   0.010992
    19  C   -0.327005  -0.006014
    20  H    0.110758   0.039263
    21  H    0.132345  -0.001383
    22  H    0.131003   0.002478
    23  H    0.144328   0.005541
    24  H    0.145293   0.002854
    25  H    0.227166  -0.002700
    26  H    0.114196   0.006702
    27  H    0.215856  -0.012175
    28  H    0.079933  -0.016296
    29  H    0.111892  -0.001446
    30  H    0.139480   0.000194
    31  H    0.169712   0.005450
    32  H    0.032352  -0.016437
    33  H    0.128667   0.006950
    34  H    0.129953   0.005471
    35  H    0.144785  -0.000376
 Sum of Mulliken charges =  -1.00000   1.00000

 Dipole moment (field-independent basis, Debye):
    X=             -0.0275    Y=             -6.1555    Z=             -0.7600  Tot=              6.2023
 Quadrupole moment (field-independent basis, Debye-Ang):
   XX=           -177.8049   YY=           -146.5604   ZZ=           -128.0286
   XY=              6.5103   XZ=              8.6079   YZ=            -10.3670

 Summary of Natural Population Analysis:

                                       Natural Population
                Natural  -----------------------------------------------
    Atom  No    Charge         Core      Valence    Rydberg      Total
 -----------------------------------------------------------------------
      C    1   -0.29135      0.99964     2.28715    0.00456     3.29135
      C    2   -0.00842      0.99952     2.00078    0.00812     3.00842
      C    3   -0.10435      0.99952     2.09634    0.00849     3.10435
      C    4   -0.09434      0.99950     2.08548    0.00936     3.09434
      C    5   -0.10583      0.99938     2.08882    0.01763     3.10583
      C    6   -0.09375      0.99949     2.08395    0.01031     3.09375
      C    7   -0.10845      0.99952     2.10065    0.00828     3.10845
      S    8    0.59916      4.99927     2.33906    0.06251     7.40084
      O    9   -0.49421      0.99993     3.48617    0.00811     4.49421
      C   10   -0.15670      0.99943     2.14739    0.00988     3.15670
      C   11   -0.03383      0.99949     2.02384    0.01049     3.03383
      C   12   -0.04826      0.99950     2.03962    0.00914     3.04826
      C   13   -0.06557      0.99954     2.05796    0.00807     3.06557
      C   14   -0.14368      0.99954     2.13493    0.00921     3.14368
      C   15    0.20290      0.99940     1.78627    0.01143     2.79710
      C   16   -0.17244      0.99954     2.16522    0.00768     3.17244
      C   17   -0.02325      0.99955     2.01535    0.00835     3.02325
      O   18   -0.27217      0.99985     3.26265    0.00967     4.27217
      C   19   -0.09975      0.99961     2.09190    0.00823     3.09975
      H   20    0.10066      0.00000     0.39819    0.00115     0.39934
      H   21    0.09964      0.00000     0.39946    0.00090     0.40036
      H   22    0.09829      0.00000     0.40085    0.00086     0.40171
      H   23    0.09391      0.00000     0.40475    0.00134     0.40609
      H   24    0.10586      0.00000     0.39249    0.00165     0.39414
      H   25    0.11672      0.00000     0.38219    0.00109     0.38328
      H   26    0.09310      0.00000     0.40560    0.00130     0.40690
      H   27    0.09525      0.00000     0.40313    0.00162     0.40475
      H   28    0.08522      0.00000     0.41259    0.00219     0.41478
      H   29    0.09174      0.00000     0.40690    0.00136     0.40826
      H   30    0.09745      0.00000     0.40101    0.00153     0.40255
      H   31    0.09561      0.00000     0.40328    0.00111     0.40439
      H   32    0.09286      0.00000     0.40566    0.00148     0.40714
      H   33    0.08100      0.00000     0.41737    0.00163     0.41900
      H   34    0.08070      0.00000     0.41767    0.00163     0.41930
      H   35    0.08629      0.00000     0.41289    0.00082     0.41371
 =======================================================================
   * Total *   -0.00000     22.99124    48.75758    0.25118    72.00000

 Normal termination of Gaussian 16 at Sun Dec 13 17:23:32 2020.
