 Gaussian 16, Revision A.03,

 -----------------------------------------------------------
 # opt freq B3LYP/6-31G(d) empiricaldispersion=gd3bj scf=xqc
 -----------------------------------------------------------

 ------------------------------
 CID_72780132_JID_5640_neutraal
 ------------------------------
 Symbolic Z-matrix:
 Charge =  0 Multiplicity = 1

 SCF Done:  E(RB3LYP) =  -693.811134205     A.U. after   14 cycles
 SCF Done:  E(RB3LYP) =  -693.814593933     A.U. after   11 cycles
 SCF Done:  E(RB3LYP) =  -693.815109188     A.U. after   11 cycles
 SCF Done:  E(RB3LYP) =  -693.815258836     A.U. after   12 cycles
 SCF Done:  E(RB3LYP) =  -693.815473210     A.U. after   10 cycles
 SCF Done:  E(RB3LYP) =  -693.815612665     A.U. after   11 cycles
 SCF Done:  E(RB3LYP) =  -693.815667379     A.U. after   11 cycles
 SCF Done:  E(RB3LYP) =  -693.815678745     A.U. after    9 cycles
 SCF Done:  E(RB3LYP) =  -693.815684972     A.U. after    9 cycles
 SCF Done:  E(RB3LYP) =  -693.815689262     A.U. after    9 cycles
 SCF Done:  E(RB3LYP) =  -693.819506350     A.U. after   10 cycles
 SCF Done:  E(RB3LYP) =  -693.819558866     A.U. after   10 cycles
 SCF Done:  E(RB3LYP) =  -693.819575779     A.U. after    9 cycles
 SCF Done:  E(RB3LYP) =  -693.819576098     A.U. after    8 cycles
 SCF Done:  E(RB3LYP) =  -693.819576158     A.U. after    7 cycles
 Optimization completed.
    -- Stationary point found.
 Normal termination of Gaussian 16 at Thu Dec 10 17:19:48 2020.

 --------------------------------------------------------------------
 #N Geom=AllCheck Guess=TCheck SCRF=Check GenChk RB3LYP/6-31G(d) Freq
 --------------------------------------------------------------------

 Structure from the checkpoint file:  "JID_5640.chk"
 ------------------------------
 CID_72780132_JID_5640_neutraal
 ------------------------------
 Charge =  0 Multiplicity = 1

 SCF Done:  E(RB3LYP) =  -693.819576158     A.U. after    1 cycles

  Exact polarizability: 175.240  -2.117 150.739  -5.677  -7.034  90.641
 Approx polarizability: 249.648  -3.702 224.150  -8.678 -11.499 130.849

                      1                      2                      3
                      A                      A                      A
 Frequencies --     39.2146                54.3065                65.8244
 Red. masses --      4.3428                 2.9020                 4.2708
 Frc consts  --      0.0039                 0.0050                 0.0109
 IR Inten    --      0.4589                 3.1786                 0.7423

                      4                      5                      6
                      A                      A                      A
 Frequencies --     93.2359               123.8160               133.9614
 Red. masses --      3.0638                 2.5932                 1.2641
 Frc consts  --      0.0157                 0.0234                 0.0134
 IR Inten    --      0.2689                 4.8562                 1.6095

                      7                      8                      9
                      A                      A                      A
 Frequencies --    166.2490               181.3654               190.5070
 Red. masses --      3.4112                 2.0210                 2.7400
 Frc consts  --      0.0555                 0.0392                 0.0586
 IR Inten    --      0.6731                 1.1099                 0.3793

                     10                     11                     12
                      A                      A                      A
 Frequencies --    202.6501               218.6172               234.2137
 Red. masses --      2.0103                 1.5650                 1.6780
 Frc consts  --      0.0486                 0.0441                 0.0542
 IR Inten    --      1.5879                 0.7987                 2.3001

                     13                     14                     15
                      A                      A                      A
 Frequencies --    243.5681               256.6648               283.7906
 Red. masses --      2.6988                 1.5904                 1.2629
 Frc consts  --      0.0943                 0.0617                 0.0599
 IR Inten    --      0.1881                 0.2290                 0.3461

                     16                     17                     18
                      A                      A                      A
 Frequencies --    319.8762               322.4520               361.8761
 Red. masses --      2.6306                 3.2912                 1.1978
 Frc consts  --      0.1586                 0.2016                 0.0924
 IR Inten    --      1.7151                 1.0574               106.8558

                     19                     20                     21
                      A                      A                      A
 Frequencies --    386.6946               425.8553               462.8994
 Red. masses --      3.6211                 4.4451                 3.6526
 Frc consts  --      0.3190                 0.4750                 0.4611
 IR Inten    --      4.9700                 2.8999                16.1622

                     22                     23                     24
                      A                      A                      A
 Frequencies --    468.7115               490.6715               501.8471
 Red. masses --      3.7223                 4.3853                 3.9977
 Frc consts  --      0.4818                 0.6221                 0.5932
 IR Inten    --      0.6271                 0.6944                 1.4541

                     25                     26                     27
                      A                      A                      A
 Frequencies --    525.9353               635.0125               677.4585
 Red. masses --      3.6617                 4.1923                 4.9363
 Frc consts  --      0.5967                 0.9960                 1.3348
 IR Inten    --      3.5413                 6.3014                 3.9171

                     28                     29                     30
                      A                      A                      A
 Frequencies --    685.8876               736.1778               750.6451
 Red. masses --      3.3305                 4.1227                 5.1729
 Frc consts  --      0.9231                 1.3164                 1.7173
 IR Inten    --      9.0374                 2.6056                 2.5025

                     31                     32                     33
                      A                      A                      A
 Frequencies --    822.0377               862.6012               872.6544
 Red. masses --      3.8208                 1.3763                 1.4269
 Frc consts  --      1.5212                 0.6034                 0.6402
 IR Inten    --     17.7702                 7.3651                16.6179

                     34                     35                     36
                      A                      A                      A
 Frequencies --    914.9192               947.8543              1010.0566
 Red. masses --      1.8810                 1.3546                 3.0679
 Frc consts  --      0.9277                 0.7170                 1.8441
 IR Inten    --     13.8093                 5.7154                 3.4751

                     37                     38                     39
                      A                      A                      A
 Frequencies --   1035.7345              1069.1180              1073.3112
 Red. masses --      1.5601                 2.8754                 1.4871
 Frc consts  --      0.9860                 1.9364                 1.0094
 IR Inten    --     24.3143                 2.4751                 2.0344

                     40                     41                     42
                      A                      A                      A
 Frequencies --   1077.3568              1094.5831              1116.2121
 Red. masses --      4.9174                 5.8265                 2.3659
 Frc consts  --      3.3628                 4.1130                 1.7367
 IR Inten    --     90.4875               144.2527                14.9837

                     43                     44                     45
                      A                      A                      A
 Frequencies --   1148.5283              1182.8391              1186.5197
 Red. masses --      2.4545                 2.5967                 1.2719
 Frc consts  --      1.9076                 2.1406                 1.0550
 IR Inten    --      3.1956                 3.2450                 1.0587

                     46                     47                     48
                      A                      A                      A
 Frequencies --   1187.1542              1208.8140              1220.7276
 Red. masses --      1.2729                 1.4552                 1.3756
 Frc consts  --      1.0570                 1.2528                 1.2078
 IR Inten    --      0.6726                11.0636                 4.0266

                     49                     50                     51
                      A                      A                      A
 Frequencies --   1228.7152              1237.5551              1262.6429
 Red. masses --      1.5190                 1.5281                 3.7254
 Frc consts  --      1.3512                 1.3789                 3.4993
 IR Inten    --      0.4686                 5.5600               409.1329

                     52                     53                     54
                      A                      A                      A
 Frequencies --   1316.3614              1333.7254              1335.4587
 Red. masses --      1.4284                 1.5005                 3.0598
 Frc consts  --      1.4583                 1.5726                 3.2151
 IR Inten    --      1.5721                 1.2730                 7.7511

                     55                     56                     57
                      A                      A                      A
 Frequencies --   1365.6697              1392.1662              1403.3372
 Red. masses --      5.0873                 1.7281                 1.3275
 Frc consts  --      5.5902                 1.9734                 1.5404
 IR Inten    --     12.1529                30.4440                34.8711

                     58                     59                     60
                      A                      A                      A
 Frequencies --   1427.0142              1442.8272              1445.6377
 Red. masses --      1.2471                 1.3354                 1.2498
 Frc consts  --      1.4962                 1.6379                 1.5388
 IR Inten    --     11.3612                20.9734                33.7571

                     61                     62                     63
                      A                      A                      A
 Frequencies --   1456.1899              1503.3405              1505.8825
 Red. masses --      2.1143                 1.1869                 1.2558
 Frc consts  --      2.6415                 1.5805                 1.6779
 IR Inten    --     80.7617                 0.0818                 6.2852

                     64                     65                     66
                      A                      A                      A
 Frequencies --   1506.8344              1520.4290              1520.6076
 Red. masses --      1.0450                 1.0478                 1.0482
 Frc consts  --      1.3979                 1.4271                 1.4280
 IR Inten    --      5.3654                 4.7565                 5.2958

                     67                     68                     69
                      A                      A                      A
 Frequencies --   1523.2257              1525.8219              1534.6718
 Red. masses --      1.0547                 1.1850                 1.1048
 Frc consts  --      1.4418                 1.6255                 1.5331
 IR Inten    --     14.1712                 0.7245               119.7005

                     70                     71                     72
                      A                      A                      A
 Frequencies --   1537.8297              1538.9146              1545.3905
 Red. masses --      1.0533                 1.0666                 1.0974
 Frc consts  --      1.4677                 1.4882                 1.5441
 IR Inten    --      0.0560                 0.7169                 5.8172

                     73                     74                     75
                      A                      A                      A
 Frequencies --   1566.7042              1638.5800              1672.8186
 Red. masses --      2.3908                 7.8129                 5.9616
 Frc consts  --      3.4575                12.3593                 9.8290
 IR Inten    --    135.6121                 0.7929                 1.3252

                     76                     77                     78
                      A                      A                      A
 Frequencies --   3022.5014              3023.4143              3033.7638
 Red. masses --      1.0347                 1.0349                 1.0713
 Frc consts  --      5.5695                 5.5736                 5.8093
 IR Inten    --    103.8849                15.1941                10.8821

                     79                     80                     81
                      A                      A                      A
 Frequencies --   3045.5849              3050.1276              3054.5220
 Red. masses --      1.0736                 1.0359                 1.0402
 Frc consts  --      5.8670                 5.6782                 5.7180
 IR Inten    --     50.1760                35.4472                38.4129

                     82                     83                     84
                      A                      A                      A
 Frequencies --   3080.0880              3081.1684              3098.0859
 Red. masses --      1.1065                 1.1065                 1.1023
 Frc consts  --      6.1847                 6.1894                 6.2336
 IR Inten    --     39.5764                43.9904                48.3196

                     85                     86                     87
                      A                      A                      A
 Frequencies --   3102.8425              3114.8314              3130.6228
 Red. masses --      1.1004                 1.1013                 1.1029
 Frc consts  --      6.2417                 6.2955                 6.3688
 IR Inten    --     16.4090                40.1729                19.4434

                     88                     89                     90
                      A                      A                      A
 Frequencies --   3155.7407              3155.9675              3156.4082
 Red. masses --      1.0996                 1.0991                 1.0993
 Frc consts  --      6.4517                 6.4499                 6.4529
 IR Inten    --     39.2370                19.9764                 9.7561

                     91                     92                     93
                      A                      A                      A
 Frequencies --   3218.8858              3221.0691              3718.1677
 Red. masses --      1.0885                 1.0892                 1.0654
 Frc consts  --      6.6450                 6.6579                 8.6779
 IR Inten    --     20.4341                 0.3998                19.0468

 - Thermochemistry -
 -------------------
 Temperature   298.150 Kelvin.  Pressure   1.00000 Atm.
 Atom     1 has atomic number  6 and mass  12.00000

 Molecular mass:   210.12559 amu.
 Principal axes and moments of inertia in atomic units:
                           1         2         3
     Eigenvalues --  2366.354254041.060235461.75575
           X            0.99991  -0.00823  -0.01032
           Y            0.00798   0.99967  -0.02449
           Z            0.01051   0.02441   0.99965
 This molecule is an asymmetric top.
 Rotational symmetry number  1.
 Warning -- assumption of classical behavior for rotation
           may cause significant error
 Rotational temperatures (Kelvin)      0.03660     0.02143     0.01586
 Rotational constants (GHZ):           0.76267     0.44660     0.33043
 Zero-point vibrational energy     747804.5 (Joules/Mol)
                                  178.72957 (Kcal/Mol)
 Warning -- explicit consideration of  25 degrees of freedom as
           vibrations may cause significant error
 Vibrational temperatures:     56.42    78.13    94.71   134.15   178.14
          (Kelvin)            192.74   239.20   260.94   274.10   291.57
                              314.54   336.98   350.44   369.28   408.31
                              460.23   463.94   520.66   556.37   612.71
                              666.01   674.37   705.97   722.05   756.70
                              913.64   974.71   986.84  1059.20  1080.01
                             1182.73  1241.09  1255.55  1316.36  1363.75
                             1453.25  1490.19  1538.22  1544.26  1550.08
                             1574.86  1605.98  1652.48  1701.84  1707.14
                             1708.05  1739.21  1756.35  1767.85  1780.57
                             1816.66  1893.95  1918.93  1921.43  1964.89
                             2003.02  2019.09  2053.16  2075.91  2079.95
                             2095.13  2162.97  2166.63  2168.00  2187.56
                             2187.82  2191.58  2195.32  2208.05  2212.59
                             2214.15  2223.47  2254.14  2357.55  2406.81
                             4348.71  4350.02  4364.91  4381.92  4388.45
                             4394.78  4431.56  4433.11  4457.45  4464.30
                             4481.55  4504.27  4540.41  4540.73  4541.37
                             4631.26  4634.40  5349.61

 Zero-point correction=                           0.284824 (Hartree/Particle)
 Thermal correction to Energy=                    0.301299
 Thermal correction to Enthalpy=                  0.302243
 Thermal correction to Gibbs Free Energy=         0.241203
 Sum of electronic and zero-point Energies=           -693.534752
 Sum of electronic and thermal Energies=              -693.518277
 Sum of electronic and thermal Enthalpies=            -693.517333
 Sum of electronic and thermal Free Energies=         -693.578373

                     E (Thermal)             CV                S
                      KCal/Mol        Cal/Mol-Kelvin    Cal/Mol-Kelvin
 Total                  189.068             60.847            128.469
 Electronic               0.000              0.000              0.000
 Translational            0.889              2.981             41.931
 Rotational               0.889              2.981             32.324
 Vibrational            187.290             54.886             54.213
 Vibration     1          0.594              1.981              5.298
 Vibration     2          0.596              1.976              4.654
 Vibration     3          0.597              1.971              4.274
 Vibration     4          0.602              1.954              3.591
 Vibration     5          0.610              1.929              3.040
 Vibration     6          0.613              1.919              2.888
 Vibration     7          0.624              1.884              2.477
 Vibration     8          0.630              1.865              2.314
 Vibration     9          0.634              1.853              2.223
 Vibration    10          0.639              1.836              2.109
 Vibration    11          0.646              1.813              1.971
 Vibration    12          0.654              1.789              1.846
 Vibration    13          0.659              1.773              1.777
 Vibration    14          0.666              1.752              1.684
 Vibration    15          0.682              1.704              1.511
 Vibration    16          0.706              1.636              1.311
 Vibration    17          0.707              1.630              1.298
 Vibration    18          0.736              1.551              1.114
 Vibration    19          0.755              1.499              1.013
 Vibration    20          0.788              1.414              0.872
 Vibration    21          0.821              1.332              0.758
 Vibration    22          0.826              1.319              0.741
 Vibration    23          0.846              1.271              0.682
 Vibration    24          0.857              1.246              0.654
 Vibration    25          0.881              1.193              0.596

 Optimization completed.
    -- Stationary point found.
 Normal termination of Gaussian 16 at Thu Dec 10 17:32:08 2020.

 ----------------------------------------------------------------------
 # B3LYP/6-311++G(d,p) empiricaldispersion=gd3bj scf=xqc pop=npa geom=c
 heck
 ----------------------------------------------------------------------

 --------------------------------------
 CID_72780132_JID_5640_Energie_neutraal
 --------------------------------------
 Structure from the checkpoint file:  "JID_5640.chk"
 Charge =  0 Multiplicity = 1

 SCF Done:  E(RB3LYP) =  -694.022412101     A.U. after   14 cycles
 Normal termination of Gaussian 16 at Thu Dec 10 17:37:19 2020.

 ----------------------------------------------------------------------
 # B3LYP/6-311++G(d,p) empiricaldispersion=gd3bj scf=xqc pop=npa geom=c
 heck
 ----------------------------------------------------------------------

 ------------------------------------
 CID_72780132_JID_5640_Energie_kation
 ------------------------------------
 Structure from the checkpoint file:  "JID_5640.chk"
 Charge =  1 Multiplicity = 2

 SCF Done:  E(UB3LYP) =  -693.751604638     A.U. after   22 cycles
 Normal termination of Gaussian 16 at Thu Dec 10 17:48:54 2020.
 Gaussian 16:  ES64L-G16RevA.03 25-Dec-2016

 ----------------------------------------------------------------------
 # B3LYP/6-311++G(d,p) empiricaldispersion=gd3bj scf=xqc pop=npa geom=c
 heck
 ----------------------------------------------------------------------

 -----------------------------------
 CID_72780132_JID_5640_Energie_anion
 -----------------------------------
 Structure from the checkpoint file:  "JID_5640.chk"
 Charge = -1 Multiplicity = 2

                         Standard orientation:
 ---------------------------------------------------------------------
 Center     Atomic      Atomic             Coordinates (Angstroms)
 Number     Number       Type             X           Y           Z
 ---------------------------------------------------------------------
      1          6           0        3.024038    1.997855   -0.292601
      2          6           0        1.785916    1.166132   -0.089289
      3          6           0        0.512564    1.736469   -0.081863
      4          6           0       -0.639502    0.964744    0.105794
      5          6           0       -0.536815   -0.423988    0.305099
      6          6           0        0.743633   -0.991775    0.285183
      7          6           0        1.891932   -0.220473    0.095057
      8          8           0        3.166407   -0.724941    0.069708
      9          6           0        3.330119   -2.120808    0.242298
     10          6           0       -1.745148   -1.328062    0.496127
     11          6           0       -2.604671   -0.960299    1.715691
     12          6           0       -2.587781   -1.401636   -0.790607
     13          8           0       -1.831412   -1.861058   -1.903177
     14          8           0       -1.907310    1.496041    0.100416
     15          6           0       -2.051892    2.887408   -0.115600
     16          1           0        2.770304    3.053948   -0.423714
     17          1           0        3.705326    1.908379    0.561511
     18          1           0        3.585137    1.663822   -1.173091
     19          1           0        0.434286    2.807379   -0.229385
     20          1           0        0.821587   -2.063324    0.427799
     21          1           0        2.955616   -2.453552    1.219697
     22          1           0        2.819747   -2.688033   -0.547587
     23          1           0        4.404009   -2.307397    0.184716
     24          1           0       -1.352009   -2.340468    0.654912
     25          1           0       -3.059366    0.025596    1.598114
     26          1           0       -3.403966   -1.698392    1.852581
     27          1           0       -1.995864   -0.947878    2.625913
     28          1           0       -3.394143   -2.130367   -0.655070
     29          1           0       -3.045175   -0.423187   -0.991760
     30          1           0       -1.068279   -1.265290   -1.980398
     31          1           0       -3.125136    3.084003   -0.089255
     32          1           0       -1.556373    3.472488    0.670542
     33          1           0       -1.651536    3.188534   -1.092835
 ---------------------------------------------------------------------

 SCF Done:  E(UB3LYP) =  -694.009303772     A.U. after   33 cycles
 SCF Done:  E(UB3LYP) =  -694.009303772     a.u. after    1 cycles

 The electronic state is 2-A.
 Alpha  occ. eigenvalues --  -19.05840 -19.05756 -19.02798 -10.13655 -10.13303
 Alpha  occ. eigenvalues --  -10.12787 -10.12424 -10.11970 -10.08983 -10.08829
 Alpha  occ. eigenvalues --  -10.08740 -10.08086 -10.07815 -10.07142 -10.06945
 Alpha  occ. eigenvalues --   -0.97401  -0.97299  -0.92938  -0.76817  -0.71630
 Alpha  occ. eigenvalues --   -0.66972  -0.65976  -0.62560  -0.60584  -0.58349
 Alpha  occ. eigenvalues --   -0.57569  -0.51803  -0.50937  -0.47757  -0.43096
 Alpha  occ. eigenvalues --   -0.42539  -0.42131  -0.40279  -0.37836  -0.37336
 Alpha  occ. eigenvalues --   -0.36872  -0.35342  -0.34922  -0.34392  -0.32803
 Alpha  occ. eigenvalues --   -0.32405  -0.31680  -0.31109  -0.29898  -0.29383
 Alpha  occ. eigenvalues --   -0.28241  -0.27301  -0.26879  -0.26098  -0.25278
 Alpha  occ. eigenvalues --   -0.24177  -0.24068  -0.22015  -0.20177  -0.18217
 Alpha  occ. eigenvalues --   -0.15678  -0.11116   0.04114
 Alpha virt. eigenvalues --    0.05578   0.06608   0.07548   0.07607   0.08266
 Alpha virt. eigenvalues --    0.08359   0.09222   0.09707   0.09934   0.10020
 Alpha virt. eigenvalues --    0.10710   0.10738   0.11822   0.11904   0.12576

  Beta  occ. eigenvalues --  -19.05834 -19.05749 -19.02792 -10.13655 -10.13302
  Beta  occ. eigenvalues --  -10.12743 -10.12369 -10.11966 -10.08979 -10.08830
  Beta  occ. eigenvalues --  -10.08740 -10.08079 -10.07800 -10.07122 -10.06936
  Beta  occ. eigenvalues --   -0.97387  -0.97283  -0.92926  -0.76809  -0.71619
  Beta  occ. eigenvalues --   -0.66954  -0.65954  -0.62497  -0.60542  -0.58327
  Beta  occ. eigenvalues --   -0.57523  -0.51776  -0.50897  -0.47726  -0.43070
  Beta  occ. eigenvalues --   -0.42514  -0.42095  -0.40258  -0.37808  -0.37304
  Beta  occ. eigenvalues --   -0.36850  -0.35314  -0.34874  -0.34378  -0.32785
  Beta  occ. eigenvalues --   -0.32383  -0.31644  -0.31081  -0.29885  -0.29357
  Beta  occ. eigenvalues --   -0.28222  -0.27282  -0.26852  -0.26071  -0.25255
  Beta  occ. eigenvalues --   -0.24151  -0.24052  -0.21995  -0.20158  -0.18207
  Beta  occ. eigenvalues --   -0.15667  -0.11107
  Beta virt. eigenvalues --    0.06195   0.06861   0.06923   0.07648   0.08116
  Beta virt. eigenvalues --    0.08435   0.08868   0.09451   0.10068   0.10371
  Beta virt. eigenvalues --    0.10589   0.10820   0.11094   0.11888   0.12126

 Mulliken charges and spin densities:
               1          2
     1  C    0.695531  -1.220752
     2  C   -0.541897   1.129330
     3  C   -0.221378   0.352490
     4  C   -0.150673  -0.563107
     5  C    2.012100  -1.270839
     6  C    0.850607  -0.791765
     7  C   -1.844104   0.742435
     8  O   -0.211832   0.066617
     9  C    0.826811  -1.149974
    10  C   -1.307635   1.428844
    11  C   -0.033549  -0.622810
    12  C   -0.099288  -0.428360
    13  O   -0.253205   0.015716
    14  O   -0.163076   0.055391
    15  C    1.244276  -1.552498
    16  H   -0.374981   0.528829
    17  H    0.009077   0.159862
    18  H    0.018874   0.149280
    19  H    0.129473   0.008481
    20  H    0.327836  -0.152871
    21  H   -0.279314   0.434556
    22  H   -0.119284   0.273159
    23  H   -0.689200   0.872138
    24  H   -0.013047   0.185778
    25  H    0.139616   0.035975
    26  H    0.030214   0.102836
    27  H   -0.039407   0.171819
    28  H    0.112099   0.046146
    29  H    0.150437   0.043239
    30  H    0.207084   0.045180
    31  H   -0.594750   0.765626
    32  H   -0.425394   0.588277
    33  H   -0.392020   0.550971
 Sum of Mulliken charges =  -1.00000   1.00000

 Dipole moment (field-independent basis, Debye):
    X=             -2.1178    Y=             -2.9193    Z=              0.5766  Tot=              3.6524
 Quadrupole moment (field-independent basis, Debye-Ang):
   XX=           -162.9440   YY=           -159.7307   ZZ=           -126.1926
   XY=             17.8682   XZ=             -4.4452   YZ=             -0.7565

 Summary of Natural Population Analysis:

                                       Natural Population
                Natural  -----------------------------------------------
    Atom  No    Charge         Core      Valence    Rydberg      Total
 -----------------------------------------------------------------------
      C    1   -0.29052      0.99963     2.28559    0.00530     3.29052
      C    2   -0.02371      0.99950     2.01503    0.00918     3.02371
      C    3   -0.13080      0.99949     2.12257    0.00875     3.13080
      C    4    0.15249      0.99932     1.83437    0.01382     2.84751
      C    5   -0.03975      0.99947     2.02835    0.01193     3.03975
      C    6   -0.13210      0.99948     2.12374    0.00888     3.13210
      C    7    0.15238      0.99932     1.83622    0.01208     2.84762
      O    8   -0.27540      0.99986     3.26500    0.01054     4.27540
      C    9   -0.10022      0.99960     2.09125    0.00937     3.10022
      C   10   -0.12691      0.99957     2.11670    0.01063     3.12691
      C   11   -0.28405      0.99964     2.27960    0.00481     3.28405
      C   12   -0.00504      0.99956     1.99391    0.01157     3.00504
      O   13   -0.37133      0.99990     3.36498    0.00646     4.37133
      O   14   -0.28147      0.99986     3.27123    0.01038     4.28147
      C   15   -0.09992      0.99960     2.09080    0.00952     3.09992
      H   16    0.10111      0.00000     0.39773    0.00116     0.39889
      H   17    0.10662      0.00000     0.39173    0.00165     0.39338
      H   18    0.10639      0.00000     0.39194    0.00166     0.39361
      H   19    0.10770      0.00000     0.39069    0.00161     0.39230
      H   20    0.10568      0.00000     0.39257    0.00175     0.39432
      H   21    0.08430      0.00000     0.41388    0.00182     0.41570
      H   22    0.08363      0.00000     0.41476    0.00161     0.41637
      H   23    0.09556      0.00000     0.40289    0.00155     0.40444
      H   24    0.09794      0.00000     0.40014    0.00192     0.40206
      H   25    0.10821      0.00000     0.39045    0.00134     0.39179
      H   26    0.09418      0.00000     0.40490    0.00091     0.40582
      H   27    0.10127      0.00000     0.39772    0.00101     0.39873
      H   28    0.08159      0.00000     0.41714    0.00126     0.41841
      H   29    0.08411      0.00000     0.41429    0.00160     0.41589
      H   30    0.23091      0.00000     0.26600    0.00310     0.26909
      H   31    0.09488      0.00000     0.40363    0.00149     0.40512
      H   32    0.08638      0.00000     0.41139    0.00224     0.41362
      H   33    0.08589      0.00000     0.41197    0.00214     0.41411
 =======================================================================
   * Total *    0.00000     14.99381    41.83316    0.17304    57.00000

 Normal termination of Gaussian 16 at Thu Dec 10 18:05:55 2020.
