 Gaussian 16, Revision A.03,

 -----------------------------------------------------------
 # opt freq B3LYP/6-31G(d) empiricaldispersion=gd3bj scf=xqc
 -----------------------------------------------------------

 -------------------------------
 CID_130117599_JID_4657_neutraal
 -------------------------------
 Symbolic Z-matrix:
 Charge =  0 Multiplicity = 1

 SCF Done:  E(RB3LYP) =  -650.639875171     A.U. after   14 cycles
 SCF Done:  E(RB3LYP) =  -650.643665921     A.U. after   12 cycles
 SCF Done:  E(RB3LYP) =  -650.644232486     A.U. after   11 cycles
 SCF Done:  E(RB3LYP) =  -650.644355911     A.U. after   11 cycles
 SCF Done:  E(RB3LYP) =  -650.644395598     A.U. after   10 cycles
 SCF Done:  E(RB3LYP) =  -650.644425425     A.U. after   10 cycles
 SCF Done:  E(RB3LYP) =  -650.644459255     A.U. after   10 cycles
 SCF Done:  E(RB3LYP) =  -650.644482678     A.U. after   10 cycles
 SCF Done:  E(RB3LYP) =  -650.644499728     A.U. after   10 cycles
 SCF Done:  E(RB3LYP) =  -650.644546994     A.U. after   10 cycles
 SCF Done:  E(RB3LYP) =  -650.644721850     A.U. after   10 cycles
 SCF Done:  E(RB3LYP) =  -650.644722629     A.U. after    9 cycles
 SCF Done:  E(RB3LYP) =  -650.644722716     A.U. after    7 cycles
 SCF Done:  E(RB3LYP) =  -650.644722755     A.U. after    7 cycles
 Optimization completed.
    -- Stationary point found.
 Normal termination of Gaussian 16 at Thu Dec 10 10:21:30 2020.

 --------------------------------------------------------------------
 #N Geom=AllCheck Guess=TCheck SCRF=Check GenChk RB3LYP/6-31G(d) Freq
 --------------------------------------------------------------------

 Structure from the checkpoint file:  "JID_4657.chk"
 -------------------------------
 CID_130117599_JID_4657_neutraal
 -------------------------------
 Charge =  0 Multiplicity = 1

 SCF Done:  E(RB3LYP) =  -650.644722755     A.U. after    1 cycles

  Exact polarizability: 138.313  -3.049 128.798  -1.606  -0.219  91.815
 Approx polarizability: 182.306   2.997 201.017  -1.916  -0.037 131.859

                      1                      2                      3
                      A                      A                      A
 Frequencies --     23.6996                70.3540                78.7051
 Red. masses --      2.2267                 1.8449                 2.8704
 Frc consts  --      0.0007                 0.0054                 0.0105
 IR Inten    --      0.0258                 0.9524                 0.7313

                      4                      5                      6
                      A                      A                      A
 Frequencies --    103.3047               109.3786               167.0521
 Red. masses --      4.2473                 2.0488                 2.7792
 Frc consts  --      0.0267                 0.0144                 0.0457
 IR Inten    --      5.7462                 0.7142                 1.7203

                      7                      8                      9
                      A                      A                      A
 Frequencies --    172.8325               206.2959               218.3413
 Red. masses --      1.5449                 1.8460                 2.8894
 Frc consts  --      0.0272                 0.0463                 0.0812
 IR Inten    --      0.3977                 0.2859                 2.6223

                     10                     11                     12
                      A                      A                      A
 Frequencies --    247.6434               289.5116               341.7936
 Red. masses --      1.8998                 4.3251                 2.7314
 Frc consts  --      0.0686                 0.2136                 0.1880
 IR Inten    --      2.0092                 4.8704                 2.2752

                     13                     14                     15
                      A                      A                      A
 Frequencies --    356.8382               376.2957               433.9648
 Red. masses --      5.1973                 2.4448                 4.3198
 Frc consts  --      0.3899                 0.2040                 0.4793
 IR Inten    --      0.7002                 0.9274                 3.1060

                     16                     17                     18
                      A                      A                      A
 Frequencies --    441.2399               463.2943               518.1745
 Red. masses --      2.2418                 5.1075                 2.5602
 Frc consts  --      0.2572                 0.6459                 0.4050
 IR Inten    --      0.5487                 5.6849                 6.8245

                     19                     20                     21
                      A                      A                      A
 Frequencies --    541.0836               620.0076               688.2348
 Red. masses --      2.5861                 6.6486                 5.1625
 Frc consts  --      0.4461                 1.5058                 1.4407
 IR Inten    --     14.7722                 1.0262                 4.4338

                     22                     23                     24
                      A                      A                      A
 Frequencies --    739.9828               743.7832               777.4257
 Red. masses --      8.5334                 3.4386                 2.0864
 Frc consts  --      2.7530                 1.1208                 0.7430
 IR Inten    --      8.2052                38.1264                62.4188

                     25                     26                     27
                      A                      A                      A
 Frequencies --    802.4287               852.4957               891.4897
 Red. masses --      2.3293                 3.4040                 1.5021
 Frc consts  --      0.8836                 1.4576                 0.7034
 IR Inten    --      5.2952                 6.7214                10.2128

                     28                     29                     30
                      A                      A                      A
 Frequencies --    897.1946               950.3637               954.7035
 Red. masses --      2.1278                 2.7881                 2.2034
 Frc consts  --      1.0091                 1.4837                 1.1833
 IR Inten    --      3.3866                17.5187                 4.2850

                     31                     32                     33
                      A                      A                      A
 Frequencies --    975.2532              1004.9010              1032.3585
 Red. masses --      2.2638                 2.6592                 2.0371
 Frc consts  --      1.2686                 1.5821                 1.2792
 IR Inten    --      2.8301                21.7796                 1.3653

                     34                     35                     36
                      A                      A                      A
 Frequencies --   1037.7746              1071.6462              1076.5587
 Red. masses --      4.0270                 1.6119                 1.5051
 Frc consts  --      2.5552                 1.0907                 1.0278
 IR Inten    --      4.8108                 3.2470                 2.7316

                     37                     38                     39
                      A                      A                      A
 Frequencies --   1106.5470              1113.4677              1158.6145
 Red. masses --      2.7554                 4.6020                 2.4855
 Frc consts  --      1.9878                 3.3616                 1.9658
 IR Inten    --      3.5208                81.0064                14.5512

                     40                     41                     42
                      A                      A                      A
 Frequencies --   1175.1641              1187.8664              1189.6542
 Red. masses --      2.4594                 1.2668                 1.3483
 Frc consts  --      2.0011                 1.0532                 1.1243
 IR Inten    --     14.0544                 1.1814                17.1903

                     43                     44                     45
                      A                      A                      A
 Frequencies --   1227.0836              1241.9779              1245.3140
 Red. masses --      1.7497                 1.3774                 2.3400
 Frc consts  --      1.5522                 1.2518                 2.1381
 IR Inten    --     17.9907                 1.5434                32.3638

                     46                     47                     48
                      A                      A                      A
 Frequencies --   1294.0918              1307.8849              1321.8562
 Red. masses --      2.1726                 1.2273                 1.4580
 Frc consts  --      2.1436                 1.2369                 1.5010
 IR Inten    --      2.4194                 1.2179                 2.8594

                     49                     50                     51
                      A                      A                      A
 Frequencies --   1338.7815              1358.8180              1384.8890
 Red. masses --      1.5131                 1.3994                 1.3137
 Frc consts  --      1.5979                 1.5223                 1.4845
 IR Inten    --     21.4287                18.2783                22.6029

                     52                     53                     54
                      A                      A                      A
 Frequencies --   1393.2658              1414.0625              1439.2311
 Red. masses --      1.3941                 1.6403                 1.2798
 Frc consts  --      1.5945                 1.9324                 1.5619
 IR Inten    --     12.8614                41.1945                 0.6301

                     55                     56                     57
                      A                      A                      A
 Frequencies --   1446.3495              1471.0383              1498.7067
 Red. masses --      1.5021                 1.5070                 1.2506
 Frc consts  --      1.8514                 1.9214                 1.6550
 IR Inten    --     17.2005               101.4901                 0.3283

                     58                     59                     60
                      A                      A                      A
 Frequencies --   1504.3386              1509.2250              1509.6039
 Red. masses --      1.0889                 1.0966                 1.0478
 Frc consts  --      1.4519                 1.4716                 1.4069
 IR Inten    --      7.5145                 6.1649                 6.0703

                     61                     62                     63
                      A                      A                      A
 Frequencies --   1511.3137              1514.8244              1520.7172
 Red. masses --      1.2400                 2.0547                 1.1646
 Frc consts  --      1.6687                 2.7780                 1.5868
 IR Inten    --     24.9156                48.3167                 6.9699

                     64                     65                     66
                      A                      A                      A
 Frequencies --   1524.9134              1530.0087              1537.2718
 Red. masses --      1.1228                 1.1098                 1.1033
 Frc consts  --      1.5383                 1.5306                 1.5362
 IR Inten    --      2.7951                 3.6720                 4.1685

                     67                     68                     69
                      A                      A                      A
 Frequencies --   1583.1788              1694.3762              2908.0487
 Red. masses --      4.7619                 8.5492                 1.0739
 Frc consts  --      7.0322                14.4609                 5.3509
 IR Inten    --    138.4329                56.6759                55.3806

                     70                     71                     72
                      A                      A                      A
 Frequencies --   2920.5157              3036.7753              3048.8358
 Red. masses --      1.0719                 1.0651                 1.0610
 Frc consts  --      5.3867                 5.7869                 5.8110
 IR Inten    --    109.6102                19.4544                23.6886

                     73                     74                     75
                      A                      A                      A
 Frequencies --   3057.4107              3061.3242              3066.8655
 Red. masses --      1.0403                 1.0305                 1.0825
 Frc consts  --      5.7294                 5.6900                 5.9991
 IR Inten    --     20.6110                40.4296                10.8734

                     76                     77                     78
                      A                      A                      A
 Frequencies --   3083.7439              3085.4777              3090.5863
 Red. masses --      1.0881                 1.0960                 1.0911
 Frc consts  --      6.0962                 6.1476                 6.1405
 IR Inten    --     56.1486                54.2684                 7.9516

                     79                     80                     81
                      A                      A                      A
 Frequencies --   3096.1417              3112.4836              3130.3856
 Red. masses --      1.1039                 1.0999                 1.1073
 Frc consts  --      6.2348                 6.2778                 6.3929
 IR Inten    --     59.7720                 9.0500                23.9137

                     82                     83                     84
                      A                      A                      A
 Frequencies --   3164.7250              3175.9201              3505.0981
 Red. masses --      1.0988                 1.1059                 1.0747
 Frc consts  --      6.4839                 6.5721                 7.7793
 IR Inten    --     10.6342                21.5623                 1.7403

 - Thermochemistry -
 -------------------
 Temperature   298.150 Kelvin.  Pressure   1.00000 Atm.
 Atom     1 has atomic number  6 and mass  12.00000

 Molecular mass:   196.12118 amu.
 Principal axes and moments of inertia in atomic units:
                           1         2         3
     Eigenvalues --  1685.206404003.708314953.81112
           X            0.99968  -0.02519  -0.00310
           Y            0.02518   0.99967  -0.00463
           Z            0.00321   0.00455   0.99998
 This molecule is an asymmetric top.
 Rotational symmetry number  1.
 Warning -- assumption of classical behavior for rotation
           may cause significant error
 Rotational temperatures (Kelvin)      0.05140     0.02163     0.01748
 Rotational constants (GHZ):           1.07093     0.45077     0.36431
 Zero-point vibrational energy     682321.1 (Joules/Mol)
                                  163.07866 (Kcal/Mol)
 Warning -- explicit consideration of  20 degrees of freedom as
           vibrations may cause significant error
 Vibrational temperatures:     34.10   101.22   113.24   148.63   157.37
          (Kelvin)            240.35   248.67   296.81   314.14   356.30
                              416.54   491.76   513.41   541.41   624.38
                              634.85   666.58   745.54   778.50   892.05
                              990.22  1064.67  1070.14  1118.54  1154.52
                             1226.55  1282.65  1290.86  1367.36  1373.61
                             1403.17  1445.83  1485.33  1493.13  1541.86
                             1548.93  1592.07  1602.03  1666.99  1690.80
                             1709.07  1711.65  1765.50  1786.93  1791.73
                             1861.91  1881.75  1901.86  1926.21  1955.04
                             1992.55  2004.60  2034.52  2070.73  2080.97
                             2116.50  2156.30  2164.41  2171.44  2171.98
                             2174.44  2179.49  2187.97  2194.01  2201.34
                             2211.79  2277.84  2437.83  4184.03  4201.97
                             4369.24  4386.59  4398.93  4404.56  4412.54
                             4436.82  4439.31  4446.66  4454.66  4478.17
                             4503.93  4553.33  4569.44  5043.05

 Zero-point correction=                           0.259882 (Hartree/Particle)
 Thermal correction to Energy=                    0.273502
 Thermal correction to Enthalpy=                  0.274446
 Thermal correction to Gibbs Free Energy=         0.218666
 Sum of electronic and zero-point Energies=           -650.384840
 Sum of electronic and thermal Energies=              -650.371221
 Sum of electronic and thermal Enthalpies=            -650.370276
 Sum of electronic and thermal Free Energies=         -650.426057

                     E (Thermal)             CV                S
                      KCal/Mol        Cal/Mol-Kelvin    Cal/Mol-Kelvin
 Total                  171.625             51.013            117.401
 Electronic               0.000              0.000              0.000
 Translational            0.889              2.981             41.726
 Rotational               0.889              2.981             31.880
 Vibrational            169.848             45.051             43.795
 Vibration     1          0.593              1.985              6.297
 Vibration     2          0.598              1.968              4.143
 Vibration     3          0.600              1.963              3.923
 Vibration     4          0.605              1.947              3.391
 Vibration     5          0.606              1.942              3.280
 Vibration     6          0.624              1.883              2.468
 Vibration     7          0.626              1.876              2.404
 Vibration     8          0.641              1.831              2.076
 Vibration     9          0.646              1.813              1.973
 Vibration    10          0.661              1.767              1.747
 Vibration    11          0.686              1.693              1.477
 Vibration    12          0.721              1.592              1.204
 Vibration    13          0.732              1.561              1.136
 Vibration    14          0.747              1.521              1.054
 Vibration    15          0.795              1.396              0.846
 Vibration    16          0.801              1.380              0.823
 Vibration    17          0.821              1.331              0.757
 Vibration    18          0.873              1.210              0.614
 Vibration    19          0.896              1.159              0.563
 Vibration    20          0.980              0.990              0.416

 Optimization completed.
    -- Stationary point found.
 Normal termination of Gaussian 16 at Thu Dec 10 10:29:44 2020.

 ----------------------------------------------------------------------
 # B3LYP/6-311++G(d,p) empiricaldispersion=gd3bj scf=xqc pop=npa geom=c
 heck
 ----------------------------------------------------------------------

 ---------------------------------------
 CID_130117599_JID_4657_Energie_neutraal
 ---------------------------------------
 Structure from the checkpoint file:  "JID_4657.chk"
 Charge =  0 Multiplicity = 1

 SCF Done:  E(RB3LYP) =  -650.825814357     A.U. after   15 cycles
 Normal termination of Gaussian 16 at Thu Dec 10 10:33:16 2020.

 ----------------------------------------------------------------------
 # B3LYP/6-311++G(d,p) empiricaldispersion=gd3bj scf=xqc pop=npa geom=c
 heck
 ----------------------------------------------------------------------

 -------------------------------------
 CID_130117599_JID_4657_Energie_kation
 -------------------------------------
 Structure from the checkpoint file:  "JID_4657.chk"
 Charge =  1 Multiplicity = 2

 SCF Done:  E(UB3LYP) =  -650.522214484     A.U. after   33 cycles
 SCF Done:  E(UB3LYP) =  -650.522214484     a.u. after    1 cycles
 Normal termination of Gaussian 16 at Thu Dec 10 10:44:29 2020.
 Gaussian 16:  ES64L-G16RevA.03 25-Dec-2016

 ----------------------------------------------------------------------
 # B3LYP/6-311++G(d,p) empiricaldispersion=gd3bj scf=xqc pop=npa geom=c
 heck
 ----------------------------------------------------------------------

 ------------------------------------
 CID_130117599_JID_4657_Energie_anion
 ------------------------------------
 Structure from the checkpoint file:  "JID_4657.chk"
 Charge = -1 Multiplicity = 2

                         Standard orientation:
 ---------------------------------------------------------------------
 Center     Atomic      Atomic             Coordinates (Angstroms)
 Number     Number       Type             X           Y           Z
 ---------------------------------------------------------------------
      1          6           0        0.238820    2.889360   -0.036776
      2          6           0        0.974124    1.593767   -0.025749
      3          6           0        0.596356    0.281625    0.016202
      4          6           0        1.856258   -0.400600    0.014450
      5          7           0        2.894273    0.404542   -0.021989
      6          8           0        2.326777    1.692307   -0.048533
      7          8           0        1.962902   -1.737789    0.047821
      8          6           0        3.300336   -2.250820    0.043130
      9          6           0       -0.755123   -0.371886    0.052916
     10          6           0       -1.602828    0.056824    1.268046
     11          6           0       -2.980209   -0.616964    1.240036
     12          6           0       -3.671969   -0.371250   -0.102718
     13          7           0       -2.816840   -0.861501   -1.183209
     14          6           0       -1.548363   -0.141399   -1.247371
     15          1           0        0.381622    3.429074    0.907053
     16          1           0        0.607011    3.531706   -0.843969
     17          1           0       -0.829973    2.724971   -0.182609
     18          1           0        3.828939   -1.937944   -0.862927
     19          1           0        3.852994   -1.891586    0.917096
     20          1           0        3.199826   -3.336247    0.072691
     21          1           0       -0.591315   -1.453230    0.126870
     22          1           0       -1.068015   -0.181134    2.194726
     23          1           0       -1.734865    1.147584    1.253353
     24          1           0       -2.864155   -1.698794    1.379978
     25          1           0       -3.606410   -0.241617    2.058449
     26          1           0       -4.627333   -0.905882   -0.144953
     27          1           0       -3.894807    0.711692   -0.197228
     28          1           0       -3.301811   -0.782911   -2.073836
     29          1           0       -1.684712    0.948956   -1.395654
     30          1           0       -0.970869   -0.514005   -2.099961
 ---------------------------------------------------------------------

 SCF Done:  E(UB3LYP) =  -650.811738935     A.U. after   33 cycles
 SCF Done:  E(UB3LYP) =  -650.811738935     a.u. after    1 cycles

 The electronic state is 2-A.
 Alpha  occ. eigenvalues --  -19.10541 -19.07927 -14.25323 -14.19456 -10.16668
 Alpha  occ. eigenvalues --  -10.14739 -10.13869 -10.09072 -10.08677 -10.08651
 Alpha  occ. eigenvalues --  -10.08462 -10.08395 -10.06866 -10.06479  -1.04280
 Alpha  occ. eigenvalues --   -0.99570  -0.81161  -0.76741  -0.73292  -0.68260
 Alpha  occ. eigenvalues --   -0.65538  -0.64024  -0.61753  -0.54152  -0.53485
 Alpha  occ. eigenvalues --   -0.50101  -0.48645  -0.45369  -0.43132  -0.41238
 Alpha  occ. eigenvalues --   -0.39985  -0.36978  -0.36903  -0.36282  -0.35278
 Alpha  occ. eigenvalues --   -0.34364  -0.32915  -0.31910  -0.31696  -0.31227
 Alpha  occ. eigenvalues --   -0.30739  -0.29637  -0.28821  -0.27330  -0.26696
 Alpha  occ. eigenvalues --   -0.24901  -0.23256  -0.22904  -0.22032  -0.20824
 Alpha  occ. eigenvalues --   -0.16401  -0.15426  -0.12780   0.04357
 Alpha virt. eigenvalues --    0.05831   0.06951   0.07442   0.08248   0.08634
 Alpha virt. eigenvalues --    0.09265   0.09501   0.09678   0.10246   0.10925
 Alpha virt. eigenvalues --    0.11456   0.11778   0.12696   0.13140   0.13608

  Beta  occ. eigenvalues --  -19.10538 -19.07924 -14.25318 -14.19431 -10.16668
  Beta  occ. eigenvalues --  -10.14737 -10.13846 -10.09050 -10.08648 -10.08610
  Beta  occ. eigenvalues --  -10.08459 -10.08395 -10.06850 -10.06467  -1.04276
  Beta  occ. eigenvalues --   -0.99564  -0.81123  -0.76732  -0.73277  -0.68230
  Beta  occ. eigenvalues --   -0.65499  -0.63988  -0.61708  -0.54102  -0.53440
  Beta  occ. eigenvalues --   -0.50080  -0.48605  -0.45315  -0.43103  -0.41169
  Beta  occ. eigenvalues --   -0.39972  -0.36951  -0.36873  -0.36258  -0.35234
  Beta  occ. eigenvalues --   -0.34329  -0.32878  -0.31873  -0.31660  -0.31197
  Beta  occ. eigenvalues --   -0.30705  -0.29609  -0.28786  -0.27307  -0.26682
  Beta  occ. eigenvalues --   -0.24861  -0.23226  -0.22873  -0.21994  -0.20804
  Beta  occ. eigenvalues --   -0.16394  -0.15411  -0.12720
  Beta virt. eigenvalues --    0.06261   0.06945   0.07774   0.08033   0.08541
  Beta virt. eigenvalues --    0.08980   0.09662   0.09971   0.10070   0.10831
  Beta virt. eigenvalues --    0.11281   0.11788   0.12135   0.13122   0.13504

 Mulliken charges and spin densities:
               1          2
     1  C    1.603981  -2.091493
     2  C   -1.153103   0.618522
     3  C    0.356478   0.391816
     4  C    0.188945   0.138544
     5  N   -0.529846   0.120285
     6  O    0.190962  -0.014906
     7  O   -0.169064   0.031033
     8  C    0.349848  -0.680469
     9  C   -0.268825  -0.137219
    10  C   -0.112440  -0.066283
    11  C   -0.599870   0.208278
    12  C    1.297765  -1.679330
    13  N   -0.403660   0.294216
    14  C    0.358921  -0.944825
    15  H   -0.281837   0.471181
    16  H   -0.246124   0.416281
    17  H   -0.168627   0.332556
    18  H   -0.020086   0.198282
    19  H   -0.023279   0.200490
    20  H   -0.200291   0.347692
    21  H    0.293107  -0.078826
    22  H   -0.176108   0.342175
    23  H    0.145698  -0.013561
    24  H    0.147658  -0.026341
    25  H   -0.344012   0.512590
    26  H   -0.280944   0.460395
    27  H   -0.334460   0.444104
    28  H   -0.168384   0.420371
    29  H   -0.329440   0.452302
    30  H   -0.122962   0.332140
 Sum of Mulliken charges =  -1.00000   1.00000

 Dipole moment (field-independent basis, Debye):
    X=              4.2485    Y=             -2.3186    Z=              1.4372  Tot=              5.0489
 Quadrupole moment (field-independent basis, Debye-Ang):
   XX=           -162.0541   YY=           -132.6255   ZZ=           -120.1735
   XY=              2.7071   XZ=             -4.7090   YZ=             -1.8382

 Summary of Natural Population Analysis:

                                       Natural Population
                Natural  -----------------------------------------------
    Atom  No    Charge         Core      Valence    Rydberg      Total
 -----------------------------------------------------------------------
      C    1   -0.31097      0.99962     2.30480    0.00655     3.31097
      C    2    0.18633      0.99945     1.80055    0.01367     2.81367
      C    3   -0.08757      0.99940     2.07661    0.01156     3.08757
      C    4    0.25255      0.99945     1.73091    0.01709     2.74745
      N    5   -0.12701      0.99965     2.61544    0.01192     3.62701
      O    6   -0.17396      0.99985     3.16499    0.00912     4.17396
      O    7   -0.26530      0.99985     3.25741    0.00803     4.26530
      C    8   -0.10007      0.99960     2.09253    0.00794     3.10007
      C    9   -0.12556      0.99956     2.11497    0.01103     3.12556
      C   10   -0.18414      0.99961     2.17621    0.00832     3.18414
      C   11   -0.19314      0.99963     2.18460    0.00891     3.19314
      C   12   -0.08689      0.99962     2.07551    0.01176     3.08689
      N   13   -0.34118      0.99974     2.82900    0.01244     3.84118
      C   14   -0.07960      0.99960     2.06827    0.01173     3.07960
      H   15    0.11184      0.00000     0.38680    0.00136     0.38816
      H   16    0.11205      0.00000     0.38662    0.00134     0.38795
      H   17    0.11417      0.00000     0.38412    0.00171     0.38583
      H   18    0.08951      0.00000     0.40853    0.00196     0.41049
      H   19    0.08918      0.00000     0.40887    0.00196     0.41082
      H   20    0.09060      0.00000     0.40808    0.00132     0.40940
      H   21    0.10915      0.00000     0.38799    0.00286     0.39085
      H   22    0.10013      0.00000     0.39877    0.00110     0.39987
      H   23    0.09536      0.00000     0.40277    0.00188     0.40464
      H   24    0.09504      0.00000     0.40353    0.00144     0.40496
      H   25    0.09994      0.00000     0.39903    0.00103     0.40006
      H   26    0.09556      0.00000     0.40303    0.00141     0.40444
      H   27    0.07910      0.00000     0.41821    0.00269     0.42090
      H   28    0.17855      0.00000     0.31775    0.00370     0.32145
      H   29    0.07863      0.00000     0.41895    0.00242     0.42137
      H   30    0.09772      0.00000     0.40100    0.00128     0.40228
 =======================================================================
   * Total *    0.00000     13.99462    38.82585    0.17953    53.00000

 Normal termination of Gaussian 16 at Thu Dec 10 10:54:54 2020.
