 Gaussian 16, Revision A.03,

 -----------------------------------------------------------
 # opt freq B3LYP/6-31G(d) empiricaldispersion=gd3bj scf=xqc
 -----------------------------------------------------------

 ------------------------------
 CID_64499326_JID_7825_neutraal
 ------------------------------
 Symbolic Z-matrix:
 Charge =  0 Multiplicity = 1

 SCF Done:  E(RB3LYP) =  -679.583277618     A.U. after   13 cycles
 SCF Done:  E(RB3LYP) =  -679.587839758     A.U. after   11 cycles
 SCF Done:  E(RB3LYP) =  -679.588406700     A.U. after   11 cycles
 SCF Done:  E(RB3LYP) =  -679.588647021     A.U. after   11 cycles
 SCF Done:  E(RB3LYP) =  -679.588995980     A.U. after   11 cycles
 SCF Done:  E(RB3LYP) =  -679.589239361     A.U. after   12 cycles
 SCF Done:  E(RB3LYP) =  -679.589471192     A.U. after   10 cycles
 SCF Done:  E(RB3LYP) =  -679.589625007     A.U. after   11 cycles
 SCF Done:  E(RB3LYP) =  -679.589652726     A.U. after   10 cycles
 SCF Done:  E(RB3LYP) =  -679.589648897     A.U. after   10 cycles
 SCF Done:  E(RB3LYP) =  -679.590126432     A.U. after    9 cycles
 SCF Done:  E(RB3LYP) =  -679.590127977     A.U. after    9 cycles
 SCF Done:  E(RB3LYP) =  -679.590128307     A.U. after    7 cycles
 SCF Done:  E(RB3LYP) =  -679.590128348     A.U. after    6 cycles
 SCF Done:  E(RB3LYP) =  -679.590128378     A.U. after    6 cycles
 Optimization completed.
    -- Stationary point found.
 Normal termination of Gaussian 16 at Fri Dec 11 13:32:38 2020.

 --------------------------------------------------------------------
 #N Geom=AllCheck Guess=TCheck SCRF=Check GenChk RB3LYP/6-31G(d) Freq
 --------------------------------------------------------------------

 Structure from the checkpoint file:  "JID_7825.chk"
 ------------------------------
 CID_64499326_JID_7825_neutraal
 ------------------------------
 Charge =  0 Multiplicity = 1

 SCF Done:  E(RB3LYP) =  -679.590128378     A.U. after    1 cycles

  Exact polarizability: 192.937  -0.152 179.437  15.271  10.665 125.642
 Approx polarizability: 266.036  -5.094 266.461  29.705  22.732 194.251

                      1                      2                      3
                      A                      A                      A
 Frequencies --     15.6619                35.0289                41.1209
 Red. masses --      4.3395                 3.4717                 3.4977
 Frc consts  --      0.0006                 0.0025                 0.0035
 IR Inten    --      0.0187                 0.0787                 0.0073

                      4                      5                      6
                      A                      A                      A
 Frequencies --     58.6456                82.3292               104.8830
 Red. masses --      3.8447                 3.2063                 2.5702
 Frc consts  --      0.0078                 0.0128                 0.0167
 IR Inten    --      0.0535                 0.2969                 0.0076

                      7                      8                      9
                      A                      A                      A
 Frequencies --    119.5500               169.2342               211.9808
 Red. masses --      2.5949                 3.2799                 2.5515
 Frc consts  --      0.0219                 0.0553                 0.0676
 IR Inten    --      0.0257                 0.3866                 1.7722

                     10                     11                     12
                      A                      A                      A
 Frequencies --    214.9057               225.2172               243.5006
 Red. masses --      2.6741                 2.8793                 1.1955
 Frc consts  --      0.0728                 0.0860                 0.0418
 IR Inten    --      0.2793                 0.2006                 0.0858

                     13                     14                     15
                      A                      A                      A
 Frequencies --    300.1717               311.4199               354.7483
 Red. masses --      2.4288                 2.2966                 2.0125
 Frc consts  --      0.1289                 0.1312                 0.1492
 IR Inten    --      3.7259                 0.3988                 0.8518

                     16                     17                     18
                      A                      A                      A
 Frequencies --    381.7577               393.4287               417.9271
 Red. masses --      2.0582                 2.4777                 2.9915
 Frc consts  --      0.1767                 0.2260                 0.3079
 IR Inten    --      0.1607                 0.3130                 0.0394

                     19                     20                     21
                      A                      A                      A
 Frequencies --    422.9033               438.0093               494.7111
 Red. masses --      2.0750                 2.3194                 3.4269
 Frc consts  --      0.2187                 0.2622                 0.4942
 IR Inten    --      0.0448                 0.4026                 3.8799

                     22                     23                     24
                      A                      A                      A
 Frequencies --    527.1176               602.7643               603.8595
 Red. masses --      2.5351                 1.8551                 2.5973
 Frc consts  --      0.4150                 0.3971                 0.5580
 IR Inten    --      2.8044                28.0645                 2.5792

                     25                     26                     27
                      A                      A                      A
 Frequencies --    638.2837               653.4528               713.7370
 Red. masses --      6.3324                 2.0784                 2.1615
 Frc consts  --      1.5200                 0.5229                 0.6488
 IR Inten    --      0.1242                48.3995                13.5930

                     28                     29                     30
                      A                      A                      A
 Frequencies --    722.5100               746.0061               758.8839
 Red. masses --      2.1606                 1.4979                 2.0682
 Frc consts  --      0.6645                 0.4912                 0.7018
 IR Inten    --      7.9378                 6.5633                21.8707

                     31                     32                     33
                      A                      A                      A
 Frequencies --    768.9214               803.7998               811.0894
 Red. masses --      2.4195                 1.3140                 2.5421
 Frc consts  --      0.8428                 0.5002                 0.9853
 IR Inten    --      4.4769                 3.5680                 8.6582

                     34                     35                     36
                      A                      A                      A
 Frequencies --    847.9435               859.5049               861.7052
 Red. masses --      2.4276                 1.9057                 1.3866
 Frc consts  --      1.0284                 0.8295                 0.6066
 IR Inten    --      0.2342                 2.4704                 0.4824

                     37                     38                     39
                      A                      A                      A
 Frequencies --    893.2068               910.6076               919.4651
 Red. masses --      1.8849                 2.0793                 1.5066
 Frc consts  --      0.8860                 1.0158                 0.7504
 IR Inten    --      0.8217                15.3036                 3.9664

                     40                     41                     42
                      A                      A                      A
 Frequencies --    945.8137               951.3643               966.0484
 Red. masses --      2.0581                 2.0409                 1.3499
 Frc consts  --      1.0848                 1.0883                 0.7422
 IR Inten    --      0.3680                 1.0657                 0.2783

                     43                     44                     45
                      A                      A                      A
 Frequencies --    981.9692               992.9802               995.9697
 Red. masses --      1.7567                 1.3455                 1.5119
 Frc consts  --      0.9980                 0.7817                 0.8836
 IR Inten    --      4.2009                 0.9345                 0.1043

                     46                     47                     48
                      A                      A                      A
 Frequencies --   1021.3040              1024.7244              1031.1364
 Red. masses --      4.6259                 2.2107                 1.7727
 Frc consts  --      2.8428                 1.3677                 1.1105
 IR Inten    --      0.6436                 1.1780                 2.3860

                     49                     50                     51
                      A                      A                      A
 Frequencies --   1053.2053              1055.9728              1063.1388
 Red. masses --      1.5270                 2.2387                 2.0906
 Frc consts  --      0.9979                 1.4708                 1.3922
 IR Inten    --      1.3710                 0.6485                 3.6926

                     52                     53                     54
                      A                      A                      A
 Frequencies --   1074.3337              1093.6661              1114.3390
 Red. masses --      2.2108                 1.6742                 1.3777
 Frc consts  --      1.5034                 1.1798                 1.0080
 IR Inten    --      0.7589                 5.5417                 2.1202

                     55                     56                     57
                      A                      A                      A
 Frequencies --   1122.1969              1159.5082              1169.5196
 Red. masses --      1.6719                 2.3392                 2.0589
 Frc consts  --      1.2405                 1.8530                 1.6592
 IR Inten    --      7.2860                 4.5533                25.6038

                     58                     59                     60
                      A                      A                      A
 Frequencies --   1193.3811              1200.1143              1208.3061
 Red. masses --      1.0979                 1.5993                 1.3866
 Frc consts  --      0.9212                 1.3571                 1.1928
 IR Inten    --      0.3796                 2.9876                 6.2806

                     61                     62                     63
                      A                      A                      A
 Frequencies --   1214.9989              1219.5549              1237.2216
 Red. masses --      1.2011                 1.4328                 2.4228
 Frc consts  --      1.0447                 1.2555                 2.1851
 IR Inten    --      3.9180                12.0494                 0.4849

                     64                     65                     66
                      A                      A                      A
 Frequencies --   1245.2471              1271.4691              1281.4712
 Red. masses --      1.4228                 1.4247                 1.4900
 Frc consts  --      1.2999                 1.3570                 1.4416
 IR Inten    --      1.6431                10.0318                 7.8112

                     67                     68                     69
                      A                      A                      A
 Frequencies --   1302.7773              1318.9246              1328.5948
 Red. masses --      1.2808                 1.2587                 1.3145
 Frc consts  --      1.2808                 1.2901                 1.3671
 IR Inten    --      0.1232                 0.9532                 1.3807

                     70                     71                     72
                      A                      A                      A
 Frequencies --   1335.4705              1346.3674              1351.6818
 Red. masses --      1.2820                 1.4392                 1.8394
 Frc consts  --      1.3471                 1.5371                 1.9801
 IR Inten    --      3.2340                 4.0753                 0.4086

                     73                     74                     75
                      A                      A                      A
 Frequencies --   1362.0140              1367.3080              1381.0631
 Red. masses --      1.4645                 1.9238                 1.4036
 Frc consts  --      1.6007                 2.1191                 1.5773
 IR Inten    --      2.4441                 0.3884                 0.7367

                     76                     77                     78
                      A                      A                      A
 Frequencies --   1390.6249              1391.8983              1406.5388
 Red. masses --      1.4332                 1.3847                 1.4755
 Frc consts  --      1.6329                 1.5806                 1.7199
 IR Inten    --     11.7782                 1.9440                 1.3822

                     79                     80                     81
                      A                      A                      A
 Frequencies --   1413.1922              1429.0896              1441.2956
 Red. masses --      1.2465                 1.2666                 1.2497
 Frc consts  --      1.4667                 1.5241                 1.5295
 IR Inten    --     10.7295                10.4011                 3.9180

                     82                     83                     84
                      A                      A                      A
 Frequencies --   1501.1198              1504.0461              1509.6744
 Red. masses --      1.9315                 1.0981                 1.1088
 Frc consts  --      2.5644                 1.4635                 1.4889
 IR Inten    --      2.0347                 7.2399                 4.7226

                     85                     86                     87
                      A                      A                      A
 Frequencies --   1513.2985              1515.9820              1523.5412
 Red. masses --      1.0909                 1.0877                 1.1296
 Frc consts  --      1.4719                 1.4728                 1.5448
 IR Inten    --      0.6182                 2.3475                10.2244

                     88                     89                     90
                      A                      A                      A
 Frequencies --   1525.4631              1530.1524              1532.6380
 Red. masses --      1.1102                 1.0514                 1.1854
 Frc consts  --      1.5222                 1.4504                 1.6405
 IR Inten    --      1.8282                 6.5762                54.3326

                     91                     92                     93
                      A                      A                      A
 Frequencies --   1537.8961              1540.0435              1548.6905
 Red. masses --      1.0801                 1.1220                 2.1801
 Frc consts  --      1.5051                 1.5678                 3.0808
 IR Inten    --      5.6475                13.8907                12.5396

                     94                     95                     96
                      A                      A                      A
 Frequencies --   1645.7353              1668.0122              3020.0442
 Red. masses --      5.4483                 5.6219                 1.0679
 Frc consts  --      8.6942                 9.2157                 5.7384
 IR Inten    --      0.7413                 4.4245                11.0074

                     97                     98                     99
                      A                      A                      A
 Frequencies --   3030.2542              3030.3879              3035.7437
 Red. masses --      1.0750                 1.0664                 1.0740
 Frc consts  --      5.8159                 5.7699                 5.8313
 IR Inten    --     20.1279                 8.7927                12.7911

                    100                    101                    102
                      A                      A                      A
 Frequencies --   3040.7846              3041.9142              3043.8130
 Red. masses --      1.0631                 1.0635                 1.0408
 Frc consts  --      5.7916                 5.7979                 5.6815
 IR Inten    --     61.6116                37.3679                39.5526

                    103                    104                    105
                      A                      A                      A
 Frequencies --   3047.0903              3055.4566              3061.0872
 Red. masses --      1.0658                 1.0776                 1.0971
 Frc consts  --      5.8303                 5.9271                 6.0569
 IR Inten    --     34.6778                10.3795                45.5075

                    106                    107                    108
                      A                      A                      A
 Frequencies --   3068.9638              3071.3564              3087.8726
 Red. masses --      1.0999                 1.0762                 1.1014
 Frc consts  --      6.1035                 5.9816                 6.1875
 IR Inten    --     10.7271                85.6546                65.8078

                    109                    110                    111
                      A                      A                      A
 Frequencies --   3100.7129              3103.1852              3107.9640
 Red. masses --      1.0955                 1.0950                 1.1019
 Frc consts  --      6.2059                 6.2128                 6.2708
 IR Inten    --     74.5930                21.2288                70.1540

                    112                    113                    114
                      A                      A                      A
 Frequencies --   3113.1993              3117.3653              3131.7484
 Red. masses --      1.1020                 1.1014                 1.0919
 Frc consts  --      6.2928                 6.3061                 6.3097
 IR Inten    --     36.9237                35.4655                35.5970

                    115                    116                    117
                      A                      A                      A
 Frequencies --   3170.1579              3176.0242              3188.4283
 Red. masses --      1.0869                 1.0864                 1.0892
 Frc consts  --      6.4357                 6.4569                 6.5241
 IR Inten    --     16.3798                 5.6122                 6.8093

                    118                    119                    120
                      A                      A                      A
 Frequencies --   3197.0353              3210.0260              3547.0824
 Red. masses --      1.0936                 1.0978                 1.0730
 Frc consts  --      6.5859                 6.6649                 7.9543
 IR Inten    --     40.8977                22.2168                 1.1104

 - Thermochemistry -
 -------------------
 Temperature   298.150 Kelvin.  Pressure   1.00000 Atm.
 Atom     1 has atomic number  6 and mass  12.00000

 Molecular mass:   231.19870 amu.
 Principal axes and moments of inertia in atomic units:
                           1         2         3
     Eigenvalues --  2703.968175954.853927518.87060
           X            0.99975  -0.02173   0.00457
           Y            0.02171   0.99976   0.00376
           Z           -0.00465  -0.00366   0.99998
 This molecule is an asymmetric top.
 Rotational symmetry number  1.
 Warning -- assumption of classical behavior for rotation
           may cause significant error
 Rotational temperatures (Kelvin)      0.03203     0.01455     0.01152
 Rotational constants (GHZ):           0.66744     0.30307     0.24003
 Zero-point vibrational energy    1008031.9 (Joules/Mol)
                                  240.92542 (Kcal/Mol)
 Warning -- explicit consideration of  24 degrees of freedom as
           vibrations may cause significant error
 Vibrational temperatures:     22.53    50.40    59.16    84.38   118.45
          (Kelvin)            150.90   172.01   243.49   304.99   309.20
                              324.04   350.34   431.88   448.06   510.40
                              549.26   566.06   601.30   608.46   630.20
                              711.78   758.40   867.24   868.82   918.35
                              940.17  1026.91  1039.53  1073.34  1091.86
                             1106.31  1156.49  1166.98  1220.00  1236.64
                             1239.80  1285.13  1310.16  1322.91  1360.81
                             1368.80  1389.93  1412.83  1428.68  1432.98
                             1469.43  1474.35  1483.58  1515.33  1519.31
                             1529.62  1545.73  1573.54  1603.29  1614.59
                             1668.27  1682.68  1717.01  1726.70  1738.48
                             1748.11  1754.67  1780.09  1791.63  1829.36
                             1843.75  1874.41  1897.64  1911.55  1921.44
                             1937.12  1944.77  1959.63  1967.25  1987.04
                             2000.80  2002.63  2023.70  2033.27  2056.14
                             2073.70  2159.78  2163.99  2172.08  2177.30
                             2181.16  2192.04  2194.80  2201.55  2205.12
                             2212.69  2215.78  2228.22  2367.85  2399.90
                             4345.17  4359.86  4360.05  4367.76  4375.01
                             4376.64  4379.37  4384.08  4396.12  4404.22
                             4415.55  4419.00  4442.76  4461.23  4464.79
                             4471.67  4479.20  4485.19  4505.89  4561.15
                             4569.59  4587.44  4599.82  4618.51  5103.46

 Zero-point correction=                           0.383939 (Hartree/Particle)
 Thermal correction to Energy=                    0.400700
 Thermal correction to Enthalpy=                  0.401644
 Thermal correction to Gibbs Free Energy=         0.337743
 Sum of electronic and zero-point Energies=           -679.206189
 Sum of electronic and thermal Energies=              -679.189428
 Sum of electronic and thermal Enthalpies=            -679.188484
 Sum of electronic and thermal Free Energies=         -679.252385

                     E (Thermal)             CV                S
                      KCal/Mol        Cal/Mol-Kelvin    Cal/Mol-Kelvin
 Total                  251.443             65.909            134.491
 Electronic               0.000              0.000              0.000
 Translational            0.889              2.981             42.216
 Rotational               0.889              2.981             33.159
 Vibrational            249.666             59.947             59.116
 Vibration     1          0.593              1.986              7.120
 Vibration     2          0.594              1.982              5.522
 Vibration     3          0.594              1.981              5.204
 Vibration     4          0.596              1.974              4.502
 Vibration     5          0.600              1.961              3.835
 Vibration     6          0.605              1.945              3.361
 Vibration     7          0.609              1.933              3.108
 Vibration     8          0.625              1.880              2.444
 Vibration     9          0.643              1.823              2.027
 Vibration    10          0.645              1.818              2.002
 Vibration    11          0.650              1.803              1.917
 Vibration    12          0.659              1.774              1.777
 Vibration    13          0.693              1.673              1.416
 Vibration    14          0.700              1.652              1.355
 Vibration    15          0.731              1.566              1.145
 Vibration    16          0.751              1.509              1.032
 Vibration    17          0.761              1.484              0.987
 Vibration    18          0.781              1.431              0.899
 Vibration    19          0.785              1.420              0.882
 Vibration    20          0.798              1.387              0.833
 Vibration    21          0.850              1.262              0.671
 Vibration    22          0.882              1.190              0.594
 Vibration    23          0.961              1.026              0.445
 Vibration    24          0.962              1.024              0.443

 Optimization completed.
    -- Stationary point found.
 Normal termination of Gaussian 16 at Fri Dec 11 13:54:20 2020.

 ----------------------------------------------------------------------
 # B3LYP/6-311++G(d,p) empiricaldispersion=gd3bj scf=xqc pop=npa geom=c
 heck
 ----------------------------------------------------------------------

 --------------------------------------
 CID_64499326_JID_7825_Energie_neutraal
 --------------------------------------
 Structure from the checkpoint file:  "JID_7825.chk"
 Charge =  0 Multiplicity = 1

 SCF Done:  E(RB3LYP) =  -679.772703460     A.U. after   14 cycles
 Normal termination of Gaussian 16 at Fri Dec 11 14:04:16 2020.

 ----------------------------------------------------------------------
 # B3LYP/6-311++G(d,p) empiricaldispersion=gd3bj scf=xqc pop=npa geom=c
 heck
 ----------------------------------------------------------------------

 ------------------------------------
 CID_64499326_JID_7825_Energie_kation
 ------------------------------------
 Structure from the checkpoint file:  "JID_7825.chk"
 Charge =  1 Multiplicity = 2

 SCF Done:  E(UB3LYP) =  -679.492620162     A.U. after   23 cycles
 Normal termination of Gaussian 16 at Fri Dec 11 14:27:15 2020.
 Gaussian 16:  ES64L-G16RevA.03 25-Dec-2016

 ----------------------------------------------------------------------
 # B3LYP/6-311++G(d,p) empiricaldispersion=gd3bj scf=xqc pop=npa geom=c
 heck
 ----------------------------------------------------------------------

 -----------------------------------
 CID_64499326_JID_7825_Energie_anion
 -----------------------------------
 Structure from the checkpoint file:  "JID_7825.chk"
 Charge = -1 Multiplicity = 2

                         Standard orientation:
 ---------------------------------------------------------------------
 Center     Atomic      Atomic             Coordinates (Angstroms)
 Number     Number       Type             X           Y           Z
 ---------------------------------------------------------------------
      1          6           0       -2.742796    3.006701   -0.531304
      2          6           0       -2.578994    1.908775    0.522294
      3          6           0       -3.153177    0.551872    0.090068
      4          6           0       -2.450277   -0.032517   -1.170722
      5          6           0       -2.231719   -1.522060   -0.863224
      6          6           0       -1.933206   -1.536314    0.656942
      7          6           0       -3.000539   -0.550674    1.180321
      8          7           0       -0.606538   -1.092927    1.075695
      9          6           0        0.512178   -2.019615    0.993127
     10          6           0        1.060009   -2.416353   -0.394310
     11          6           0        1.383796   -1.223024   -1.316405
     12          6           0        2.223897   -0.149982   -0.658887
     13          6           0        1.718763    1.142092   -0.471127
     14          6           0        2.475631    2.127813    0.164698
     15          6           0        3.758733    1.834150    0.623877
     16          6           0        4.278628    0.551164    0.437415
     17          6           0        3.517741   -0.428683   -0.197570
     18          1           0       -2.225106    2.750838   -1.463077
     19          1           0       -2.338679    3.962100   -0.178413
     20          1           0       -3.801379    3.160434   -0.774737
     21          1           0       -1.513388    1.788933    0.767919
     22          1           0       -3.067659    2.222492    1.454263
     23          1           0       -4.218536    0.699498   -0.129949
     24          1           0       -3.019271    0.133616   -2.090506
     25          1           0       -1.479592    0.461725   -1.314595
     26          1           0       -1.450633   -1.981932   -1.473232
     27          1           0       -3.160240   -2.079780   -1.047076
     28          1           0       -2.072989   -2.537953    1.081073
     29          1           0       -2.709059   -0.146462    2.154025
     30          1           0       -3.950955   -1.080550    1.310488
     31          1           0       -0.360703   -0.190835    0.680510
     32          1           0        1.333495   -1.569882    1.563730
     33          1           0        0.225361   -2.933402    1.530222
     34          1           0        1.971665   -3.007402   -0.229851
     35          1           0        0.357529   -3.079287   -0.913629
     36          1           0        1.896722   -1.602307   -2.210139
     37          1           0        0.450770   -0.772654   -1.670188
     38          1           0        0.723192    1.383200   -0.837872
     39          1           0        2.061216    3.123204    0.299402
     40          1           0        4.351066    2.597269    1.120628
     41          1           0        5.279852    0.314333    0.787227
     42          1           0        3.931082   -1.424780   -0.337242
 ---------------------------------------------------------------------

 SCF Done:  E(UB3LYP) =  -679.758777870     A.U. after   33 cycles
 SCF Done:  E(UB3LYP) =  -679.758777870     a.u. after    1 cycles

 The electronic state is 2-A.
 Alpha  occ. eigenvalues --  -14.19437 -10.09934 -10.09372 -10.08912 -10.08433
 Alpha  occ. eigenvalues --  -10.08422 -10.08166 -10.08157 -10.08001 -10.07830
 Alpha  occ. eigenvalues --  -10.07585 -10.07368 -10.07184 -10.06886 -10.06752
 Alpha  occ. eigenvalues --  -10.06522 -10.06351  -0.81228  -0.76843  -0.73556
 Alpha  occ. eigenvalues --   -0.69886  -0.67372  -0.65598  -0.64402  -0.61375
 Alpha  occ. eigenvalues --   -0.59969  -0.57250  -0.52205  -0.51711  -0.51242
 Alpha  occ. eigenvalues --   -0.48162  -0.46996  -0.45727  -0.42410  -0.40544
 Alpha  occ. eigenvalues --   -0.38518  -0.37535  -0.36807  -0.36192  -0.35743
 Alpha  occ. eigenvalues --   -0.35018  -0.33406  -0.33180  -0.32166  -0.32027
 Alpha  occ. eigenvalues --   -0.31445  -0.30314  -0.28789  -0.27995  -0.27448
 Alpha  occ. eigenvalues --   -0.26817  -0.26084  -0.25821  -0.24801  -0.24410
 Alpha  occ. eigenvalues --   -0.24236  -0.23881  -0.22925  -0.22304  -0.22162
 Alpha  occ. eigenvalues --   -0.21721  -0.16551  -0.15666  -0.11960   0.04113
 Alpha virt. eigenvalues --    0.05688   0.06076   0.06841   0.07309   0.07479
 Alpha virt. eigenvalues --    0.07574   0.08007   0.08695   0.09149   0.09370
 Alpha virt. eigenvalues --    0.09460   0.09949   0.11074   0.11226   0.11719

  Beta  occ. eigenvalues --  -14.19433 -10.09928 -10.09365 -10.08886 -10.08423
  Beta  occ. eigenvalues --  -10.08412 -10.08159 -10.08129 -10.07983 -10.07821
  Beta  occ. eigenvalues --  -10.07576 -10.07362 -10.07167 -10.06873 -10.06730
  Beta  occ. eigenvalues --  -10.06506 -10.06343  -0.81215  -0.76801  -0.73534
  Beta  occ. eigenvalues --   -0.69844  -0.67348  -0.65562  -0.64359  -0.61346
  Beta  occ. eigenvalues --   -0.59935  -0.57216  -0.52161  -0.51673  -0.51194
  Beta  occ. eigenvalues --   -0.48124  -0.46965  -0.45692  -0.42362  -0.40503
  Beta  occ. eigenvalues --   -0.38492  -0.37504  -0.36763  -0.36168  -0.35717
  Beta  occ. eigenvalues --   -0.34985  -0.33371  -0.33152  -0.32138  -0.32003
  Beta  occ. eigenvalues --   -0.31417  -0.30282  -0.28747  -0.27955  -0.27419
  Beta  occ. eigenvalues --   -0.26785  -0.26056  -0.25792  -0.24766  -0.24380
  Beta  occ. eigenvalues --   -0.24212  -0.23855  -0.22902  -0.22284  -0.22140
  Beta  occ. eigenvalues --   -0.21695  -0.16503  -0.15548  -0.11938
  Beta virt. eigenvalues --    0.06015   0.06520   0.06695   0.07211   0.07395
  Beta virt. eigenvalues --    0.07941   0.08044   0.08291   0.08940   0.09490
  Beta virt. eigenvalues --    0.09726   0.09850   0.10138   0.11275   0.11502

 Mulliken charges and spin densities:
               1          2
     1  C    0.379309  -1.057113
     2  C   -0.783265   0.500767
     3  C    0.283059   0.145413
     4  C    0.164073  -0.595438
     5  C    0.075115  -0.549577
     6  C   -0.748511   0.616983
     7  C    0.129320  -0.823938
     8  N    0.135768  -0.062748
     9  C   -0.153831  -0.302494
    10  C    0.227586  -0.390914
    11  C    0.747496  -1.366185
    12  C    0.250504   0.734168
    13  C   -0.350510   0.014957
    14  C   -0.410751   0.114933
    15  C    0.927057  -1.241548
    16  C    0.469552  -0.877447
    17  C   -0.993359   0.909669
    18  H   -0.107203   0.248587
    19  H   -0.126491   0.260483
    20  H   -0.100128   0.234630
    21  H    0.063742   0.101559
    22  H    0.019366   0.117200
    23  H   -0.054893   0.265985
    24  H   -0.059770   0.246905
    25  H    0.243699  -0.122134
    26  H    0.303399  -0.191182
    27  H   -0.398389   0.569161
    28  H   -0.046366   0.222117
    29  H    0.152623   0.014789
    30  H   -0.143259   0.293098
    31  H    0.220880  -0.092349
    32  H    0.138599   0.024696
    33  H    0.011079   0.135511
    34  H   -0.044794   0.195476
    35  H   -0.137169   0.298393
    36  H   -0.183699   0.372402
    37  H   -0.270668   0.459064
    38  H    0.284153  -0.206418
    39  H   -0.262093   0.446574
    40  H   -0.153527   0.302256
    41  H   -0.380795   0.556708
    42  H   -0.316906   0.477003
 Sum of Mulliken charges =  -1.00000   1.00000

 Dipole moment (field-independent basis, Debye):
    X=             -0.6186    Y=             -0.1143    Z=              1.1837  Tot=              1.3404
 Quadrupole moment (field-independent basis, Debye-Ang):
   XX=           -197.7547   YY=           -162.3301   ZZ=           -144.1421
   XY=             -0.1664   XZ=             -3.7081   YZ=             -2.3657

 Summary of Natural Population Analysis:

                                       Natural Population
                Natural  -----------------------------------------------
    Atom  No    Charge         Core      Valence    Rydberg      Total
 -----------------------------------------------------------------------
      C    1   -0.28465      0.99967     2.28085    0.00414     3.28465
      C    2   -0.18593      0.99962     2.17808    0.00823     3.18593
      C    3   -0.11278      0.99960     2.10188    0.01130     3.11278
      C    4   -0.19552      0.99962     2.18708    0.00882     3.19552
      C    5   -0.19982      0.99961     2.19180    0.00841     3.19982
      C    6   -0.00925      0.99959     1.99587    0.01379     3.00925
      C    7   -0.19088      0.99961     2.18137    0.00990     3.19088
      N    8   -0.35020      0.99973     2.83926    0.01121     3.85020
      C    9   -0.08676      0.99962     2.07551    0.01163     3.08676
      C   10   -0.19467      0.99962     2.18725    0.00780     3.19467
      C   11   -0.20360      0.99959     2.19445    0.00956     3.20360
      C   12   -0.00988      0.99951     1.99964    0.01074     3.00988
      C   13   -0.10798      0.99950     2.09940    0.00907     3.10798
      C   14   -0.09746      0.99956     2.08752    0.01038     3.09746
      C   15   -0.10407      0.99956     2.09489    0.00961     3.10407
      C   16   -0.09787      0.99956     2.08835    0.00996     3.09787
      C   17   -0.10130      0.99950     2.09193    0.00987     3.10130
      H   18    0.09721      0.00000     0.40164    0.00116     0.40279
      H   19    0.09821      0.00000     0.40083    0.00096     0.40179
      H   20    0.09585      0.00000     0.40301    0.00114     0.40415
      H   21    0.09218      0.00000     0.40601    0.00181     0.40782
      H   22    0.09447      0.00000     0.40446    0.00107     0.40553
      H   23    0.09640      0.00000     0.40231    0.00129     0.40360
      H   24    0.10342      0.00000     0.39552    0.00106     0.39658
      H   25    0.09055      0.00000     0.40733    0.00211     0.40945
      H   26    0.10059      0.00000     0.39812    0.00129     0.39941
      H   27    0.09757      0.00000     0.40110    0.00133     0.40243
      H   28    0.09493      0.00000     0.40407    0.00100     0.40507
      H   29    0.10372      0.00000     0.39498    0.00130     0.39628
      H   30    0.10017      0.00000     0.39887    0.00096     0.39983
      H   31    0.17623      0.00000     0.31962    0.00415     0.32377
      H   32    0.09564      0.00000     0.40320    0.00116     0.40436
      H   33    0.09161      0.00000     0.40738    0.00101     0.40839
      H   34    0.09710      0.00000     0.40159    0.00131     0.40290
      H   35    0.09696      0.00000     0.40176    0.00127     0.40304
      H   36    0.10661      0.00000     0.39217    0.00122     0.39339
      H   37    0.09980      0.00000     0.39804    0.00217     0.40020
      H   38    0.09911      0.00000     0.39876    0.00213     0.40089
      H   39    0.10154      0.00000     0.39752    0.00094     0.39846
      H   40    0.10039      0.00000     0.39864    0.00097     0.39961
      H   41    0.10079      0.00000     0.39809    0.00112     0.39921
      H   42    0.10162      0.00000     0.39707    0.00131     0.39838
 =======================================================================
   * Total *    0.00000     16.99308    46.80724    0.19968    64.00000

 Normal termination of Gaussian 16 at Fri Dec 11 15:01:00 2020.
