 Gaussian 16, Revision A.03,

 -----------------------------------------------------------
 # opt freq B3LYP/6-31G(d) empiricaldispersion=gd3bj scf=xqc
 -----------------------------------------------------------

 ------------------------------
 CID_47112742_JID_9830_neutraal
 ------------------------------
 Symbolic Z-matrix:
 Charge =  0 Multiplicity = 1

 SCF Done:  E(RB3LYP) =  -895.646300270     A.U. after   15 cycles
 SCF Done:  E(RB3LYP) =  -895.649246481     A.U. after   13 cycles
 SCF Done:  E(RB3LYP) =  -895.649695495     A.U. after   14 cycles
 SCF Done:  E(RB3LYP) =  -895.650345743     A.U. after   13 cycles
 SCF Done:  E(RB3LYP) =  -895.651021016     A.U. after   14 cycles
 SCF Done:  E(RB3LYP) =  -895.651451795     A.U. after   14 cycles
 SCF Done:  E(RB3LYP) =  -895.652110878     A.U. after   12 cycles
 SCF Done:  E(RB3LYP) =  -895.652354067     A.U. after   12 cycles
 SCF Done:  E(RB3LYP) =  -895.652459195     A.U. after   12 cycles
 SCF Done:  E(RB3LYP) =  -895.652544134     A.U. after   11 cycles
 SCF Done:  E(RB3LYP) =  -895.652571722     A.U. after    8 cycles
 SCF Done:  E(RB3LYP) =  -895.652571883     A.U. after    8 cycles
 SCF Done:  E(RB3LYP) =  -895.652571988     A.U. after    7 cycles
 SCF Done:  E(RB3LYP) =  -895.652572007     A.U. after    6 cycles
 Optimization completed.
    -- Stationary point found.
 Normal termination of Gaussian 16 at Mon Dec 14 17:22:41 2020.

 --------------------------------------------------------------------
 #N Geom=AllCheck Guess=TCheck SCRF=Check GenChk RB3LYP/6-31G(d) Freq
 --------------------------------------------------------------------

 Structure from the checkpoint file:  "JID_9830.chk"
 ------------------------------
 CID_47112742_JID_9830_neutraal
 ------------------------------
 Charge =  0 Multiplicity = 1

 SCF Done:  E(RB3LYP) =  -895.652572007     A.U. after    2 cycles

  Exact polarizability: 231.781   6.903 155.496 -14.201   2.528 111.085
 Approx polarizability: 297.972  10.004 255.914 -26.617   2.594 181.230

                      1                      2                      3
                      A                      A                      A
 Frequencies --     19.5935                24.6578                33.3614
 Red. masses --      4.8109                 5.0321                 1.1290
 Frc consts  --      0.0011                 0.0018                 0.0007
 IR Inten    --      1.0832                 0.2382                 0.9537

                      4                      5                      6
                      A                      A                      A
 Frequencies --     37.9137                42.3640                58.9054
 Red. masses --      3.6691                 5.3605                 4.5361
 Frc consts  --      0.0031                 0.0057                 0.0093
 IR Inten    --      2.6256                 1.7208                 1.1383

                      7                      8                      9
                      A                      A                      A
 Frequencies --     66.1427                71.0284               101.2787
 Red. masses --      4.7590                 6.6250                 4.5605
 Frc consts  --      0.0123                 0.0197                 0.0276
 IR Inten    --      0.3364                 0.2240                 2.7335

                     10                     11                     12
                      A                      A                      A
 Frequencies --    112.8854               139.4776               154.5377
 Red. masses --      5.3742                 1.0408                 5.2915
 Frc consts  --      0.0403                 0.0119                 0.0745
 IR Inten    --      3.8678                 0.4933                 0.8349

                     13                     14                     15
                      A                      A                      A
 Frequencies --    202.9814               240.9744               268.9552
 Red. masses --      5.1790                 5.1976                 4.0721
 Frc consts  --      0.1257                 0.1778                 0.1736
 IR Inten    --      3.1933                 8.0259                 1.0466

                     16                     17                     18
                      A                      A                      A
 Frequencies --    321.5275               327.7239               341.4255
 Red. masses --      4.2488                 3.2846                 4.0797
 Frc consts  --      0.2588                 0.2079                 0.2802
 IR Inten    --      5.9587                 5.7623                 8.3114

                     19                     20                     21
                      A                      A                      A
 Frequencies --    362.6848               382.6429               422.5373
 Red. masses --      4.8422                 3.1023                 3.1423
 Frc consts  --      0.3753                 0.2676                 0.3305
 IR Inten    --      4.4857                 5.9283                 1.2470

                     22                     23                     24
                      A                      A                      A
 Frequencies --    429.7550               482.8071               491.3559
 Red. masses --      3.1812                 2.3992                 3.2282
 Frc consts  --      0.3462                 0.3295                 0.4592
 IR Inten    --      7.1053                 9.4644                21.1600

                     25                     26                     27
                      A                      A                      A
 Frequencies --    510.3068               524.6510               534.8338
 Red. masses --      3.1340                 1.4301                 2.8270
 Frc consts  --      0.4809                 0.2319                 0.4764
 IR Inten    --     26.0102                64.1845                 8.7611

                     28                     29                     30
                      A                      A                      A
 Frequencies --    578.0466               595.0646               608.3262
 Red. masses --      2.6988                 1.5550                 4.0569
 Frc consts  --      0.5313                 0.3244                 0.8845
 IR Inten    --     10.9137                21.8855                31.1724

                     31                     32                     33
                      A                      A                      A
 Frequencies --    623.1929               653.9372               667.5065
 Red. masses --      1.7858                 5.5142                 1.5397
 Frc consts  --      0.4086                 1.3893                 0.4042
 IR Inten    --    154.0604                 2.4874                22.0503

                     34                     35                     36
                      A                      A                      A
 Frequencies --    694.2902               723.5473               734.7018
 Red. masses --      3.7868                 3.3977                 6.2099
 Frc consts  --      1.0755                 1.0480                 1.9749
 IR Inten    --      2.0247                15.3412                37.2178

                     37                     38                     39
                      A                      A                      A
 Frequencies --    788.2507               805.5883               811.0136
 Red. masses --      3.2895                 4.3527                 5.3600
 Frc consts  --      1.2042                 1.6643                 2.0772
 IR Inten    --     10.7987                 0.9816                25.4877

                     40                     41                     42
                      A                      A                      A
 Frequencies --    835.1259               843.0578               890.8534
 Red. masses --      1.7707                 1.2631                 2.2335
 Frc consts  --      0.7276                 0.5289                 1.0444
 IR Inten    --     29.4346                 1.8918                49.6044

                     43                     44                     45
                      A                      A                      A
 Frequencies --    920.7352               928.0001               952.5522
 Red. masses --      3.1429                 2.8532                 1.3289
 Frc consts  --      1.5698                 1.4477                 0.7104
 IR Inten    --      8.9160                 5.1441                 0.7270

                     46                     47                     48
                      A                      A                      A
 Frequencies --    961.5888              1010.0610              1022.2686
 Red. masses --      1.3026                 1.5502                 1.4072
 Frc consts  --      0.7096                 0.9318                 0.8664
 IR Inten    --      0.6398                 7.8399                 0.1862

                     49                     50                     51
                      A                      A                      A
 Frequencies --   1043.6220              1063.1140              1076.2027
 Red. masses --      2.7305                 1.7338                 1.5183
 Frc consts  --      1.7522                 1.1546                 1.0361
 IR Inten    --      1.0183                 4.7642                12.6826

                     52                     53                     54
                      A                      A                      A
 Frequencies --   1080.7420              1139.4640              1155.5371
 Red. masses --      1.8165                 2.7268                 1.2950
 Frc consts  --      1.2501                 2.0859                 1.0188
 IR Inten    --     28.3310                 1.3794                 4.7447

                     55                     56                     57
                      A                      A                      A
 Frequencies --   1163.0290              1219.9356              1244.1414
 Red. masses --      3.3120                 1.1487                 2.6999
 Frc consts  --      2.6395                 1.0073                 2.4622
 IR Inten    --     15.8428                 5.8063               127.3218

                     58                     59                     60
                      A                      A                      A
 Frequencies --   1248.1808              1264.4822              1307.9421
 Red. masses --      2.4980                 1.7236                 1.4938
 Frc consts  --      2.2930                 1.6237                 1.5057
 IR Inten    --      6.4009                45.9306               113.3569

                     61                     62                     63
                      A                      A                      A
 Frequencies --   1324.9981              1350.0586              1353.7665
 Red. masses --      1.6304                 2.7188                 1.8850
 Frc consts  --      1.6865                 2.9196                 2.0354
 IR Inten    --    258.8561                27.5643                39.4277

                     64                     65                     66
                      A                      A                      A
 Frequencies --   1355.4676              1406.2676              1412.0709
 Red. masses --      1.8987                 1.4537                 1.2866
 Frc consts  --      2.0554                 1.6938                 1.5115
 IR Inten    --     67.5305                23.8839                 5.1016

                     67                     68                     69
                      A                      A                      A
 Frequencies --   1428.8880              1442.5024              1443.8352
 Red. masses --      1.5251                 1.9502                 1.2746
 Frc consts  --      1.8347                 2.3909                 1.5656
 IR Inten    --     99.7139                 9.0064                 2.9336

                     70                     71                     72
                      A                      A                      A
 Frequencies --   1448.6212              1490.0723              1496.9529
 Red. masses --      2.5711                 1.7338                 1.8113
 Frc consts  --      3.1789                 2.2682                 2.3914
 IR Inten    --     34.3502                31.6535                67.4649

                     73                     74                     75
                      A                      A                      A
 Frequencies --   1497.9614              1504.6389              1516.2617
 Red. masses --      1.0590                 1.5416                 1.2176
 Frc consts  --      1.4000                 2.0564                 1.6493
 IR Inten    --      7.3972                57.2619                14.9211

                     76                     77                     78
                      A                      A                      A
 Frequencies --   1517.9166              1519.5944              1528.1770
 Red. masses --      1.0491                 1.1587                 1.2609
 Frc consts  --      1.4242                 1.5764                 1.7349
 IR Inten    --      5.6616                13.0047                11.4297

                     79                     80                     81
                      A                      A                      A
 Frequencies --   1530.6232              1572.0621              1644.9573
 Red. masses --      1.1618                 2.7087                 5.8684
 Frc consts  --      1.6037                 3.9441                 9.3558
 IR Inten    --     13.6754               101.8584                 2.8779

                     82                     83                     84
                      A                      A                      A
 Frequencies --   1678.9255              1754.7803              1788.7673
 Red. masses --      5.9134                 8.6076                 8.7395
 Frc consts  --      9.8209                15.6162                16.4757
 IR Inten    --     18.8194               743.3037               270.3651

                     85                     86                     87
                      A                      A                      A
 Frequencies --   1801.4181              3043.6767              3059.2620
 Red. masses --      8.0556                 1.0400                 1.0397
 Frc consts  --     15.4020                 5.6766                 5.7332
 IR Inten    --    365.0641                33.0106                 5.8564

                     88                     89                     90
                      A                      A                      A
 Frequencies --   3074.7793              3088.0019              3100.9642
 Red. masses --      1.0665                 1.0630                 1.0963
 Frc consts  --      5.9406                 5.9725                 6.2110
 IR Inten    --     27.0929                27.5110                20.8948

                     91                     92                     93
                      A                      A                      A
 Frequencies --   3118.8686              3126.8991              3141.3651
 Red. masses --      1.1003                 1.1028                 1.0987
 Frc consts  --      6.3057                 6.3529                 6.3880
 IR Inten    --     15.0872                16.0833                14.0237

                     94                     95                     96
                      A                      A                      A
 Frequencies --   3151.3475              3180.9332              3182.8639
 Red. masses --      1.1038                 1.1001                 1.0874
 Frc consts  --      6.4587                 6.5582                 6.4902
 IR Inten    --     10.8134                 8.8120                14.3114

                     97                     98                     99
                      A                      A                      A
 Frequencies --   3185.8677              3199.8861              3213.1621
 Red. masses --      1.0887                 1.0947                 1.0935
 Frc consts  --      6.5103                 6.6041                 6.6519
 IR Inten    --     14.6259                17.1791                 8.2354

                    100                    101                    102
                      A                      A                      A
 Frequencies --   3574.5943              3580.2970              3602.4282
 Red. masses --      1.0754                 1.0756                 1.0762
 Frc consts  --      8.0963                 8.1232                 8.2289
 IR Inten    --     33.8730                24.3163                18.0816

 - Thermochemistry -
 -------------------
 Temperature   298.150 Kelvin.  Pressure   1.00000 Atm.
 Atom     1 has atomic number  6 and mass  12.00000

 Molecular mass:   263.12699 amu.
 Principal axes and moments of inertia in atomic units:
                           1         2         3
     Eigenvalues --  1942.70695********************
           X            0.99993   0.00761  -0.00892
           Y           -0.00739   0.99967   0.02475
           Z            0.00911  -0.02468   0.99965
 This molecule is an asymmetric top.
 Rotational symmetry number  1.
 Warning -- assumption of classical behavior for rotation
           may cause significant error
 Rotational temperatures (Kelvin)      0.04458     0.00674     0.00631
 Rotational constants (GHZ):           0.92898     0.14050     0.13144
 Zero-point vibrational energy     776353.6 (Joules/Mol)
                                  185.55297 (Kcal/Mol)
 Warning -- explicit consideration of  30 degrees of freedom as
           vibrations may cause significant error
 Vibrational temperatures:     28.19    35.48    48.00    54.55    60.95
          (Kelvin)             84.75    95.16   102.19   145.72   162.42
                              200.68   222.35   292.05   346.71   386.97
                              462.61   471.52   491.24   521.82   550.54
                              607.94   618.32   694.65   706.95   734.22
                              754.86   769.51   831.68   856.17   875.25
                              896.64   940.87   960.39   998.93  1041.02
                             1057.07  1134.12  1159.06  1166.87  1201.56
                             1212.97  1281.74  1324.73  1335.19  1370.51
                             1383.51  1453.25  1470.82  1501.54  1529.58
                             1548.42  1554.95  1639.43  1662.56  1673.34
                             1755.22  1790.04  1795.85  1819.31  1881.84
                             1906.38  1942.43  1947.77  1950.22  2023.31
                             2031.66  2055.85  2075.44  2077.36  2084.24
                             2143.88  2153.78  2155.23  2164.84  2181.56
                             2183.94  2186.36  2198.71  2202.23  2261.85
                             2366.73  2415.60  2524.74  2573.64  2591.84
                             4379.17  4401.60  4423.92  4442.95  4461.60
                             4487.36  4498.91  4519.72  4534.09  4576.65
                             4579.43  4583.75  4603.92  4623.02  5143.04
                             5151.25  5183.09

 Zero-point correction=                           0.295697 (Hartree/Particle)
 Thermal correction to Energy=                    0.315321
 Thermal correction to Enthalpy=                  0.316265
 Thermal correction to Gibbs Free Energy=         0.243480
 Sum of electronic and zero-point Energies=           -895.356875
 Sum of electronic and thermal Energies=              -895.337251
 Sum of electronic and thermal Enthalpies=            -895.336307
 Sum of electronic and thermal Free Energies=         -895.409092

                     E (Thermal)             CV                S
                      KCal/Mol        Cal/Mol-Kelvin    Cal/Mol-Kelvin
 Total                  197.867             70.943            153.189
 Electronic               0.000              0.000              0.000
 Translational            0.889              2.981             42.602
 Rotational               0.889              2.981             34.193
 Vibrational            196.089             64.982             76.394
 Vibration     1          0.593              1.986              6.675
 Vibration     2          0.593              1.985              6.219
 Vibration     3          0.594              1.983              5.619
 Vibration     4          0.594              1.982              5.365
 Vibration     5          0.595              1.980              5.145
 Vibration     6          0.596              1.974              4.494
 Vibration     7          0.598              1.970              4.265
 Vibration     8          0.598              1.968              4.125
 Vibration     9          0.604              1.948              3.430
 Vibration    10          0.607              1.939              3.219
 Vibration    11          0.615              1.914              2.811
 Vibration    12          0.620              1.898              2.616
 Vibration    13          0.639              1.836              2.106
 Vibration    14          0.658              1.778              1.796
 Vibration    15          0.673              1.730              1.603
 Vibration    16          0.707              1.632              1.302
 Vibration    17          0.711              1.620              1.271
 Vibration    18          0.721              1.593              1.205
 Vibration    19          0.737              1.549              1.111
 Vibration    20          0.752              1.507              1.029
 Vibration    21          0.785              1.421              0.883
 Vibration    22          0.791              1.405              0.859
 Vibration    23          0.839              1.288              0.703
 Vibration    24          0.847              1.269              0.680
 Vibration    25          0.865              1.227              0.633
 Vibration    26          0.880              1.195              0.599
 Vibration    27          0.890              1.173              0.577
 Vibration    28          0.935              1.079              0.489
 Vibration    29          0.953              1.042              0.458
 Vibration    30          0.967              1.014              0.436

                           ! Non-Optimized Parameters !
 Normal termination of Gaussian 16 at Mon Dec 14 17:37:11 2020.

 ----------------------------------------------------------------------
 # B3LYP/6-311++G(d,p) empiricaldispersion=gd3bj scf=xqc pop=npa geom=c
 heck
 ----------------------------------------------------------------------

 --------------------------------------
 CID_47112742_JID_9830_Energie_neutraal
 --------------------------------------
 Structure from the checkpoint file:  "JID_9830.chk"
 Charge =  0 Multiplicity = 1

 SCF Done:  E(RB3LYP) =  -895.917486458     A.U. after   15 cycles
 Normal termination of Gaussian 16 at Mon Dec 14 17:43:56 2020.

 ----------------------------------------------------------------------
 # B3LYP/6-311++G(d,p) empiricaldispersion=gd3bj scf=xqc pop=npa geom=c
 heck
 ----------------------------------------------------------------------

 ------------------------------------
 CID_47112742_JID_9830_Energie_kation
 ------------------------------------
 Structure from the checkpoint file:  "JID_9830.chk"
 Charge =  1 Multiplicity = 2

 SCF Done:  E(UB3LYP) =  -895.617415108     A.U. after   33 cycles
 SCF Done:  E(UB3LYP) =  -895.617415108     a.u. after    2 cycles
 Normal termination of Gaussian 16 at Mon Dec 14 18:24:00 2020.
 Gaussian 16:  ES64L-G16RevA.03 25-Dec-2016

 ----------------------------------------------------------------------
 # B3LYP/6-311++G(d,p) empiricaldispersion=gd3bj scf=xqc pop=npa geom=c
 heck
 ----------------------------------------------------------------------

 -----------------------------------
 CID_47112742_JID_9830_Energie_anion
 -----------------------------------
 Structure from the checkpoint file:  "JID_9830.chk"
 Charge = -1 Multiplicity = 2

                         Standard orientation:
 ---------------------------------------------------------------------
 Center     Atomic      Atomic             Coordinates (Angstroms)
 Number     Number       Type             X           Y           Z
 ---------------------------------------------------------------------
      1          6           0       -5.873041   -2.042409   -0.043781
      2          6           0       -4.738167   -1.051787   -0.126707
      3          6           0       -3.465497   -1.446706   -0.556005
      4          6           0       -2.407434   -0.545264   -0.619156
      5          6           0       -2.597527    0.779294   -0.215466
      6          6           0       -3.862451    1.193223    0.208492
      7          6           0       -4.918148    0.286533    0.241489
      8          7           0       -1.548879    1.731510   -0.278179
      9          6           0       -0.227724    1.580054    0.015377
     10          8           0        0.593354    2.473134   -0.178191
     11          6           0        0.187420    0.288680    0.736414
     12          8           0       -0.348536   -0.023417    1.788970
     13          7           0        1.206914   -0.417903    0.170970
     14          6           0        2.050604   -0.028863   -0.952697
     15          6           0        3.277522    0.786269   -0.513031
     16          7           0        4.093906    0.099106    0.473001
     17          6           0        5.113369   -0.794876    0.256040
     18          8           0        5.659939   -1.369184    1.187803
     19          6           0        5.537905   -1.007330   -1.189728
     20          1           0       -5.779632   -2.822861   -0.806186
     21          1           0       -5.890833   -2.542422    0.933482
     22          1           0       -6.843029   -1.552415   -0.176772
     23          1           0       -3.301801   -2.475839   -0.865276
     24          1           0       -1.439646   -0.868546   -0.987920
     25          1           0       -4.013797    2.222691    0.521613
     26          1           0       -5.897459    0.624122    0.570825
     27          1           0       -1.787575    2.676171   -0.559737
     28          1           0        1.541908   -1.173056    0.759174
     29          1           0        2.363801   -0.947877   -1.459580
     30          1           0        1.460456    0.556434   -1.660752
     31          1           0        3.883647    1.032744   -1.390324
     32          1           0        2.921464    1.724693   -0.082706
     33          1           0        3.860691    0.218759    1.450762
     34          1           0        4.704754   -1.334303   -1.821452
     35          1           0        5.937674   -0.082488   -1.621652
     36          1           0        6.316736   -1.769981   -1.200133
 ---------------------------------------------------------------------

 SCF Done:  E(UB3LYP) =  -895.919640874     A.U. after   33 cycles
 SCF Done:  E(UB3LYP) =  -895.919640874     a.u. after    1 cycles

 The electronic state is 2-A.
 Alpha  occ. eigenvalues --  -18.99695 -18.97365 -18.96960 -14.24459 -14.23368
 Alpha  occ. eigenvalues --  -14.23160 -10.18503 -10.15355 -10.14462 -10.11404
 Alpha  occ. eigenvalues --  -10.11380 -10.10453 -10.08623 -10.08084 -10.07342
 Alpha  occ. eigenvalues --  -10.07290 -10.06987 -10.06893 -10.06795  -0.94822
 Alpha  occ. eigenvalues --   -0.93784  -0.91207  -0.83974  -0.82592  -0.81179
 Alpha  occ. eigenvalues --   -0.74960  -0.66988  -0.66061  -0.64867  -0.64699
 Alpha  occ. eigenvalues --   -0.59373  -0.56684  -0.55048  -0.51234  -0.50002
 Alpha  occ. eigenvalues --   -0.49024  -0.46459  -0.43576  -0.41186  -0.40308
 Alpha  occ. eigenvalues --   -0.38862  -0.38369  -0.37238  -0.36723  -0.35808
 Alpha  occ. eigenvalues --   -0.34259  -0.33906  -0.33206  -0.32703  -0.32464
 Alpha  occ. eigenvalues --   -0.32323  -0.31370  -0.30705  -0.29960  -0.29603
 Alpha  occ. eigenvalues --   -0.29086  -0.28369  -0.28213  -0.27089  -0.26073
 Alpha  occ. eigenvalues --   -0.25326  -0.24334  -0.18827  -0.18294  -0.17375
 Alpha  occ. eigenvalues --   -0.16849  -0.15571  -0.14886  -0.12637  -0.11919
 Alpha  occ. eigenvalues --    0.03935
 Alpha virt. eigenvalues --    0.05752   0.06385   0.07615   0.07758   0.08334
 Alpha virt. eigenvalues --    0.08634   0.08917   0.09068   0.09520   0.09916
 Alpha virt. eigenvalues --    0.10685   0.10816   0.11222   0.11653   0.12344

  Beta  occ. eigenvalues --  -18.99692 -18.97210 -18.96661 -14.24452 -14.23410
  Beta  occ. eigenvalues --  -14.23140 -10.18499 -10.15241 -10.14200 -10.11392
  Beta  occ. eigenvalues --  -10.11371 -10.10331 -10.08582 -10.08095 -10.07352
  Beta  occ. eigenvalues --  -10.07163 -10.06982 -10.06837 -10.06781  -0.94812
  Beta  occ. eigenvalues --   -0.93392  -0.90803  -0.83936  -0.82424  -0.81085
  Beta  occ. eigenvalues --   -0.74822  -0.66812  -0.66011  -0.64810  -0.64611
  Beta  occ. eigenvalues --   -0.59214  -0.56435  -0.54801  -0.51151  -0.49774
  Beta  occ. eigenvalues --   -0.48975  -0.46312  -0.43502  -0.41111  -0.40258
  Beta  occ. eigenvalues --   -0.38568  -0.38323  -0.37122  -0.36648  -0.35677
  Beta  occ. eigenvalues --   -0.34135  -0.33765  -0.33045  -0.32488  -0.32376
  Beta  occ. eigenvalues --   -0.32266  -0.31333  -0.30378  -0.29874  -0.29225
  Beta  occ. eigenvalues --   -0.28766  -0.28225  -0.27910  -0.26964  -0.25940
  Beta  occ. eigenvalues --   -0.24884  -0.24108  -0.18256  -0.17830  -0.17270
  Beta  occ. eigenvalues --   -0.16819  -0.15343  -0.14590  -0.12338  -0.11309
  Beta virt. eigenvalues --    0.06220   0.06369   0.07476   0.07968   0.08193
  Beta virt. eigenvalues --    0.08516   0.08818   0.09002   0.09538   0.09684
  Beta virt. eigenvalues --    0.10220   0.10769   0.11016   0.11646   0.11909

 Mulliken charges and spin densities:
               1          2
     1  C   -0.493720  -0.111591
     2  C    0.504445   0.064171
     3  C   -0.420152   0.201548
     4  C    0.705557  -0.278217
     5  C    0.165397  -0.451197
     6  C   -0.772294   0.382736
     7  C   -0.520486   0.058775
     8  N   -0.083207  -0.017201
     9  C   -0.114419   0.183091
    10  O   -0.358092   0.107618
    11  C   -0.166851   0.045949
    12  O   -0.278167   0.057176
    13  N   -0.066356   0.046413
    14  C    0.432078  -0.540643
    15  C   -0.601155  -0.009149
    16  N   -0.171389   0.023217
    17  C   -0.291875   0.393537
    18  O   -0.359893  -0.001225
    19  C    0.675483  -1.097986
    20  H    0.106034   0.022759
    21  H    0.144846   0.008615
    22  H    0.099219   0.024765
    23  H    0.124381   0.026454
    24  H    0.055482   0.128463
    25  H    0.026606   0.105360
    26  H    0.100733   0.024624
    27  H    0.155798   0.138438
    28  H    0.307774   0.007453
    29  H    0.004841   0.178708
    30  H    0.079819   0.107640
    31  H    0.048669   0.086005
    32  H    0.161183   0.081464
    33  H    0.273187   0.044424
    34  H   -0.352383   0.497827
    35  H   -0.166073   0.329929
    36  H    0.044979   0.130050
 Sum of Mulliken charges =  -1.00000   1.00000

 Dipole moment (field-independent basis, Debye):
    X=             -4.7618    Y=             -0.1268    Z=             -1.5245  Tot=              5.0015
 Quadrupole moment (field-independent basis, Debye-Ang):
   XX=           -202.7351   YY=           -138.9224   ZZ=           -142.2248
   XY=             10.9264   XZ=             -2.2943   YZ=              2.2629

 Summary of Natural Population Analysis:

                                       Natural Population
                Natural  -----------------------------------------------
    Atom  No    Charge         Core      Valence    Rydberg      Total
 -----------------------------------------------------------------------
      C    1   -0.29013      0.99964     2.28617    0.00431     3.29013
      C    2   -0.00874      0.99952     2.00057    0.00865     3.00874
      C    3   -0.09806      0.99953     2.08913    0.00940     3.09806
      C    4   -0.10014      0.99952     2.09171    0.00891     3.10014
      C    5    0.09490      0.99946     1.89461    0.01102     2.90510
      C    6   -0.09900      0.99953     2.09002    0.00945     3.09900
      C    7   -0.10712      0.99953     2.09820    0.00939     3.10712
      N    8   -0.31196      0.99964     2.80287    0.00945     3.81196
      C    9    0.34087      0.99964     1.63721    0.02228     2.65913
      O   10   -0.30194      0.99988     3.29605    0.00601     4.30194
      C   11    0.32090      0.99964     1.65556    0.02389     2.67910
      O   12   -0.29793      0.99988     3.29208    0.00597     4.29793
      N   13   -0.32065      0.99967     2.81105    0.00992     3.82065
      C   14   -0.09316      0.99961     2.08222    0.01133     3.09316
      C   15   -0.10275      0.99960     2.09241    0.01074     3.10275
      N   16   -0.32331      0.99968     2.81422    0.00942     3.82331
      C   17    0.34156      0.99970     1.63706    0.02168     2.65844
      O   18   -0.32632      0.99988     3.32014    0.00630     4.32632
      C   19   -0.33611      0.99963     2.33142    0.00506     3.33611
      H   20    0.09920      0.00000     0.40000    0.00080     0.40080
      H   21    0.10149      0.00000     0.39757    0.00095     0.39851
      H   22    0.09788      0.00000     0.40135    0.00078     0.40212
      H   23    0.09553      0.00000     0.40381    0.00066     0.40447
      H   24    0.10443      0.00000     0.39377    0.00180     0.39557
      H   25    0.09865      0.00000     0.40033    0.00102     0.40135
      H   26    0.09412      0.00000     0.40500    0.00088     0.40588
      H   27    0.19340      0.00000     0.30294    0.00366     0.30660
      H   28    0.19022      0.00000     0.30686    0.00293     0.30978
      H   29    0.09334      0.00000     0.40527    0.00139     0.40666
      H   30    0.10855      0.00000     0.39006    0.00139     0.39145
      H   31    0.09721      0.00000     0.40170    0.00108     0.40279
      H   32    0.11756      0.00000     0.38097    0.00147     0.38244
      H   33    0.19632      0.00000     0.30141    0.00226     0.30368
      H   34    0.10949      0.00000     0.38877    0.00175     0.39051
      H   35    0.10924      0.00000     0.38968    0.00109     0.39076
      H   36    0.11248      0.00000     0.38666    0.00086     0.38752
 =======================================================================
   * Total *    0.00001     18.99318    50.77886    0.22795    69.99999

 Normal termination of Gaussian 16 at Mon Dec 14 18:45:51 2020.
