 Gaussian 16, Revision A.03,

 -----------------------------------------------------------
 # opt freq B3LYP/6-31G(d) empiricaldispersion=gd3bj scf=xqc
 -----------------------------------------------------------

 --------------------------------
 CID_104255610_JID_10232_neutraal
 --------------------------------
 Symbolic Z-matrix:
 Charge =  0 Multiplicity = 1

 SCF Done:  E(RB3LYP) =  -1674.86782727     A.U. after   15 cycles
 SCF Done:  E(RB3LYP) =  -1674.88175435     A.U. after   13 cycles
 SCF Done:  E(RB3LYP) =  -1674.88083983     A.U. after   14 cycles
 SCF Done:  E(RB3LYP) =  -1674.88389367     A.U. after   12 cycles
 SCF Done:  E(RB3LYP) =  -1674.88484536     A.U. after   12 cycles
 SCF Done:  E(RB3LYP) =  -1674.88561587     A.U. after   13 cycles
 SCF Done:  E(RB3LYP) =  -1674.88579204     A.U. after   12 cycles
 SCF Done:  E(RB3LYP) =  -1674.88579398     A.U. after   12 cycles
 SCF Done:  E(RB3LYP) =  -1674.88593816     A.U. after   11 cycles
 SCF Done:  E(RB3LYP) =  -1674.88596344     A.U. after   11 cycles
 SCF Done:  E(RB3LYP) =  -1674.88603360     A.U. after   10 cycles
 SCF Done:  E(RB3LYP) =  -1674.88603767     A.U. after   10 cycles
 SCF Done:  E(RB3LYP) =  -1674.88603846     A.U. after    8 cycles
 SCF Done:  E(RB3LYP) =  -1674.88603855     A.U. after    7 cycles
 SCF Done:  E(RB3LYP) =  -1674.88603858     A.U. after    7 cycles
 Optimization completed.
    -- Stationary point found.
 Normal termination of Gaussian 16 at Mon Dec 14 17:46:38 2020.

 --------------------------------------------------------------------
 #N Geom=AllCheck Guess=TCheck SCRF=Check GenChk RB3LYP/6-31G(d) Freq
 --------------------------------------------------------------------

 Structure from the checkpoint file:  "JID_10232.chk"
 --------------------------------
 CID_104255610_JID_10232_neutraal
 --------------------------------
 Charge =  0 Multiplicity = 1

 SCF Done:  E(RB3LYP) =  -1674.88603858     A.U. after    1 cycles

  Exact polarizability: 232.207  -0.179 169.765   7.733   0.632 138.041
 Approx polarizability: 312.654  -1.642 295.742  16.379   6.212 220.211

                      1                      2                      3
                      A                      A                      A
 Frequencies --     14.5765                32.4233                47.0333
 Red. masses --      5.4280                 3.7108                 3.7367
 Frc consts  --      0.0007                 0.0023                 0.0049
 IR Inten    --      1.5237                 0.0830                 0.2652

                      4                      5                      6
                      A                      A                      A
 Frequencies --     57.5794                95.2643               104.2768
 Red. masses --      6.7281                 4.5522                 4.8078
 Frc consts  --      0.0131                 0.0243                 0.0308
 IR Inten    --      0.5050                 1.2760                 1.0630

                      7                      8                      9
                      A                      A                      A
 Frequencies --    112.4398               136.3282               142.5177
 Red. masses --      4.2765                 1.7468                 1.6881
 Frc consts  --      0.0319                 0.0191                 0.0202
 IR Inten    --      2.2713                 0.1376                 0.2403

                     10                     11                     12
                      A                      A                      A
 Frequencies --    153.6347               181.9172               199.2907
 Red. masses --      3.9011                 5.7082                 2.7714
 Frc consts  --      0.0543                 0.1113                 0.0649
 IR Inten    --      0.3895                 3.3024                 1.8722

                     13                     14                     15
                      A                      A                      A
 Frequencies --    223.1629               238.2014               252.4803
 Red. masses --      4.3090                 4.7957                 1.6098
 Frc consts  --      0.1264                 0.1603                 0.0605
 IR Inten    --      2.0440                 0.9654                 2.1113

                     16                     17                     18
                      A                      A                      A
 Frequencies --    264.2716               279.1910               290.5900
 Red. masses --      4.7519                 1.9594                 4.5269
 Frc consts  --      0.1955                 0.0900                 0.2252
 IR Inten    --      4.0362                 1.1319                 3.3044

                     19                     20                     21
                      A                      A                      A
 Frequencies --    311.0058               327.9864               334.8910
 Red. masses --      2.9715                 4.4013                 4.9929
 Frc consts  --      0.1693                 0.2790                 0.3299
 IR Inten    --      0.7690                10.3920                12.8068

                     22                     23                     24
                      A                      A                      A
 Frequencies --    368.0765               373.3857               377.6546
 Red. masses --      5.0983                 5.3569                 3.6108
 Frc consts  --      0.4070                 0.4400                 0.3034
 IR Inten    --      4.7470                 0.4127                 0.3716

                     25                     26                     27
                      A                      A                      A
 Frequencies --    398.3873               454.8725               482.6403
 Red. masses --      3.3303                 3.1060                 2.6915
 Frc consts  --      0.3114                 0.3786                 0.3694
 IR Inten    --      7.8585                 2.1845                 0.0776

                     28                     29                     30
                      A                      A                      A
 Frequencies --    515.1278               524.6922               544.4611
 Red. masses --      9.9091                 6.3588                 2.7407
 Frc consts  --      1.5492                 1.0314                 0.4787
 IR Inten    --      7.8559                21.7728                 7.2130

                     31                     32                     33
                      A                      A                      A
 Frequencies --    557.5488               604.1800               643.6326
 Red. masses --      4.9650                 9.0383                 3.4263
 Frc consts  --      0.9094                 1.9439                 0.8363
 IR Inten    --     26.3438               120.4860                21.9696

                     34                     35                     36
                      A                      A                      A
 Frequencies --    648.8945               680.2773               761.0952
 Red. masses --     10.7700                10.3368                 1.5804
 Frc consts  --      2.6719                 2.8184                 0.5394
 IR Inten    --     15.8276                75.7256                21.9252

                     37                     38                     39
                      A                      A                      A
 Frequencies --    778.8137               788.0566               790.8471
 Red. masses --      5.3148                 4.1238                 2.4783
 Frc consts  --      1.8993                 1.5089                 0.9133
 IR Inten    --      7.0490                14.3497                49.1119

                     40                     41                     42
                      A                      A                      A
 Frequencies --    822.6009               849.6935               858.3414
 Red. masses --      1.4501                 5.6321                 2.4768
 Frc consts  --      0.5781                 2.3957                 1.0751
 IR Inten    --     11.9248                33.4726                48.2481

                     43                     44                     45
                      A                      A                      A
 Frequencies --    879.3068               921.0671               924.5899
 Red. masses --      2.2624                 2.5168                 3.2740
 Frc consts  --      1.0306                 1.2580                 1.6490
 IR Inten    --      1.5650                 3.5093                41.1838

                     46                     47                     48
                      A                      A                      A
 Frequencies --    967.3077               979.9722              1012.0367
 Red. masses --      1.7198                 1.9111                 2.2171
 Frc consts  --      0.9481                 1.0813                 1.3379
 IR Inten    --     15.7547                 1.7219                 7.0788

                     49                     50                     51
                      A                      A                      A
 Frequencies --   1015.6692              1032.4829              1060.7831
 Red. masses --      2.6180                 9.1194                 4.9429
 Frc consts  --      1.5912                 5.7277                 3.2770
 IR Inten    --     15.4057                69.0128                 1.8631

                     52                     53                     54
                      A                      A                      A
 Frequencies --   1066.4019              1080.6065              1127.6309
 Red. masses --      1.8503                 2.2903                 2.4404
 Frc consts  --      1.2397                 1.5757                 1.8283
 IR Inten    --      3.6114                11.7006                15.8026

                     55                     56                     57
                      A                      A                      A
 Frequencies --   1130.4834              1145.8109              1151.0126
 Red. masses --      9.6239                 2.0018                 3.3184
 Frc consts  --      7.2465                 1.5485                 2.5902
 IR Inten    --    118.4696                 6.1187                33.8676

                     58                     59                     60
                      A                      A                      A
 Frequencies --   1183.4824              1186.1200              1203.9752
 Red. masses --      2.0385                 1.2749                 1.8535
 Frc consts  --      1.6822                 1.0568                 1.5830
 IR Inten    --     46.0225                 0.7664                69.6869

                     61                     62                     63
                      A                      A                      A
 Frequencies --   1225.5184              1240.1763              1251.8655
 Red. masses --      1.3333                 2.1709                 1.3209
 Frc consts  --      1.1799                 1.9673                 1.2196
 IR Inten    --      5.4175               163.7973                 1.1501

                     64                     65                     66
                      A                      A                      A
 Frequencies --   1285.0247              1305.1994              1319.2252
 Red. masses --      1.2009                 2.2091                 1.1488
 Frc consts  --      1.1684                 2.2173                 1.1779
 IR Inten    --      4.7988               298.8155                 2.3212

                     67                     68                     69
                      A                      A                      A
 Frequencies --   1331.7013              1336.3884              1351.9960
 Red. masses --      7.0952                 1.2541                 1.2229
 Frc consts  --      7.4136                 1.3196                 1.3170
 IR Inten    --    177.1115                 3.3557                 1.4854

                     70                     71                     72
                      A                      A                      A
 Frequencies --   1356.6017              1387.0450              1397.2821
 Red. masses --      4.5059                 1.3628                 1.3356
 Frc consts  --      4.8859                 1.5448                 1.5364
 IR Inten    --    100.7041                 6.9890                 2.8088

                     73                     74                     75
                      A                      A                      A
 Frequencies --   1408.3248              1418.7543              1422.1405
 Red. masses --      1.4053                 1.3767                 1.4044
 Frc consts  --      1.6422                 1.6327                 1.6735
 IR Inten    --      0.5020                 4.0383                 5.7050

                     76                     77                     78
                      A                      A                      A
 Frequencies --   1436.9393              1447.0229              1477.5170
 Red. masses --      1.3038                 1.2267                 2.7757
 Frc consts  --      1.5861                 1.5133                 3.5702
 IR Inten    --      4.9728                 9.9956                49.2184

                     79                     80                     81
                      A                      A                      A
 Frequencies --   1496.7932              1505.1810              1512.1681
 Red. masses --      1.7574                 1.0857                 1.0474
 Frc consts  --      2.3198                 1.4492                 1.4112
 IR Inten    --     58.5864                 1.6016                 6.4748

                     82                     83                     84
                      A                      A                      A
 Frequencies --   1515.5791              1520.0205              1522.9948
 Red. masses --      1.0731                 1.0723                 1.0632
 Frc consts  --      1.4522                 1.4597                 1.4530
 IR Inten    --      1.0572                 8.1577                 8.3696

                     85                     86                     87
                      A                      A                      A
 Frequencies --   1527.9030              1534.0613              1540.4617
 Red. masses --      1.0754                 1.0939                 7.7404
 Frc consts  --      1.4791                 1.5168                10.8222
 IR Inten    --      2.4240                 7.9570                17.0175

                     88                     89                     90
                      A                      A                      A
 Frequencies --   1545.1028              1551.4362              1815.1762
 Red. masses --      1.0907                 1.0440                11.8663
 Frc consts  --      1.5341                 1.4805                23.0358
 IR Inten    --      7.5912                11.6230               150.7889

                     91                     92                     93
                      A                      A                      A
 Frequencies --   3022.5123              3026.7698              3039.2182
 Red. masses --      1.0833                 1.0737                 1.0607
 Frc consts  --      5.8308                 5.7957                 5.7726
 IR Inten    --     16.8135                25.5156                19.7311

                     94                     95                     96
                      A                      A                      A
 Frequencies --   3045.0949              3047.0124              3059.1873
 Red. masses --      1.0660                 1.0633                 1.0628
 Frc consts  --      5.8238                 5.8163                 5.8605
 IR Inten    --      9.4124                55.8482                26.4964

                     97                     98                     99
                      A                      A                      A
 Frequencies --   3069.2052              3073.2030              3077.8312
 Red. masses --      1.0990                 1.0436                 1.0296
 Frc consts  --      6.0996                 5.8070                 5.7466
 IR Inten    --     13.2441                13.9475                34.2368

                    100                    101                    102
                      A                      A                      A
 Frequencies --   3083.5245              3088.3615              3100.4526
 Red. masses --      1.1035                 1.0977                 1.1029
 Frc consts  --      6.1821                 6.1689                 6.2464
 IR Inten    --     47.8029                41.9759                58.2867

                    103                    104                    105
                      A                      A                      A
 Frequencies --   3133.1020              3153.0421              3179.0122
 Red. masses --      1.1014                 1.1076                 1.0893
 Frc consts  --      6.3699                 6.4876                 6.4861
 IR Inten    --     36.4786                17.6723                 2.3462

                    106                    107                    108
                      A                      A                      A
 Frequencies --   3188.9604              3189.0527              3240.5122
 Red. masses --      1.1070                 1.0978                 1.0939
 Frc consts  --      6.6331                 6.5783                 6.7682
 IR Inten    --     18.7248                 5.9916                 1.0102

 - Thermochemistry -
 -------------------
 Temperature   298.150 Kelvin.  Pressure   1.00000 Atm.
 Atom     1 has atomic number  6 and mass  12.00000

 Molecular mass:   318.07080 amu.
 Principal axes and moments of inertia in atomic units:
                           1         2         3
     Eigenvalues --  2931.278009891.86785**********
           X            0.99998  -0.00569   0.00103
           Y            0.00570   0.99990  -0.01303
           Z           -0.00095   0.01304   0.99991
 This molecule is an asymmetric top.
 Rotational symmetry number  1.
 Warning -- assumption of classical behavior for rotation
           may cause significant error
 Rotational temperatures (Kelvin)      0.02955     0.00876     0.00811
 Rotational constants (GHZ):           0.61568     0.18245     0.16888
 Zero-point vibrational energy     804445.2 (Joules/Mol)
                                  192.26702 (Kcal/Mol)
 Warning -- explicit consideration of  32 degrees of freedom as
           vibrations may cause significant error
 Vibrational temperatures:     20.97    46.65    67.67    82.84   137.06
          (Kelvin)            150.03   161.78   196.15   205.05   221.05
                              261.74   286.73   321.08   342.72   363.26
                              380.23   401.69   418.09   447.47   471.90
                              481.83   529.58   537.22   543.36   573.19
                              654.46   694.41   741.15   754.92   783.36
                              802.19   869.28   926.04   933.61   978.77
                             1095.05  1120.54  1133.84  1137.85  1183.54
                             1222.52  1234.96  1265.13  1325.21  1330.28
                             1391.74  1409.96  1456.10  1461.32  1485.51
                             1526.23  1534.31  1554.75  1622.41  1626.51
                             1648.57  1656.05  1702.77  1706.56  1732.25
                             1763.25  1784.34  1801.16  1848.86  1877.89
                             1898.07  1916.02  1922.76  1945.22  1951.85
                             1995.65  2010.38  2026.27  2041.27  2046.14
                             2067.44  2081.94  2125.82  2153.55  2165.62
                             2175.67  2180.58  2186.97  2191.25  2198.31
                             2207.17  2216.38  2223.06  2232.17  2611.63
                             4348.72  4354.85  4372.76  4381.21  4383.97
                             4401.49  4415.90  4421.65  4428.31  4436.50
                             4443.46  4460.86  4507.83  4536.52  4573.89
                             4588.20  4588.34  4662.37

 Zero-point correction=                           0.306397 (Hartree/Particle)
 Thermal correction to Energy=                    0.326482
 Thermal correction to Enthalpy=                  0.327426
 Thermal correction to Gibbs Free Energy=         0.256462
 Sum of electronic and zero-point Energies=          -1674.579642
 Sum of electronic and thermal Energies=             -1674.559557
 Sum of electronic and thermal Enthalpies=           -1674.558613
 Sum of electronic and thermal Free Energies=        -1674.629577

                     E (Thermal)             CV                S
                      KCal/Mol        Cal/Mol-Kelvin    Cal/Mol-Kelvin
 Total                  204.870             75.106            149.356
 Electronic               0.000              0.000              0.000
 Translational            0.889              2.981             43.167
 Rotational               0.889              2.981             34.093
 Vibrational            203.093             69.144             72.096
 Vibration     1          0.593              1.986              7.262
 Vibration     2          0.594              1.983              5.675
 Vibration     3          0.595              1.979              4.938
 Vibration     4          0.596              1.974              4.538
 Vibration     5          0.603              1.953              3.549
 Vibration     6          0.605              1.946              3.373
 Vibration     7          0.607              1.939              3.226
 Vibration     8          0.614              1.917              2.855
 Vibration     9          0.616              1.911              2.770
 Vibration    10          0.619              1.899              2.627
 Vibration    11          0.630              1.864              2.309
 Vibration    12          0.637              1.841              2.140
 Vibration    13          0.649              1.806              1.933
 Vibration    14          0.656              1.782              1.816
 Vibration    15          0.664              1.759              1.713
 Vibration    16          0.671              1.738              1.633
 Vibration    17          0.680              1.712              1.539
 Vibration    18          0.687              1.691              1.471
 Vibration    19          0.700              1.653              1.357
 Vibration    20          0.711              1.620              1.270
 Vibration    21          0.716              1.606              1.236
 Vibration    22          0.741              1.538              1.088
 Vibration    23          0.745              1.527              1.066
 Vibration    24          0.748              1.518              1.049
 Vibration    25          0.765              1.474              0.969
 Vibration    26          0.813              1.350              0.781
 Vibration    27          0.839              1.289              0.703
 Vibration    28          0.870              1.216              0.621
 Vibration    29          0.880              1.195              0.599
 Vibration    30          0.900              1.152              0.556
 Vibration    31          0.913              1.123              0.529
 Vibration    32          0.963              1.023              0.443

 Optimization completed.
    -- Stationary point found.
 Normal termination of Gaussian 16 at Mon Dec 14 18:07:01 2020.

 ----------------------------------------------------------------------
 # B3LYP/6-311++G(d,p) empiricaldispersion=gd3bj scf=xqc pop=npa geom=c
 heck
 ----------------------------------------------------------------------

 ----------------------------------------
 CID_104255610_JID_10232_Energie_neutraal
 ----------------------------------------
 Structure from the checkpoint file:  "JID_10232.chk"
 Charge =  0 Multiplicity = 1

 SCF Done:  E(RB3LYP) =  -1675.18347752     A.U. after   18 cycles
 Normal termination of Gaussian 16 at Mon Dec 14 18:18:39 2020.

 ----------------------------------------------------------------------
 # B3LYP/6-311++G(d,p) empiricaldispersion=gd3bj scf=xqc pop=npa geom=c
 heck
 ----------------------------------------------------------------------

 --------------------------------------
 CID_104255610_JID_10232_Energie_kation
 --------------------------------------
 Structure from the checkpoint file:  "JID_10232.chk"
 Charge =  1 Multiplicity = 2

 SCF Done:  E(UB3LYP) =  -1674.86089108     A.U. after   33 cycles
 SCF Done:  E(UB3LYP) =  -1674.86089108     a.u. after    1 cycles
 Normal termination of Gaussian 16 at Mon Dec 14 18:50:17 2020.
 Gaussian 16:  ES64L-G16RevA.03 25-Dec-2016

 ----------------------------------------------------------------------
 # B3LYP/6-311++G(d,p) empiricaldispersion=gd3bj scf=xqc pop=npa geom=c
 heck
 ----------------------------------------------------------------------

 -------------------------------------
 CID_104255610_JID_10232_Energie_anion
 -------------------------------------
 Structure from the checkpoint file:  "JID_10232.chk"
 Charge = -1 Multiplicity = 2

                         Standard orientation:
 ---------------------------------------------------------------------
 Center     Atomic      Atomic             Coordinates (Angstroms)
 Number     Number       Type             X           Y           Z
 ---------------------------------------------------------------------
      1          6           0       -1.038379    0.071328    2.298703
      2          6           0       -2.022358   -0.515536    1.275285
      3          6           0       -3.392591    0.144755    1.535212
      4          6           0       -4.612443   -0.447000    0.814883
      5          6           0       -4.883829    0.173738   -0.562639
      6          6           0       -3.605603    0.430311   -1.376102
      7          6           0       -2.528996   -0.650174   -1.218151
      8          7           0       -1.559302   -0.326864   -0.138443
      9         16           0        0.004713   -0.968854   -0.461184
     10          8           0        0.376459   -1.941248    0.564539
     11          8           0        0.073785   -1.313156   -1.880626
     12          6           0        0.960676    0.533460   -0.248477
     13          6           0        2.321096    0.698648   -0.103544
     14          7           0        2.746109    2.007078   -0.032706
     15          6           0        1.739863    2.822651   -0.152556
     16         16           0        0.174136    2.074848   -0.333415
     17          6           0        3.303382   -0.420809   -0.076664
     18          8           0        3.071556   -1.525631   -0.516883
     19          8           0        4.465391   -0.048857    0.483768
     20          6           0        5.468424   -1.077717    0.517831
     21          1           0       -0.986635    1.160416    2.206163
     22          1           0       -0.034919   -0.343023    2.216896
     23          1           0       -1.406418   -0.164455    3.302194
     24          1           0       -2.122425   -1.594422    1.462452
     25          1           0       -3.548442    0.044230    2.615307
     26          1           0       -3.314866    1.222454    1.340974
     27          1           0       -5.500890   -0.314817    1.443461
     28          1           0       -4.475846   -1.531907    0.720847
     29          1           0       -5.422486    1.121954   -0.440315
     30          1           0       -5.554589   -0.487878   -1.124977
     31          1           0       -3.155908    1.390477   -1.099866
     32          1           0       -3.866027    0.510048   -2.438092
     33          1           0       -1.951934   -0.722098   -2.136789
     34          1           0       -2.979246   -1.638747   -1.049280
     35          1           0        1.837865    3.902347   -0.129490
     36          1           0        5.113879   -1.936374    1.093679
     37          1           0        5.711969   -1.405820   -0.495959
     38          1           0        6.334699   -0.620591    0.995360
 ---------------------------------------------------------------------

 SCF Done:  E(UB3LYP) =  -1675.20594679     A.U. after   31 cycles

 The electronic state is 2-A.
 Alpha  occ. eigenvalues --  -88.92779 -88.72903 -19.02332 -18.97974 -18.97946
 Alpha  occ. eigenvalues --  -18.94884 -14.22434 -14.17193 -10.13837 -10.11289
 Alpha  occ. eigenvalues --  -10.10546 -10.09799 -10.08629 -10.08579 -10.08184
 Alpha  occ. eigenvalues --  -10.07704 -10.07489 -10.05202 -10.05119 -10.04894
 Alpha  occ. eigenvalues --   -7.98816  -7.81574  -5.95143  -5.95058  -5.94903
 Alpha  occ. eigenvalues --   -5.77867  -5.77506  -5.77205  -0.98352  -0.96346
 Alpha  occ. eigenvalues --   -0.87524  -0.86960  -0.81856  -0.81566  -0.72080
 Alpha  occ. eigenvalues --   -0.69323  -0.66345  -0.62941  -0.62200  -0.59769
 Alpha  occ. eigenvalues --   -0.58747  -0.53961  -0.53766  -0.47979  -0.47164
 Alpha  occ. eigenvalues --   -0.46349  -0.44351  -0.42072  -0.40107  -0.38519
 Alpha  occ. eigenvalues --   -0.38139  -0.37102  -0.36681  -0.35420  -0.34919
 Alpha  occ. eigenvalues --   -0.33666  -0.32794  -0.32123  -0.31976  -0.31063
 Alpha  occ. eigenvalues --   -0.29925  -0.29076  -0.28795  -0.28583  -0.28038
 Alpha  occ. eigenvalues --   -0.26747  -0.26415  -0.25287  -0.24756  -0.23963
 Alpha  occ. eigenvalues --   -0.23538  -0.23409  -0.23077  -0.22134  -0.20991
 Alpha  occ. eigenvalues --   -0.19403  -0.18340  -0.17558  -0.16887  -0.15017
 Alpha  occ. eigenvalues --   -0.14110  -0.13504  -0.12077  -0.11277   0.03756
 Alpha virt. eigenvalues --    0.06003   0.07764   0.07991   0.08608   0.08987
 Alpha virt. eigenvalues --    0.09779   0.10538   0.10924   0.11229   0.12095
 Alpha virt. eigenvalues --    0.12239   0.12264   0.12706   0.13054   0.13838

  Beta  occ. eigenvalues --  -88.92782 -88.72811 -19.02250 -18.97932 -18.97858
  Beta  occ. eigenvalues --  -18.94674 -14.22439 -14.17327 -10.13708 -10.11288
  Beta  occ. eigenvalues --  -10.10549 -10.09794 -10.08629 -10.08579 -10.08183
  Beta  occ. eigenvalues --  -10.07702 -10.07185 -10.05004 -10.04889 -10.04551
  Beta  occ. eigenvalues --   -7.98819  -7.81491  -5.95143  -5.95045  -5.94920
  Beta  occ. eigenvalues --   -5.77827  -5.77468  -5.76896  -0.98215  -0.96126
  Beta  occ. eigenvalues --   -0.87366  -0.86632  -0.81781  -0.81423  -0.72066
  Beta  occ. eigenvalues --   -0.69316  -0.65776  -0.62565  -0.62074  -0.59685
  Beta  occ. eigenvalues --   -0.58457  -0.53932  -0.53575  -0.47746  -0.47001
  Beta  occ. eigenvalues --   -0.45988  -0.44156  -0.41912  -0.39883  -0.38404
  Beta  occ. eigenvalues --   -0.38072  -0.37091  -0.36627  -0.35120  -0.34895
  Beta  occ. eigenvalues --   -0.33496  -0.32540  -0.31966  -0.31894  -0.31021
  Beta  occ. eigenvalues --   -0.29751  -0.28947  -0.28587  -0.28553  -0.27229
  Beta  occ. eigenvalues --   -0.26717  -0.26352  -0.25197  -0.24098  -0.23830
  Beta  occ. eigenvalues --   -0.23396  -0.23203  -0.23056  -0.21821  -0.20816
  Beta  occ. eigenvalues --   -0.19119  -0.18009  -0.17335  -0.16174  -0.14813
  Beta  occ. eigenvalues --   -0.13335  -0.13065  -0.11974  -0.08864
  Beta virt. eigenvalues --    0.05985   0.07737   0.07964   0.08589   0.08972
  Beta virt. eigenvalues --    0.09758   0.10225   0.10523   0.11010   0.11271
  Beta virt. eigenvalues --    0.12188   0.12242   0.12435   0.13036   0.13434

 Mulliken charges and spin densities:
               1          2
     1  C   -0.719971  -0.024720
     2  C   -0.413075   0.043446
     3  C   -0.325769  -0.012361
     4  C   -0.043477  -0.000670
     5  C   -0.591512   0.003213
     6  C   -0.132737  -0.003570
     7  C   -0.331270   0.003244
     8  N    0.030143  -0.027468
     9  S    0.721411   0.079185
    10  O   -0.110454  -0.008708
    11  O   -0.093820  -0.012860
    12  C    0.371043   0.353884
    13  C   -0.669351   0.176129
    14  N   -0.037203  -0.080518
    15  C    0.099141   0.216327
    16  S   -0.330323   0.137452
    17  C   -0.810974   0.063007
    18  O   -0.247448   0.069958
    19  O   -0.044099   0.013803
    20  C   -0.201919  -0.002545
    21  H    0.160403   0.009043
    22  H    0.216072  -0.000066
    23  H    0.109206  -0.002333
    24  H    0.228755   0.001090
    25  H    0.134603   0.000348
    26  H    0.155058   0.004963
    27  H    0.149519   0.000010
    28  H    0.131126  -0.000074
    29  H    0.134290   0.000020
    30  H    0.129395   0.000042
    31  H    0.147226   0.003712
    32  H    0.148967   0.003703
    33  H    0.224162  -0.000852
    34  H    0.154562   0.000644
    35  H    0.213416  -0.012820
    36  H    0.157669   0.000917
    37  H    0.162919   0.005406
    38  H    0.124318   0.000021
 Sum of Mulliken charges =  -1.00000   1.00000

 Dipole moment (field-independent basis, Debye):
    X=             -8.1575    Y=              0.9949    Z=              2.4677  Tot=              8.5804
 Quadrupole moment (field-independent basis, Debye-Ang):
   XX=           -161.7035   YY=           -158.1378   ZZ=           -146.9188
   XY=             -2.6796   XZ=              2.4681   YZ=             -3.5134

 Summary of Natural Population Analysis:

                                       Natural Population
                Natural  -----------------------------------------------
    Atom  No    Charge         Core      Valence    Rydberg      Total
 -----------------------------------------------------------------------
      C    1   -0.29374      0.99964     2.28807    0.00604     3.29374
      C    2   -0.00140      0.99958     1.99091    0.01091     3.00140
      C    3   -0.19664      0.99961     2.18881    0.00822     3.19664
      C    4   -0.19280      0.99963     2.18594    0.00723     3.19280
      C    5   -0.18729      0.99964     2.18044    0.00722     3.18729
      C    6   -0.19980      0.99963     2.19272    0.00745     3.19980
      C    7   -0.09339      0.99960     2.08346    0.01032     3.09339
      N    8   -0.38640      0.99972     2.86803    0.01865     3.88640
      S    9    1.12232      4.99910     1.77928    0.09930     6.87768
      O   10   -0.45790      0.99990     3.45043    0.00757     4.45790
      O   11   -0.45286      0.99990     3.44722    0.00575     4.45286
      C   12   -0.12758      0.99932     2.11418    0.01407     3.12758
      C   13    0.03787      0.99934     1.94798    0.01481     2.96213
      N   14   -0.25174      0.99968     2.74133    0.01073     3.75174
      C   15   -0.01527      0.99967     1.99836    0.01723     3.01527
      S   16    0.22464      4.99938     2.75387    0.02211     7.77536
      C   17    0.40801      0.99964     1.56794    0.02441     2.59199
      O   18   -0.29110      0.99987     3.28426    0.00696     4.29110
      O   19   -0.26846      0.99986     3.25928    0.00932     4.26846
      C   20   -0.10667      0.99961     2.09840    0.00866     3.10667
      H   21    0.10428      0.00000     0.39450    0.00122     0.39572
      H   22    0.12111      0.00000     0.37788    0.00101     0.37889
      H   23    0.09147      0.00000     0.40758    0.00095     0.40853
      H   24    0.08918      0.00000     0.40928    0.00154     0.41082
      H   25    0.09967      0.00000     0.39924    0.00109     0.40033
      H   26    0.09968      0.00000     0.39908    0.00124     0.40032
      H   27    0.09507      0.00000     0.40381    0.00113     0.40493
      H   28    0.09489      0.00000     0.40389    0.00122     0.40511
      H   29    0.09264      0.00000     0.40626    0.00110     0.40736
      H   30    0.09219      0.00000     0.40671    0.00110     0.40781
      H   31    0.10647      0.00000     0.39241    0.00113     0.39353
      H   32    0.09751      0.00000     0.40147    0.00102     0.40249
      H   33    0.12212      0.00000     0.37669    0.00119     0.37788
      H   34    0.08260      0.00000     0.41623    0.00118     0.41740
      H   35    0.08412      0.00000     0.41449    0.00138     0.41588
      H   36    0.08776      0.00000     0.41091    0.00133     0.41224
      H   37    0.08703      0.00000     0.41165    0.00131     0.41297
      H   38    0.08242      0.00000     0.41671    0.00088     0.41758
 =======================================================================
   * Total *   -0.00000     27.99233    55.66968    0.33799    84.00000

 Normal termination of Gaussian 16 at Mon Dec 14 19:17:56 2020.
