 Gaussian 16, Revision A.03,

 -----------------------------------------------------------
 # opt freq B3LYP/6-31G(d) empiricaldispersion=gd3bj scf=xqc
 -----------------------------------------------------------

 -------------------------------
 CID_106130103_JID_5023_neutraal
 -------------------------------
 Symbolic Z-matrix:
 Charge =  0 Multiplicity = 1

 SCF Done:  E(RB3LYP) =  -705.991049321     A.U. after   16 cycles
 SCF Done:  E(RB3LYP) =  -706.005767242     A.U. after   16 cycles
 SCF Done:  E(RB3LYP) =  -706.000535691     A.U. after   15 cycles
 SCF Done:  E(RB3LYP) =  -706.012251200     A.U. after   14 cycles
 SCF Done:  E(RB3LYP) =  -706.016877842     A.U. after   13 cycles
 SCF Done:  E(RB3LYP) =  -706.016525797     A.U. after   14 cycles
 SCF Done:  E(RB3LYP) =  -706.019269506     A.U. after   12 cycles
 SCF Done:  E(RB3LYP) =  -706.021197873     A.U. after   12 cycles
 SCF Done:  E(RB3LYP) =  -706.022054226     A.U. after   12 cycles
 SCF Done:  E(RB3LYP) =  -706.022539726     A.U. after   12 cycles
 SCF Done:  E(RB3LYP) =  -706.023969813     A.U. after   11 cycles
 SCF Done:  E(RB3LYP) =  -706.023974667     A.U. after   10 cycles
 SCF Done:  E(RB3LYP) =  -706.023977739     A.U. after   11 cycles
 SCF Done:  E(RB3LYP) =  -706.023978501     A.U. after    9 cycles
 SCF Done:  E(RB3LYP) =  -706.023978637     A.U. after    7 cycles
 SCF Done:  E(RB3LYP) =  -706.023978718     A.U. after    7 cycles
 Optimization completed.
    -- Stationary point found.
 Normal termination of Gaussian 16 at Thu Dec 10 15:04:22 2020.

 --------------------------------------------------------------------
 #N Geom=AllCheck Guess=TCheck SCRF=Check GenChk RB3LYP/6-31G(d) Freq
 --------------------------------------------------------------------

 Structure from the checkpoint file:  "JID_5023.chk"
 -------------------------------
 CID_106130103_JID_5023_neutraal
 -------------------------------
 Charge =  0 Multiplicity = 1

 SCF Done:  E(RB3LYP) =  -706.023978718     A.U. after    1 cycles

  Exact polarizability: 135.865   3.980 118.648   1.862  -2.018 106.986
 Approx polarizability: 186.534   4.028 178.592   7.780 -15.018 162.958

                      1                      2                      3
                      A                      A                      A
 Frequencies --     26.0758                50.3918                70.5631
 Red. masses --      3.6099                 5.8598                 5.7842
 Frc consts  --      0.0014                 0.0088                 0.0170
 IR Inten    --      3.8532                 2.4833                 0.7501

                      4                      5                      6
                      A                      A                      A
 Frequencies --     94.9512                97.3565               103.3031
 Red. masses --      3.7258                 7.5842                 3.5154
 Frc consts  --      0.0198                 0.0424                 0.0221
 IR Inten    --      0.2921                 5.4737                 0.4810

                      7                      8                      9
                      A                      A                      A
 Frequencies --    121.9089               160.9502               209.6155
 Red. masses --      9.3650                 3.4724                 2.7038
 Frc consts  --      0.0820                 0.0530                 0.0700
 IR Inten    --      4.0402                 0.7320                 3.0606

                     10                     11                     12
                      A                      A                      A
 Frequencies --    232.2168               247.2376               270.0856
 Red. masses --      4.2313                 3.9557                 3.3222
 Frc consts  --      0.1344                 0.1425                 0.1428
 IR Inten    --      2.8490                14.7487                 4.0701

                     13                     14                     15
                      A                      A                      A
 Frequencies --    330.9416               368.1472               391.1965
 Red. masses --      3.1454                 2.6777                 2.0235
 Frc consts  --      0.2030                 0.2138                 0.1825
 IR Inten    --      4.1441                 0.3595                 7.5753

                     16                     17                     18
                      A                      A                      A
 Frequencies --    409.8595               421.3746               435.2362
 Red. masses --      2.2822                 2.0916                 1.1652
 Frc consts  --      0.2259                 0.2188                 0.1300
 IR Inten    --      3.9973                 8.4853                57.6681

                     19                     20                     21
                      A                      A                      A
 Frequencies --    458.5492               481.9679               495.7978
 Red. masses --      2.4039                 4.7195                 2.3979
 Frc consts  --      0.2978                 0.6459                 0.3473
 IR Inten    --     34.5686                12.6250                28.1712

                     22                     23                     24
                      A                      A                      A
 Frequencies --    548.2836               592.6032               649.7040
 Red. masses --      2.6625                 2.4725                 2.3494
 Frc consts  --      0.4716                 0.5116                 0.5843
 IR Inten    --     50.6879                11.7208                20.7603

                     25                     26                     27
                      A                      A                      A
 Frequencies --    686.5637               691.0572               727.6573
 Red. masses --      3.1923                 1.7699                 2.4388
 Frc consts  --      0.8866                 0.4980                 0.7608
 IR Inten    --     54.9431                77.0165                62.1457

                     28                     29                     30
                      A                      A                      A
 Frequencies --    800.8410               831.7490               843.1719
 Red. masses --      2.7997                 2.6360                 4.7880
 Frc consts  --      1.0579                 1.0744                 2.0055
 IR Inten    --      4.0200                 6.3942                12.7018

                     31                     32                     33
                      A                      A                      A
 Frequencies --    868.6098               894.5024               904.9642
 Red. masses --      2.2890                 1.8103                 5.2212
 Frc consts  --      1.0175                 0.8534                 2.5193
 IR Inten    --      3.2545                 0.8719                17.0015

                     34                     35                     36
                      A                      A                      A
 Frequencies --    946.4108               951.2750               975.7462
 Red. masses --      2.3719                 1.7294                 1.7623
 Frc consts  --      1.2517                 0.9220                 0.9885
 IR Inten    --     15.7586                 9.7816                 0.8930

                     37                     38                     39
                      A                      A                      A
 Frequencies --    989.4853              1016.9035              1040.6044
 Red. masses --      2.0501                 1.7274                 2.3732
 Frc consts  --      1.1826                 1.0525                 1.5141
 IR Inten    --      4.6786                 7.2267                26.3257

                     40                     41                     42
                      A                      A                      A
 Frequencies --   1050.2251              1087.0612              1111.2236
 Red. masses --      2.1840                 2.0572                 1.7691
 Frc consts  --      1.4193                 1.4323                 1.2871
 IR Inten    --     13.6789                 7.8443                 1.9686

                     43                     44                     45
                      A                      A                      A
 Frequencies --   1130.7808              1137.7788              1158.1833
 Red. masses --      2.6185                 2.9054                 2.2133
 Frc consts  --      1.9727                 2.2160                 1.7493
 IR Inten    --      6.2471                13.9743                42.2846

                     46                     47                     48
                      A                      A                      A
 Frequencies --   1183.1711              1216.3191              1237.6465
 Red. masses --      1.2843                 1.7498                 1.5399
 Frc consts  --      1.0593                 1.5252                 1.3897
 IR Inten    --     43.1734                 7.7802                63.3134

                     49                     50                     51
                      A                      A                      A
 Frequencies --   1265.5764              1290.5362              1293.7788
 Red. masses --      1.7115                 1.3913                 1.3028
 Frc consts  --      1.6151                 1.3653                 1.2849
 IR Inten    --     45.9897                18.4151                 1.6087

                     52                     53                     54
                      A                      A                      A
 Frequencies --   1314.3398              1324.7207              1329.8088
 Red. masses --      1.3659                 1.4177                 1.3533
 Frc consts  --      1.3902                 1.4658                 1.4100
 IR Inten    --      1.4143                54.4710                 4.6004

                     55                     56                     57
                      A                      A                      A
 Frequencies --   1339.9717              1345.3881              1359.3727
 Red. masses --      1.2927                 1.2149                 1.3911
 Frc consts  --      1.3676                 1.2956                 1.5146
 IR Inten    --      8.6217                 1.1313                 1.0399

                     58                     59                     60
                      A                      A                      A
 Frequencies --   1370.7523              1390.9759              1404.8773
 Red. masses --      1.3553                 1.3113                 1.3938
 Frc consts  --      1.5004                 1.4948                 1.6208
 IR Inten    --      2.1968                 6.6439                 4.6824

                     61                     62                     63
                      A                      A                      A
 Frequencies --   1412.0817              1426.8592              1450.1042
 Red. masses --      1.3596                 1.4433                 1.2014
 Frc consts  --      1.5973                 1.7313                 1.4885
 IR Inten    --     12.5603                22.3381                46.6656

                     64                     65                     66
                      A                      A                      A
 Frequencies --   1477.8508              1495.8353              1499.0627
 Red. masses --      1.4347                 1.1581                 1.0741
 Frc consts  --      1.8462                 1.5267                 1.4221
 IR Inten    --     23.2234                29.6632                 5.4557

                     67                     68                     69
                      A                      A                      A
 Frequencies --   1508.3183              1517.5107              1525.8325
 Red. masses --      1.0926                 1.0995                 1.2460
 Frc consts  --      1.4645                 1.4918                 1.7091
 IR Inten    --      6.5009                 1.7781                39.8771

                     70                     71                     72
                      A                      A                      A
 Frequencies --   1533.4481              1542.5012              1796.9304
 Red. masses --      1.1014                 1.0980                 8.6901
 Frc consts  --      1.5259                 1.5392                16.5324
 IR Inten    --      2.1156                 3.4192               233.2570

                     73                     74                     75
                      A                      A                      A
 Frequencies --   2369.8466              3012.7087              3014.8839
 Red. masses --     12.5621                 1.0757                 1.0762
 Frc consts  --     41.5673                 5.7527                 5.7636
 IR Inten    --      2.3518                49.8903                26.0940

                     76                     77                     78
                      A                      A                      A
 Frequencies --   3019.3084              3039.6872              3060.7406
 Red. masses --      1.0717                 1.0683                 1.0614
 Frc consts  --      5.7563                 5.8155                 5.8584
 IR Inten    --     33.1339                29.9844                28.6091

                     79                     80                     81
                      A                      A                      A
 Frequencies --   3070.8339              3077.6976              3086.9334
 Red. masses --      1.0923                 1.0692                 1.0611
 Frc consts  --      6.0689                 5.9668                 5.9575
 IR Inten    --     11.2467                39.2326                 3.8254

                     82                     83                     84
                      A                      A                      A
 Frequencies --   3091.2529              3104.8855              3113.4845
 Red. masses --      1.0920                 1.1002                 1.0961
 Frc consts  --      6.1481                 6.2489                 6.2605
 IR Inten    --     34.8405                67.2726                32.1487

                     85                     86                     87
                      A                      A                      A
 Frequencies --   3121.0116              3131.2419              3140.6521
 Red. masses --      1.0929                 1.1003                 1.0987
 Frc consts  --      6.2723                 6.3560                 6.3850
 IR Inten    --     21.5428                 6.2584                15.2896

                     88                     89                     90
                      A                      A                      A
 Frequencies --   3522.4889              3578.5077              3706.0443
 Red. masses --      1.0734                 1.0765                 1.0663
 Frc consts  --      7.8468                 8.1224                 8.6291
 IR Inten    --      4.5088                22.5570               116.6840

 - Thermochemistry -
 -------------------
 Temperature   298.150 Kelvin.  Pressure   1.00000 Atm.
 Atom     1 has atomic number  6 and mass  12.00000

 Molecular mass:   211.13208 amu.
 Principal axes and moments of inertia in atomic units:
                           1         2         3
     Eigenvalues --  2204.416654015.675824825.20141
           X            0.99950   0.02954  -0.01152
           Y           -0.02914   0.99901   0.03373
           Z            0.01251  -0.03338   0.99936
 This molecule is an asymmetric top.
 Rotational symmetry number  1.
 Warning -- assumption of classical behavior for rotation
           may cause significant error
 Rotational temperatures (Kelvin)      0.03929     0.02157     0.01795
 Rotational constants (GHZ):           0.81869     0.44942     0.37402
 Zero-point vibrational energy     725109.8 (Joules/Mol)
                                  173.30540 (Kcal/Mol)
 Warning -- explicit consideration of  23 degrees of freedom as
           vibrations may cause significant error
 Vibrational temperatures:     37.52    72.50   101.52   136.61   140.07
          (Kelvin)            148.63   175.40   231.57   301.59   334.11
                              355.72   388.59   476.15   529.68   562.84
                              589.70   606.26   626.21   659.75   693.44
                              713.34   788.86   852.62   934.78   987.81
                              994.28  1046.94  1152.23  1196.70  1213.14
                             1249.74  1286.99  1302.04  1361.67  1368.67
                             1403.88  1423.65  1463.10  1497.20  1511.04
                             1564.04  1598.80  1626.94  1637.01  1666.37
                             1702.32  1750.01  1780.70  1820.88  1856.79
                             1861.46  1891.04  1905.98  1913.30  1927.92
                             1935.71  1955.83  1972.21  2001.30  2021.31
                             2031.67  2052.93  2086.38  2126.30  2152.17
                             2156.82  2170.13  2183.36  2195.33  2206.29
                             2219.32  2585.38  3409.68  4334.62  4337.75
                             4344.11  4373.43  4403.72  4418.25  4428.12
                             4441.41  4447.62  4467.24  4479.61  4490.44
                             4505.16  4518.70  5068.08  5148.67  5332.17

 Zero-point correction=                           0.276180 (Hartree/Particle)
 Thermal correction to Energy=                    0.291504
 Thermal correction to Enthalpy=                  0.292449
 Thermal correction to Gibbs Free Energy=         0.232880
 Sum of electronic and zero-point Energies=           -705.747799
 Sum of electronic and thermal Energies=              -705.732474
 Sum of electronic and thermal Enthalpies=            -705.731530
 Sum of electronic and thermal Free Energies=         -705.791098

                     E (Thermal)             CV                S
                      KCal/Mol        Cal/Mol-Kelvin    Cal/Mol-Kelvin
 Total                  182.922             57.509            125.371
 Electronic               0.000              0.000              0.000
 Translational            0.889              2.981             41.946
 Rotational               0.889              2.981             32.124
 Vibrational            181.144             51.548             51.302
 Vibration     1          0.593              1.985              6.108
 Vibration     2          0.595              1.977              4.802
 Vibration     3          0.598              1.968              4.138
 Vibration     4          0.603              1.953              3.555
 Vibration     5          0.603              1.951              3.507
 Vibration     6          0.605              1.947              3.391
 Vibration     7          0.609              1.931              3.070
 Vibration     8          0.622              1.890              2.539
 Vibration     9          0.642              1.826              2.047
 Vibration    10          0.653              1.792              1.862
 Vibration    11          0.661              1.767              1.750
 Vibration    12          0.674              1.728              1.596
 Vibration    13          0.713              1.614              1.255
 Vibration    14          0.741              1.538              1.087
 Vibration    15          0.759              1.489              0.996
 Vibration    16          0.774              1.449              0.927
 Vibration    17          0.784              1.424              0.887
 Vibration    18          0.796              1.393              0.842
 Vibration    19          0.817              1.342              0.770
 Vibration    20          0.838              1.290              0.705
 Vibration    21          0.851              1.259              0.669
 Vibration    22          0.904              1.143              0.548
 Vibration    23          0.950              1.048              0.463

                           ! Non-Optimized Parameters !
 Normal termination of Gaussian 16 at Thu Dec 10 15:15:38 2020.

 ----------------------------------------------------------------------
 # B3LYP/6-311++G(d,p) empiricaldispersion=gd3bj scf=xqc pop=npa geom=c
 heck
 ----------------------------------------------------------------------

 ---------------------------------------
 CID_106130103_JID_5023_Energie_neutraal
 ---------------------------------------
 Structure from the checkpoint file:  "JID_5023.chk"
 Charge =  0 Multiplicity = 1

 SCF Done:  E(RB3LYP) =  -706.240447770     A.U. after   14 cycles
 Normal termination of Gaussian 16 at Thu Dec 10 15:20:31 2020.

 ----------------------------------------------------------------------
 # B3LYP/6-311++G(d,p) empiricaldispersion=gd3bj scf=xqc pop=npa geom=c
 heck
 ----------------------------------------------------------------------

 -------------------------------------
 CID_106130103_JID_5023_Energie_kation
 -------------------------------------
 Structure from the checkpoint file:  "JID_5023.chk"
 Charge =  1 Multiplicity = 2

 SCF Done:  E(UB3LYP) =  -705.937016065     A.U. after   25 cycles
 Normal termination of Gaussian 16 at Thu Dec 10 15:34:34 2020.
 Gaussian 16:  ES64L-G16RevA.03 25-Dec-2016

 ----------------------------------------------------------------------
 # B3LYP/6-311++G(d,p) empiricaldispersion=gd3bj scf=xqc pop=npa geom=c
 heck
 ----------------------------------------------------------------------

 ------------------------------------
 CID_106130103_JID_5023_Energie_anion
 ------------------------------------
 Structure from the checkpoint file:  "JID_5023.chk"
 Charge = -1 Multiplicity = 2

                         Standard orientation:
 ---------------------------------------------------------------------
 Center     Atomic      Atomic             Coordinates (Angstroms)
 Number     Number       Type             X           Y           Z
 ---------------------------------------------------------------------
      1          6           0       -0.962602   -0.463171    1.026864
      2          6           0       -2.316106    0.010868    1.572526
      3          6           0       -3.115944    0.364486    0.306410
      4          6           0       -2.690141   -0.726233   -0.710190
      5          6           0       -1.340118   -1.322155   -0.202324
      6          6           0       -0.303958   -1.390069   -1.331192
      7          7           0        1.002005   -1.987393   -1.013055
      8          6           0        2.118720   -1.081962   -0.831684
      9          6           0        2.271323   -0.556755    0.602272
     10          8           0        2.123927   -1.300721    1.559045
     11          7           0        2.641101    0.761516    0.798369
     12          6           0        2.601702    1.821069   -0.190984
     13          6           0        1.226405    2.174044   -0.606241
     14          7           0        0.124266    2.376327   -0.904432
     15          8           0       -2.856102    1.685775   -0.153707
     16          1           0       -0.373510    0.405807    0.712109
     17          1           0       -0.359274   -1.007470    1.756187
     18          1           0       -2.250902    0.861185    2.258297
     19          1           0       -2.811095   -0.815082    2.101877
     20          1           0       -4.194599    0.349046    0.487987
     21          1           0       -3.453945   -1.506935   -0.791770
     22          1           0       -2.594826   -0.272437   -1.703349
     23          1           0       -1.520697   -2.348822    0.147430
     24          1           0       -0.748995   -1.962163   -2.158158
     25          1           0       -0.136544   -0.377793   -1.719969
     26          1           0        0.943205   -2.609502   -0.210468
     27          1           0        3.059193   -1.611746   -1.047905
     28          1           0        2.037449   -0.281824   -1.571105
     29          1           0        2.616305    1.040356    1.773023
     30          1           0        3.082028    2.709011    0.229989
     31          1           0        3.176245    1.547353   -1.081102
     32          1           0       -1.919930    1.766709   -0.404698
 ---------------------------------------------------------------------

 SCF Done:  E(UB3LYP) =  -706.239698179     A.U. after   31 cycles

 The electronic state is 2-A.
 Alpha  occ. eigenvalues --  -19.01777 -19.00244 -14.25075 -14.22779 -14.20781
 Alpha  occ. eigenvalues --  -10.18341 -10.15180 -10.12861 -10.12716 -10.11253
 Alpha  occ. eigenvalues --  -10.10331 -10.08636 -10.07943 -10.07445 -10.06810
 Alpha  occ. eigenvalues --   -0.95477  -0.92215  -0.84622  -0.81902  -0.81652
 Alpha  occ. eigenvalues --   -0.74171  -0.66066  -0.65352  -0.62254  -0.60654
 Alpha  occ. eigenvalues --   -0.55080  -0.49579  -0.49032  -0.47968  -0.44923
 Alpha  occ. eigenvalues --   -0.42053  -0.41397  -0.41208  -0.39327  -0.38121
 Alpha  occ. eigenvalues --   -0.36268  -0.35362  -0.34659  -0.34088  -0.32707
 Alpha  occ. eigenvalues --   -0.32516  -0.30827  -0.29308  -0.28693  -0.27635
 Alpha  occ. eigenvalues --   -0.27337  -0.26539  -0.25974  -0.25232  -0.24684
 Alpha  occ. eigenvalues --   -0.24138  -0.22810  -0.22214  -0.18128  -0.17639
 Alpha  occ. eigenvalues --   -0.17359  -0.13162   0.04101
 Alpha virt. eigenvalues --    0.06302   0.07353   0.08144   0.08540   0.08726
 Alpha virt. eigenvalues --    0.09116   0.09474   0.10671   0.11038   0.11489
 Alpha virt. eigenvalues --    0.11678   0.11842   0.12056   0.12329   0.13358

  Beta  occ. eigenvalues --  -19.01776 -19.00240 -14.25027 -14.22739 -14.20775
  Beta  occ. eigenvalues --  -10.18343 -10.15068 -10.12861 -10.12693 -10.11215
  Beta  occ. eigenvalues --  -10.10329 -10.08636 -10.07942 -10.07444 -10.06807
  Beta  occ. eigenvalues --   -0.95465  -0.92214  -0.84535  -0.81822  -0.81635
  Beta  occ. eigenvalues --   -0.74167  -0.65960  -0.65234  -0.62243  -0.60613
  Beta  occ. eigenvalues --   -0.55057  -0.49528  -0.48988  -0.47958  -0.44818
  Beta  occ. eigenvalues --   -0.42023  -0.41381  -0.40975  -0.39307  -0.38085
  Beta  occ. eigenvalues --   -0.36251  -0.35341  -0.34629  -0.33999  -0.32683
  Beta  occ. eigenvalues --   -0.32496  -0.30799  -0.29245  -0.28680  -0.27624
  Beta  occ. eigenvalues --   -0.27314  -0.26474  -0.25914  -0.25214  -0.24602
  Beta  occ. eigenvalues --   -0.24115  -0.22791  -0.22208  -0.18098  -0.17608
  Beta  occ. eigenvalues --   -0.17351  -0.13148
  Beta virt. eigenvalues --    0.06229   0.07525   0.07982   0.08474   0.08660
  Beta virt. eigenvalues --    0.09259   0.09515   0.09859   0.10966   0.11055
  Beta virt. eigenvalues --    0.11488   0.11758   0.12074   0.12710   0.13007

 Mulliken charges and spin densities:
               1          2
     1  C   -0.333030   0.071830
     2  C   -0.421476  -0.073755
     3  C   -0.154334  -0.013303
     4  C   -0.637091  -0.037300
     5  C    0.437707   0.083616
     6  C   -0.642579  -0.115295
     7  N   -0.066819   0.076260
     8  C    1.064067  -1.413316
     9  C   -0.693887   0.685291
    10  O   -0.322566   0.016215
    11  N   -0.358967   0.325426
    12  C    2.811659  -3.396800
    13  C   -0.443799   0.765402
    14  N   -0.263952   0.042748
    15  O   -0.251857   0.001843
    16  H    0.259491  -0.226823
    17  H    0.167200   0.050955
    18  H    0.133169   0.071795
    19  H    0.111137  -0.002679
    20  H    0.188544  -0.004787
    21  H    0.102736   0.008079
    22  H    0.213295  -0.004129
    23  H    0.169898  -0.001061
    24  H    0.165091   0.015342
    25  H    0.001651   0.100230
    26  H    0.218440   0.002444
    27  H   -0.176802   0.404258
    28  H    0.225161  -0.084223
    29  H   -0.357280   0.691985
    30  H   -1.472333   1.729205
    31  H   -0.933749   1.185501
    32  H    0.261280   0.045049
 Sum of Mulliken charges =  -1.00000   1.00000

 Dipole moment (field-independent basis, Debye):
    X=             -9.9430    Y=             -8.0398    Z=             -0.7784  Tot=             12.8104
 Quadrupole moment (field-independent basis, Debye-Ang):
   XX=           -164.5055   YY=           -143.5604   ZZ=           -124.4285
   XY=            -11.2781   XZ=             -5.0802   YZ=             -2.0489

 Summary of Natural Population Analysis:

                                       Natural Population
                Natural  -----------------------------------------------
    Atom  No    Charge         Core      Valence    Rydberg      Total
 -----------------------------------------------------------------------
      C    1   -0.20814      0.99962     2.19823    0.01030     3.20814
      C    2   -0.20075      0.99962     2.19378    0.00735     3.20075
      C    3    0.06492      0.99957     1.92223    0.01328     2.93508
      C    4   -0.20378      0.99962     2.19723    0.00693     3.20378
      C    5   -0.11547      0.99960     2.10799    0.00788     3.11547
      C    6   -0.08487      0.99959     2.07284    0.01243     3.08487
      N    7   -0.34072      0.99976     2.83015    0.01081     3.84072
      C    8   -0.12897      0.99958     2.11676    0.01262     3.12897
      C    9    0.34257      0.99967     1.63444    0.02332     2.65743
      O   10   -0.32297      0.99987     3.31684    0.00625     4.32297
      N   11   -0.31498      0.99968     2.80176    0.01354     3.81498
      C   12   -0.15127      0.99951     2.13578    0.01598     3.15127
      C   13    0.17748      0.99963     1.80789    0.01499     2.82252
      N   14   -0.20445      0.99975     2.69188    0.01282     3.70445
      O   15   -0.37969      0.99990     3.37304    0.00675     4.37969
      H   16    0.10004      0.00000     0.39742    0.00254     0.39996
      H   17    0.11291      0.00000     0.38602    0.00107     0.38709
      H   18    0.10585      0.00000     0.39303    0.00112     0.39415
      H   19    0.09285      0.00000     0.40613    0.00102     0.40715
      H   20    0.08314      0.00000     0.41572    0.00115     0.41686
      H   21    0.09839      0.00000     0.40073    0.00088     0.40161
      H   22    0.10411      0.00000     0.39464    0.00126     0.39589
      H   23    0.09041      0.00000     0.40833    0.00126     0.40959
      H   24    0.08699      0.00000     0.41198    0.00103     0.41301
      H   25    0.09524      0.00000     0.40305    0.00170     0.40476
      H   26    0.18010      0.00000     0.31758    0.00232     0.31990
      H   27    0.10742      0.00000     0.39131    0.00127     0.39258
      H   28    0.10044      0.00000     0.39799    0.00158     0.39956
      H   29    0.20386      0.00000     0.28947    0.00667     0.29614
      H   30    0.14103      0.00000     0.33152    0.02745     0.35897
      H   31    0.12720      0.00000     0.36404    0.00876     0.37280
      H   32    0.24110      0.00000     0.25550    0.00340     0.25890
 =======================================================================
   * Total *   -0.00000     14.99497    41.76530    0.23974    57.00000

 Normal termination of Gaussian 16 at Thu Dec 10 15:54:26 2020.
