 Gaussian 16, Revision A.03,

 -----------------------------------------------------------
 # opt freq B3LYP/6-31G(d) empiricaldispersion=gd3bj scf=xqc
 -----------------------------------------------------------

 -------------------------------
 CID_142166053_JID_1612_neutraal
 -------------------------------
 Symbolic Z-matrix:
 Charge =  0 Multiplicity = 1

 SCF Done:  E(RB3LYP) =  -787.710115856     A.U. after   15 cycles
 SCF Done:  E(RB3LYP) =  -787.714136148     A.U. after   12 cycles
 SCF Done:  E(RB3LYP) =  -787.714544743     A.U. after   11 cycles
 SCF Done:  E(RB3LYP) =  -787.714808724     A.U. after   12 cycles
 SCF Done:  E(RB3LYP) =  -787.714884565     A.U. after   12 cycles
 SCF Done:  E(RB3LYP) =  -787.715115808     A.U. after   11 cycles
 SCF Done:  E(RB3LYP) =  -787.715398594     A.U. after   12 cycles
 SCF Done:  E(RB3LYP) =  -787.715463042     A.U. after   11 cycles
 SCF Done:  E(RB3LYP) =  -787.715479294     A.U. after   10 cycles
 SCF Done:  E(RB3LYP) =  -787.715487924     A.U. after    9 cycles
 SCF Done:  E(RB3LYP) =  -787.716230050     A.U. after    9 cycles
 SCF Done:  E(RB3LYP) =  -787.716231584     A.U. after    8 cycles
 SCF Done:  E(RB3LYP) =  -787.716232036     A.U. after    8 cycles
 SCF Done:  E(RB3LYP) =  -787.716232281     A.U. after    7 cycles
 Optimization completed.
    -- Stationary point found.
 Normal termination of Gaussian 16 at Tue Dec  8 19:49:43 2020.

 --------------------------------------------------------------------
 #N Geom=AllCheck Guess=TCheck SCRF=Check GenChk RB3LYP/6-31G(d) Freq
 --------------------------------------------------------------------

 Structure from the checkpoint file:  "JID_1612.chk"
 -------------------------------
 CID_142166053_JID_1612_neutraal
 -------------------------------
 Charge =  0 Multiplicity = 1

 SCF Done:  E(RB3LYP) =  -787.716232281     A.U. after    1 cycles

  Exact polarizability: 132.255  -0.028 144.172   8.434   4.982  82.039
 Approx polarizability: 195.002   3.352 225.129  20.422  14.686 128.419

                      1                      2                      3
                      A                      A                      A
 Frequencies --     49.2692                80.7417                99.4086
 Red. masses --      2.6825                 3.0613                 2.9953
 Frc consts  --      0.0038                 0.0118                 0.0174
 IR Inten    --      0.0961                 0.2944                 0.2218

                      4                      5                      6
                      A                      A                      A
 Frequencies --    139.1927               148.4676               186.1742
 Red. masses --      2.7274                 1.0787                 1.7567
 Frc consts  --      0.0311                 0.0140                 0.0359
 IR Inten    --      0.2350                 0.1033                 0.9634

                      7                      8                      9
                      A                      A                      A
 Frequencies --    207.9645               215.5051               230.3989
 Red. masses --      1.6139                 1.6700                 2.0120
 Frc consts  --      0.0411                 0.0457                 0.0629
 IR Inten    --      1.0294                 0.2610                 0.3363

                     10                     11                     12
                      A                      A                      A
 Frequencies --    272.9466               291.0641               348.7004
 Red. masses --      3.5640                 1.6887                 3.6958
 Frc consts  --      0.1564                 0.0843                 0.2648
 IR Inten    --      2.1094                 0.6271                 2.5668

                     13                     14                     15
                      A                      A                      A
 Frequencies --    385.1946               464.0212               484.1774
 Red. masses --      3.0907                 4.6579                 2.9759
 Frc consts  --      0.2702                 0.5909                 0.4110
 IR Inten    --      0.6717                 0.8734                 2.1254

                     16                     17                     18
                      A                      A                      A
 Frequencies --    540.3327               562.4217               606.4187
 Red. masses --      4.3252                 4.8229                 3.4035
 Frc consts  --      0.7440                 0.8988                 0.7374
 IR Inten    --      0.6994                 3.7559                 2.4249

                     19                     20                     21
                      A                      A                      A
 Frequencies --    628.4695               689.3078               739.4977
 Red. masses --      4.3721                 2.1903                 1.2146
 Frc consts  --      1.0175                 0.6132                 0.3913
 IR Inten    --      4.4202                13.9598                23.1377

                     22                     23                     24
                      A                      A                      A
 Frequencies --    774.6310               808.6360               862.6958
 Red. masses --      1.5735                 1.5456                 4.1961
 Frc consts  --      0.5563                 0.5955                 1.8400
 IR Inten    --     12.0131                 8.5981                 7.8924

                     25                     26                     27
                      A                      A                      A
 Frequencies --    892.8455               944.5389               957.2393
 Red. masses --      3.4481                 2.2248                 1.9734
 Frc consts  --      1.6195                 1.1695                 1.0654
 IR Inten    --      1.3630                12.7139                 3.6742

                     28                     29                     30
                      A                      A                      A
 Frequencies --    998.4446              1026.7614              1070.5644
 Red. masses --      1.1938                 1.5816                 2.6745
 Frc consts  --      0.7012                 0.9824                 1.8060
 IR Inten    --      0.9024                 3.7802                 5.9714

                     31                     32                     33
                      A                      A                      A
 Frequencies --   1076.9270              1077.7230              1100.5910
 Red. masses --      1.4850                 1.5371                 1.8046
 Frc consts  --      1.0147                 1.0519                 1.2879
 IR Inten    --      0.9601                 3.4333                 1.4999

                     34                     35                     36
                      A                      A                      A
 Frequencies --   1111.9629              1147.9036              1200.0987
 Red. masses --      1.7146                 1.9387                 1.6635
 Frc consts  --      1.2491                 1.5052                 1.4116
 IR Inten    --      0.5437                 6.4159                 3.4618

                     37                     38                     39
                      A                      A                      A
 Frequencies --   1232.3502              1285.3453              1313.4278
 Red. masses --      2.5388                 1.2024                 1.1680
 Frc consts  --      2.2717                 1.1704                 1.1871
 IR Inten    --      4.4446                 0.3438                 3.7153

                     40                     41                     42
                      A                      A                      A
 Frequencies --   1374.2059              1388.8463              1428.5361
 Red. masses --      1.4903                 2.8338                 1.3216
 Frc consts  --      1.6581                 3.2205                 1.5891
 IR Inten    --      7.5887                 3.8231                 4.1729

                     43                     44                     45
                      A                      A                      A
 Frequencies --   1441.2132              1444.3589              1465.1559
 Red. masses --      1.2295                 1.2680                 1.6542
 Frc consts  --      1.5046                 1.5586                 2.0923
 IR Inten    --      1.3897                 0.2883                 7.6027

                     46                     47                     48
                      A                      A                      A
 Frequencies --   1508.8982              1510.8737              1513.4162
 Red. masses --      1.0681                 1.0591                 1.3372
 Frc consts  --      1.4328                 1.4244                 1.8046
 IR Inten    --      4.4679                 6.5179                 2.8937

                     49                     50                     51
                      A                      A                      A
 Frequencies --   1518.1864              1520.7005              1528.2751
 Red. masses --      1.0680                 1.0592                 1.0512
 Frc consts  --      1.4503                 1.4432                 1.4465
 IR Inten    --      8.6314                 6.7494                 7.9004

                     52                     53                     54
                      A                      A                      A
 Frequencies --   1532.8877              1542.7598              1622.1864
 Red. masses --      1.0815                 2.9041                 6.3459
 Frc consts  --      1.4972                 4.0724                 9.8389
 IR Inten    --      3.3582                 7.7293                 1.9049

                     55                     56                     57
                      A                      A                      A
 Frequencies --   1725.5043              3026.0148              3034.5779
 Red. masses --      6.4740                 1.0691                 1.0418
 Frc consts  --     11.3567                 5.7680                 5.6526
 IR Inten    --      1.9711                17.4470                35.5619

                     58                     59                     60
                      A                      A                      A
 Frequencies --   3039.6418              3053.4361              3080.7562
 Red. masses --      1.0390                 1.0350                 1.0976
 Frc consts  --      5.6559                 5.6856                 6.1376
 IR Inten    --     32.4043                27.4299                24.2824

                     61                     62                     63
                      A                      A                      A
 Frequencies --   3090.3739              3093.2312              3121.5114
 Red. masses --      1.0988                 1.0926                 1.1014
 Frc consts  --      6.1831                 6.1594                 6.3233
 IR Inten    --     19.8795                 1.4762                39.2524

                     64                     65                     66
                      A                      A                      A
 Frequencies --   3128.7919              3129.0650              3130.8597
 Red. masses --      1.0980                 1.1032                 1.0886
 Frc consts  --      6.3330                 6.3642                 6.2872
 IR Inten    --     14.8492                29.5184                10.9275

                     67                     68                     69
                      A                      A                      A
 Frequencies --   3139.7947              3161.2113              3259.6403
 Red. masses --      1.0951                 1.0940                 1.0939
 Frc consts  --      6.3607                 6.4411                 6.8478
 IR Inten    --      4.4859                54.3508                 1.5667

 - Thermochemistry -
 -------------------
 Temperature   298.150 Kelvin.  Pressure   1.00000 Atm.
 Atom     1 has atomic number  6 and mass  12.00000

 Molecular mass:   166.08162 amu.
 Principal axes and moments of inertia in atomic units:
                           1         2         3
     Eigenvalues --  1799.826331870.727253223.92726
           X            0.29363   0.95592  -0.00251
           Y            0.95572  -0.29362  -0.01954
           Z            0.01941  -0.00334   0.99981
 This molecule is an asymmetric top.
 Rotational symmetry number  1.
 Warning -- assumption of classical behavior for rotation
           may cause significant error
 Rotational temperatures (Kelvin)      0.04812     0.04630     0.02687
 Rotational constants (GHZ):           1.00273     0.96473     0.55980
 Zero-point vibrational energy     561092.1 (Joules/Mol)
                                  134.10423 (Kcal/Mol)
 Warning -- explicit consideration of  18 degrees of freedom as
           vibrations may cause significant error
 Vibrational temperatures:     70.89   116.17   143.03   200.27   213.61
          (Kelvin)            267.86   299.21   310.06   331.49   392.71
                              418.78   501.70   554.21   667.62   696.62
                              777.42   809.20   872.50   904.23   991.76
                             1063.97  1114.52  1163.45  1241.23  1284.61
                             1358.98  1377.25  1436.54  1477.28  1540.30
                             1549.46  1550.60  1583.50  1599.87  1651.58
                             1726.67  1773.08  1849.33  1889.73  1977.18
                             1998.24  2055.34  2073.58  2078.11  2108.03
                             2170.97  2173.81  2177.47  2184.33  2187.95
                             2198.85  2205.48  2219.69  2333.96  2482.62
                             4353.76  4366.08  4373.37  4393.21  4432.52
                             4446.36  4450.47  4491.16  4501.63  4502.03
                             4504.61  4517.46  4548.28  4689.90

 Zero-point correction=                           0.213709 (Hartree/Particle)
 Thermal correction to Energy=                    0.226058
 Thermal correction to Enthalpy=                  0.227002
 Thermal correction to Gibbs Free Energy=         0.175246
 Sum of electronic and zero-point Energies=           -787.502524
 Sum of electronic and thermal Energies=              -787.490174
 Sum of electronic and thermal Enthalpies=            -787.489230
 Sum of electronic and thermal Free Energies=         -787.540986

                     E (Thermal)             CV                S
                      KCal/Mol        Cal/Mol-Kelvin    Cal/Mol-Kelvin
 Total                  141.854             45.546            108.930
 Electronic               0.000              0.000              0.000
 Translational            0.889              2.981             41.230
 Rotational               0.889              2.981             30.763
 Vibrational            140.076             39.585             36.937
 Vibration     1          0.595              1.978              4.847
 Vibration     2          0.600              1.962              3.873
 Vibration     3          0.604              1.950              3.466
 Vibration     4          0.615              1.914              2.815
 Vibration     5          0.618              1.904              2.692
 Vibration     6          0.632              1.859              2.266
 Vibration     7          0.641              1.828              2.061
 Vibration     8          0.645              1.817              1.997
 Vibration     9          0.652              1.795              1.876
 Vibration    10          0.676              1.723              1.577
 Vibration    11          0.687              1.690              1.468
 Vibration    12          0.726              1.578              1.172
 Vibration    13          0.754              1.502              1.019
 Vibration    14          0.822              1.330              0.754
 Vibration    15          0.840              1.285              0.699
 Vibration    16          0.895              1.161              0.565
 Vibration    17          0.918              1.113              0.519
 Vibration    18          0.965              1.018              0.439

 Optimization completed.
    -- Stationary point found.
 Normal termination of Gaussian 16 at Tue Dec  8 19:54:42 2020.

 ----------------------------------------------------------------------
 # B3LYP/6-311++G(d,p) empiricaldispersion=gd3bj scf=xqc pop=npa geom=c
 heck
 ----------------------------------------------------------------------

 ---------------------------------------
 CID_142166053_JID_1612_Energie_neutraal
 ---------------------------------------
 Structure from the checkpoint file:  "JID_1612.chk"
 Charge =  0 Multiplicity = 1

 SCF Done:  E(RB3LYP) =  -787.846498333     A.U. after   15 cycles
 Normal termination of Gaussian 16 at Tue Dec  8 19:56:44 2020.

 ----------------------------------------------------------------------
 # B3LYP/6-311++G(d,p) empiricaldispersion=gd3bj scf=xqc pop=npa geom=c
 heck
 ----------------------------------------------------------------------

 -------------------------------------
 CID_142166053_JID_1612_Energie_kation
 -------------------------------------
 Structure from the checkpoint file:  "JID_1612.chk"
 Charge =  1 Multiplicity = 2

 SCF Done:  E(UB3LYP) =  -787.548771554     A.U. after   33 cycles
 SCF Done:  E(UB3LYP) =  -787.560108065     a.u. after   15 cycles
 Normal termination of Gaussian 16 at Tue Dec  8 20:36:34 2020.
 Gaussian 16:  ES64L-G16RevA.03 25-Dec-2016

 ----------------------------------------------------------------------
 # B3LYP/6-311++G(d,p) empiricaldispersion=gd3bj scf=xqc pop=npa geom=c
 heck
 ----------------------------------------------------------------------

 ------------------------------------
 CID_142166053_JID_1612_Energie_anion
 ------------------------------------
 Structure from the checkpoint file:  "JID_1612.chk"
 Charge = -1 Multiplicity = 2

                         Standard orientation:
 ---------------------------------------------------------------------
 Center     Atomic      Atomic             Coordinates (Angstroms)
 Number     Number       Type             X           Y           Z
 ---------------------------------------------------------------------
      1          6           0        3.078619    0.481955   -0.824898
      2          6           0        2.012941   -0.364159   -0.114221
      3          6           0        0.676718    0.310406    0.012108
      4          6           0       -0.571055   -0.194674   -0.285760
      5          6           0       -1.629298    0.778011   -0.112970
      6          6           0       -1.159552    1.978706    0.332375
      7         16           0        0.566322    1.978301    0.532333
      8          6           0       -3.076120    0.473154   -0.378910
      9          6           0       -0.842003   -1.561177   -0.764196
     10          6           0       -0.471975   -2.706584   -0.170947
     11          6           0        0.249400   -2.842726    1.137440
     12          1           0        2.742307    0.771310   -1.825908
     13          1           0        4.012575   -0.081904   -0.923593
     14          1           0        3.300559    1.399696   -0.269365
     15          1           0        1.855108   -1.297117   -0.665099
     16          1           0        2.385921   -0.654602    0.878372
     17          1           0       -1.731242    2.868493    0.560252
     18          1           0       -3.248403    0.233551   -1.436369
     19          1           0       -3.411340   -0.394294    0.202212
     20          1           0       -3.713494    1.324336   -0.122046
     21          1           0       -1.433335   -1.631670   -1.677917
     22          1           0       -0.744148   -3.639626   -0.664185
     23          1           0       -0.254289   -3.578127    1.777399
     24          1           0        1.278832   -3.200342    0.997317
     25          1           0        0.293749   -1.889988    1.671473
 ---------------------------------------------------------------------

 SCF Done:  E(UB3LYP) =  -787.830690867     A.U. after   33 cycles
 SCF Done:  E(UB3LYP) =  -787.830690867     a.u. after    1 cycles

 The electronic state is 2-A.
 Alpha  occ. eigenvalues --  -88.76270 -10.09311 -10.08450 -10.07677 -10.07315
 Alpha  occ. eigenvalues --  -10.07028 -10.06830 -10.06688 -10.06530 -10.06158
 Alpha  occ. eigenvalues --  -10.05776  -7.84916  -5.81203  -5.80843  -5.80509
 Alpha  occ. eigenvalues --   -0.77768  -0.69442  -0.68625  -0.64941  -0.62211
 Alpha  occ. eigenvalues --   -0.57622  -0.56396  -0.52495  -0.46671  -0.44032
 Alpha  occ. eigenvalues --   -0.39931  -0.36977  -0.36679  -0.34861  -0.32452
 Alpha  occ. eigenvalues --   -0.31890  -0.31296  -0.30733  -0.29207  -0.28491
 Alpha  occ. eigenvalues --   -0.27541  -0.26828  -0.25218  -0.24589  -0.24500
 Alpha  occ. eigenvalues --   -0.24006  -0.22097  -0.16738  -0.12874  -0.11731
 Alpha  occ. eigenvalues --    0.04619
 Alpha virt. eigenvalues --    0.06538   0.07230   0.08117   0.08237   0.09000
 Alpha virt. eigenvalues --    0.09623   0.09755   0.10599   0.10819   0.11418
 Alpha virt. eigenvalues --    0.11503   0.11946   0.13201   0.13389   0.13768

  Beta  occ. eigenvalues --  -88.76262 -10.09258 -10.08421 -10.07681 -10.07302
  Beta  occ. eigenvalues --  -10.07015 -10.06801 -10.06656 -10.06524 -10.06129
  Beta  occ. eigenvalues --  -10.05745  -7.84907  -5.81196  -5.80837  -5.80487
  Beta  occ. eigenvalues --   -0.77720  -0.69393  -0.68570  -0.64901  -0.62156
  Beta  occ. eigenvalues --   -0.57551  -0.56337  -0.52426  -0.46599  -0.43975
  Beta  occ. eigenvalues --   -0.39875  -0.36912  -0.36630  -0.34811  -0.32408
  Beta  occ. eigenvalues --   -0.31845  -0.31257  -0.30691  -0.29152  -0.28441
  Beta  occ. eigenvalues --   -0.27488  -0.26774  -0.25167  -0.24539  -0.24447
  Beta  occ. eigenvalues --   -0.23948  -0.22055  -0.16663  -0.12786  -0.11530
  Beta virt. eigenvalues --    0.06816   0.07361   0.07987   0.08577   0.08707
  Beta virt. eigenvalues --    0.09499   0.10074   0.10161   0.10909   0.11139
  Beta virt. eigenvalues --    0.11746   0.11873   0.12320   0.13504   0.13729

 Mulliken charges and spin densities:
               1          2
     1  C    0.650446  -1.412859
     2  C   -1.102960   1.353989
     3  C   -0.287491   0.796302
     4  C   -0.100509   1.038715
     5  C   -0.746907   0.744016
     6  C   -0.009164   0.256801
     7  S    0.000032  -0.825617
     8  C    2.180225  -2.978137
     9  C   -1.110623   0.205795
    10  C    1.038579  -1.194820
    11  C    1.227311  -2.048065
    12  H    0.005616   0.138983
    13  H   -0.574644   0.720281
    14  H    0.041886   0.093783
    15  H    0.213781  -0.037963
    16  H   -0.194271   0.378302
    17  H   -0.309832   0.539779
    18  H   -0.152550   0.309165
    19  H   -0.007758   0.167721
    20  H   -0.254546   0.390158
    21  H   -0.208571   0.418019
    22  H   -0.659681   0.824954
    23  H   -0.452940   0.614674
    24  H   -0.201901   0.361467
    25  H    0.016468   0.144556
 Sum of Mulliken charges =  -1.00000   1.00000

 Dipole moment (field-independent basis, Debye):
    X=             -0.3014    Y=              4.6820    Z=              0.5549  Tot=              4.7244
 Quadrupole moment (field-independent basis, Debye-Ang):
   XX=           -135.2884   YY=           -130.3866   ZZ=           -106.2865
   XY=              3.5349   XZ=             -2.4185   YZ=              1.7622

 Summary of Natural Population Analysis:

                                       Natural Population
                Natural  -----------------------------------------------
    Atom  No    Charge         Core      Valence    Rydberg      Total
 -----------------------------------------------------------------------
      C    1   -0.28197      0.99966     2.27619    0.00612     3.28197
      C    2   -0.21087      0.99958     2.20098    0.01032     3.21087
      C    3   -0.06929      0.99944     2.05784    0.01201     3.06929
      C    4   -0.06423      0.99938     2.05244    0.01241     3.06423
      C    5   -0.03230      0.99945     2.02090    0.01194     3.03230
      C    6   -0.19241      0.99944     2.18259    0.01038     3.19241
      S    7    0.19219      4.99941     2.78793    0.02047     7.80781
      C    8   -0.29141      0.99963     2.28649    0.00530     3.29141
      C    9   -0.10867      0.99950     2.09709    0.01208     3.10867
      C   10   -0.07201      0.99954     2.06261    0.00986     3.07201
      C   11   -0.30932      0.99965     2.30271    0.00696     3.30932
      H   12    0.09824      0.00000     0.40072    0.00104     0.40176
      H   13    0.10047      0.00000     0.39818    0.00135     0.39953
      H   14    0.09548      0.00000     0.40349    0.00103     0.40452
      H   15    0.11157      0.00000     0.38669    0.00174     0.38843
      H   16    0.10442      0.00000     0.39364    0.00194     0.39558
      H   17    0.10630      0.00000     0.39271    0.00099     0.39370
      H   18    0.10468      0.00000     0.39386    0.00146     0.39532
      H   19    0.10683      0.00000     0.39197    0.00120     0.39317
      H   20    0.10207      0.00000     0.39690    0.00103     0.39793
      H   21    0.10205      0.00000     0.39639    0.00155     0.39795
      H   22    0.09382      0.00000     0.40441    0.00178     0.40618
      H   23    0.10390      0.00000     0.39485    0.00126     0.39610
      H   24    0.10557      0.00000     0.39297    0.00145     0.39443
      H   25    0.10489      0.00000     0.39357    0.00155     0.39511
 =======================================================================
   * Total *    0.00000     14.99468    29.86811    0.13721    45.00000

 Normal termination of Gaussian 16 at Tue Dec  8 20:46:41 2020.
