 Gaussian 16, Revision A.03,

 -----------------------------------------------------------
 # opt freq B3LYP/6-31G(d) empiricaldispersion=gd3bj scf=xqc
 -----------------------------------------------------------

 ----------------------------
 CID_220975_JID_1018_neutraal
 ----------------------------
 Symbolic Z-matrix:
 Charge =  0 Multiplicity = 1

 SCF Done:  E(RB3LYP) =  -505.482771700     A.U. after   12 cycles
 SCF Done:  E(RB3LYP) =  -505.484782458     A.U. after   11 cycles
 SCF Done:  E(RB3LYP) =  -505.485287484     A.U. after   10 cycles
 SCF Done:  E(RB3LYP) =  -505.484644030     A.U. after   11 cycles
 SCF Done:  E(RB3LYP) =  -505.485811485     A.U. after   10 cycles
 SCF Done:  E(RB3LYP) =  -505.485919943     A.U. after   10 cycles
 SCF Done:  E(RB3LYP) =  -505.485960040     A.U. after   10 cycles
 SCF Done:  E(RB3LYP) =  -505.485976288     A.U. after    9 cycles
 SCF Done:  E(RB3LYP) =  -505.485981104     A.U. after    8 cycles
 SCF Done:  E(RB3LYP) =  -505.485981801     A.U. after    7 cycles
 SCF Done:  E(RB3LYP) =  -505.485982013     A.U. after    7 cycles
 SCF Done:  E(RB3LYP) =  -505.485982000     A.U. after    7 cycles
 Optimization completed.
    -- Stationary point found.

 1\1\GINC-NODE315\FOpt\RB3LYP\6-31G(d)\C9H20O2\VSC10255\08-Dec-2020\0\\
 # opt freq B3LYP/6-31G(d) empiricaldispersion=gd3bj scf=xqc\\CID_22097
 5_JID_1018_neutraal\\0,1\C,1.0480798856,0.0098049743,0.0306466323\C,0.
 9182898202,-0.6433886707,-1.348465224\C,1.332591674,-2.1223089661,-1.3
 784758512\C,0.5359145915,-3.0434020383,-0.4388364562\C,-0.987274348,-3
 .0143787155,-0.6412556233\C,-1.4565911484,-3.3499732555,-2.0576171558\
 C,-1.0356784466,-4.738494952,-2.5811231694\C,-1.3193100815,-5.88753863
 94,-1.6061119769\C,-1.7383347989,-5.0275492772,-3.9260535428\O,-1.8238

 Normal termination of Gaussian 16 at Tue Dec  8 19:12:28 2020.

 --------------------------------------------------------------------
 #N Geom=AllCheck Guess=TCheck SCRF=Check GenChk RB3LYP/6-31G(d) Freq
 --------------------------------------------------------------------

 Structure from the checkpoint file:  "JID_1018.chk"
 ----------------------------
 CID_220975_JID_1018_neutraal
 ----------------------------
 Charge =  0 Multiplicity = 1

 SCF Done:  E(RB3LYP) =  -505.485982000     A.U. after    1 cycles

  Exact polarizability: 115.001   3.331  96.043   0.571   0.070  92.808
 Approx polarizability: 136.201   2.328 138.454  -1.650   0.030 138.819

                      1                      2                      3
                      A                      A                      A
 Frequencies --     45.2550                59.8286                71.1343
 Red. masses --      4.0076                 3.1570                 3.3899
 Frc consts  --      0.0048                 0.0067                 0.0101
 IR Inten    --      0.7209                 0.1142                 1.8719

                      4                      5                      6
                      A                      A                      A
 Frequencies --    108.6343               126.6177               147.5390
 Red. masses --      2.7165                 2.4308                 3.3769
 Frc consts  --      0.0189                 0.0230                 0.0433
 IR Inten    --      0.6653                 2.1627                 0.7884

                      7                      8                      9
                      A                      A                      A
 Frequencies --    189.1501               227.2564               236.1084
 Red. masses --      1.7997                 2.1664                 1.2644
 Frc consts  --      0.0379                 0.0659                 0.0415
 IR Inten    --      0.5522                 1.1504                 0.1087

                     10                     11                     12
                      A                      A                      A
 Frequencies --    274.2554               278.2804               301.1495
 Red. masses --      2.0320                 1.8832                 1.4143
 Frc consts  --      0.0901                 0.0859                 0.0756
 IR Inten    --      0.6782                 1.3495                20.4954

                     13                     14                     15
                      A                      A                      A
 Frequencies --    329.3296               350.6659               379.1136
 Red. masses --      1.4860                 2.4740                 2.1162
 Frc consts  --      0.0950                 0.1792                 0.1792
 IR Inten    --     30.5082                13.8711                21.3163

                     16                     17                     18
                      A                      A                      A
 Frequencies --    432.4888               443.9879               528.2182
 Red. masses --      3.4107                 2.2090                 2.8361
 Frc consts  --      0.3759                 0.2566                 0.4662
 IR Inten    --     14.2003                 0.7471                 3.8994

                     19                     20                     21
                      A                      A                      A
 Frequencies --    548.7635               606.3394               621.3855
 Red. masses --      2.1914                 1.6489                 1.5216
 Frc consts  --      0.3888                 0.3572                 0.3462
 IR Inten    --     19.8254                88.8623                91.7567

                     22                     23                     24
                      A                      A                      A
 Frequencies --    708.8483               757.8709               793.4828
 Red. masses --      1.7369                 1.4664                 2.1844
 Frc consts  --      0.5142                 0.4962                 0.8103
 IR Inten    --      7.8246                 5.9803                 2.1960

                     25                     26                     27
                      A                      A                      A
 Frequencies --    859.5776               902.7742               914.6403
 Red. masses --      1.5824                 1.9971                 1.4862
 Frc consts  --      0.6888                 0.9590                 0.7325
 IR Inten    --      1.5418                 1.2731                15.9283

                     28                     29                     30
                      A                      A                      A
 Frequencies --    937.5245               949.9206               995.5941
 Red. masses --      1.4211                 1.6595                 1.8599
 Frc consts  --      0.7359                 0.8823                 1.0862
 IR Inten    --      8.5205                 9.7460                24.5928

                     31                     32                     33
                      A                      A                      A
 Frequencies --    998.6116              1028.8555              1064.0432
 Red. masses --      2.4467                 1.6506                 1.7032
 Frc consts  --      1.4375                 1.0295                 1.1362
 IR Inten    --     24.4832                 2.8763                 7.1966

                     34                     35                     36
                      A                      A                      A
 Frequencies --   1068.2932              1089.7266              1109.5739
 Red. masses --      2.1897                 2.3512                 2.3976
 Frc consts  --      1.4724                 1.6450                 1.7391
 IR Inten    --      1.8909               130.8877                18.9375

                     37                     38                     39
                      A                      A                      A
 Frequencies --   1120.6919              1136.8945              1152.0880
 Red. masses --      2.2540                 1.5608                 1.8552
 Frc consts  --      1.6679                 1.1886                 1.4508
 IR Inten    --      9.9077                11.6773                 2.3195

                     40                     41                     42
                      A                      A                      A
 Frequencies --   1177.5713              1215.1349              1235.5860
 Red. masses --      1.9173                 1.4572                 1.3435
 Frc consts  --      1.5664                 1.2677                 1.2084
 IR Inten    --      5.4483                 4.6209                13.7621

                     43                     44                     45
                      A                      A                      A
 Frequencies --   1254.4229              1285.0507              1309.6848
 Red. masses --      1.3515                 1.3998                 1.2645
 Frc consts  --      1.2531                 1.3620                 1.2779
 IR Inten    --     12.4289                13.9467                 4.0770

                     46                     47                     48
                      A                      A                      A
 Frequencies --   1336.3136              1345.7684              1374.7449
 Red. masses --      1.2379                 1.1820                 1.3094
 Frc consts  --      1.3024                 1.2613                 1.4580
 IR Inten    --      0.9072                 0.2223                 4.6912

                     49                     50                     51
                      A                      A                      A
 Frequencies --   1380.2569              1389.1649              1399.7941
 Red. masses --      1.4097                 1.4420                 1.4248
 Frc consts  --      1.5824                 1.6395                 1.6449
 IR Inten    --      4.1811                 4.3310                 5.3500

                     52                     53                     54
                      A                      A                      A
 Frequencies --   1416.6786              1422.2920              1427.1940
 Red. masses --      1.4328                 1.4121                 1.2631
 Frc consts  --      1.6943                 1.6830                 1.5159
 IR Inten    --      0.5228                 6.2296                 3.8133

                     55                     56                     57
                      A                      A                      A
 Frequencies --   1439.8339              1444.1812              1447.8036
 Red. masses --      1.2659                 1.2748                 1.2336
 Frc consts  --      1.5462                 1.5666                 1.5235
 IR Inten    --     14.0349                 3.4521                57.7210

                     58                     59                     60
                      A                      A                      A
 Frequencies --   1464.6083              1511.8455              1520.5009
 Red. masses --      1.1973                 1.0707                 1.0714
 Frc consts  --      1.5132                 1.4419                 1.4594
 IR Inten    --     26.5322                 0.6279                 2.5015

                     61                     62                     63
                      A                      A                      A
 Frequencies --   1525.7158              1527.8884              1530.0071
 Red. masses --      1.0595                 1.0694                 1.0785
 Frc consts  --      1.4531                 1.4709                 1.4875
 IR Inten    --      4.4487                 0.5715                 8.6325

                     64                     65                     66
                      A                      A                      A
 Frequencies --   1533.2258              1535.9755              1540.2876
 Red. masses --      1.0671                 1.0625                 1.0537
 Frc consts  --      1.4780                 1.4768                 1.4729
 IR Inten    --      8.2437                 5.3838                 5.9096

                     67                     68                     69
                      A                      A                      A
 Frequencies --   1545.9561              3000.2170              3029.8515
 Red. masses --      1.0797                 1.0701                 1.0622
 Frc consts  --      1.5203                 5.6752                 5.7451
 IR Inten    --      1.1337                48.9676                25.1088

                     70                     71                     72
                      A                      A                      A
 Frequencies --   3030.5381              3035.8196              3038.5595
 Red. masses --      1.0631                 1.0573                 1.0617
 Frc consts  --      5.7527                 5.7412                 5.7754
 IR Inten    --      3.9084                12.6066                38.1763

                     73                     74                     75
                      A                      A                      A
 Frequencies --   3043.8239              3044.5212              3049.8857
 Red. masses --      1.0687                 1.0423                 1.0606
 Frc consts  --      5.8338                 5.6922                 5.8128
 IR Inten    --     53.5825                15.2805                17.0888

                     76                     77                     78
                      A                      A                      A
 Frequencies --   3061.8612              3069.0300              3077.9048
 Red. masses --      1.0988                 1.1003                 1.0975
 Frc consts  --      6.0694                 6.1059                 6.1257
 IR Inten    --     15.7724                26.0721                48.3096

                     79                     80                     81
                      A                      A                      A
 Frequencies --   3087.3937              3092.6294              3099.6861
 Red. masses --      1.0980                 1.0951                 1.0956
 Frc consts  --      6.1664                 6.1711                 6.2018
 IR Inten    --     79.4345                 7.3401                75.7234

                     82                     83                     84
                      A                      A                      A
 Frequencies --   3108.6556              3110.2317              3116.5066
 Red. masses --      1.0911                 1.0980                 1.1019
 Frc consts  --      6.2123                 6.2579                 6.3056
 IR Inten    --     56.5242                36.6164                44.8245

                     85                     86                     87
                      A                      A                      A
 Frequencies --   3127.3157              3711.0317              3732.3322
 Red. masses --      1.1002                 1.0654                 1.0657
 Frc consts  --      6.3398                 8.6451                 8.7470
 IR Inten    --     30.1019                35.3411                 9.0392

 - Thermochemistry -
 -------------------
 Temperature   298.150 Kelvin.  Pressure   1.00000 Atm.
 Atom     1 has atomic number  6 and mass  12.00000

 Molecular mass:   160.14633 amu.
 Principal axes and moments of inertia in atomic units:
                           1         2         3
     Eigenvalues --  1077.345423379.505603610.53800
           X            0.99979   0.02017   0.00210
           Y           -0.02018   0.99977   0.00696
           Z           -0.00196  -0.00701   0.99997
 This molecule is an asymmetric top.
 Rotational symmetry number  1.
 Warning -- assumption of classical behavior for rotation
           may cause significant error
 Rotational temperatures (Kelvin)      0.08040     0.02563     0.02399
 Rotational constants (GHZ):           1.67517     0.53403     0.49985
 Zero-point vibrational energy     754244.3 (Joules/Mol)
                                  180.26871 (Kcal/Mol)
 Warning -- explicit consideration of  20 degrees of freedom as
           vibrations may cause significant error
 Vibrational temperatures:     65.11    86.08   102.35   156.30   182.17
          (Kelvin)            212.28   272.14   326.97   339.71   394.59
                              400.38   433.29   473.83   504.53   545.46
                              622.25   638.80   759.99   789.55   872.39
                              894.04  1019.87  1090.41  1141.64  1236.74
                             1298.89  1315.96  1348.89  1366.72  1432.44
                             1436.78  1480.29  1530.92  1537.04  1567.87
                             1596.43  1612.43  1635.74  1657.60  1694.26
                             1748.31  1777.73  1804.83  1848.90  1884.34
                             1922.66  1936.26  1977.95  1985.88  1998.70
                             2013.99  2038.28  2046.36  2053.41  2071.60
                             2077.85  2083.07  2107.24  2175.21  2187.66
                             2195.16  2198.29  2201.34  2205.97  2209.93
                             2216.13  2224.29  4316.64  4359.28  4360.27
                             4367.87  4371.81  4379.38  4380.39  4388.11
                             4405.34  4415.65  4428.42  4442.07  4449.60
                             4459.76  4472.66  4474.93  4483.96  4499.51
                             5339.35  5369.99

 Zero-point correction=                           0.287276 (Hartree/Particle)
 Thermal correction to Energy=                    0.300895
 Thermal correction to Enthalpy=                  0.301839
 Thermal correction to Gibbs Free Energy=         0.247228
 Sum of electronic and zero-point Energies=           -505.198706
 Sum of electronic and thermal Energies=              -505.185087
 Sum of electronic and thermal Enthalpies=            -505.184143
 Sum of electronic and thermal Free Energies=         -505.238754

                     E (Thermal)             CV                S
                      KCal/Mol        Cal/Mol-Kelvin    Cal/Mol-Kelvin
 Total                  188.815             50.706            114.940
 Electronic               0.000              0.000              0.000
 Translational            0.889              2.981             41.122
 Rotational               0.889              2.981             30.953
 Vibrational            187.037             44.744             42.865
 Vibration     1          0.595              1.979              5.015
 Vibration     2          0.597              1.973              4.463
 Vibration     3          0.598              1.968              4.122
 Vibration     4          0.606              1.942              3.293
 Vibration     5          0.611              1.927              2.997
 Vibration     6          0.617              1.905              2.704
 Vibration     7          0.633              1.855              2.236
 Vibration     8          0.651              1.799              1.901
 Vibration     9          0.655              1.785              1.832
 Vibration    10          0.677              1.721              1.569
 Vibration    11          0.679              1.714              1.544
 Vibration    12          0.693              1.672              1.411
 Vibration    13          0.712              1.617              1.263
 Vibration    14          0.728              1.574              1.163
 Vibration    15          0.749              1.515              1.043
 Vibration    16          0.793              1.399              0.851
 Vibration    17          0.803              1.374              0.814
 Vibration    18          0.883              1.188              0.591
 Vibration    19          0.904              1.142              0.547
 Vibration    20          0.965              1.018              0.439

 Optimization completed.
    -- Stationary point found.

 1\1\GINC-NODE315\Freq\RB3LYP\6-31G(d)\C9H20O2\VSC10255\08-Dec-2020\0\\
 #N Geom=AllCheck Guess=TCheck SCRF=Check GenChk RB3LYP/6-31G(d) Freq\\
 CID_220975_JID_1018_neutraal\\0,1\C,1.0480798856,0.0098049743,0.030646
 6323\C,0.9182898202,-0.6433886707,-1.348465224\C,1.332591674,-2.122308
 9661,-1.3784758512\C,0.5359145915,-3.0434020383,-0.4388364562\C,-0.987
 274348,-3.0143787155,-0.6412556233\C,-1.4565911484,-3.3499732555,-2.05
 76171558\C,-1.0356784466,-4.738494952,-2.5811231694\C,-1.3193100815,-5
 .8875386394,-1.6061119769\C,-1.7383347989,-5.0275492772,-3.9260535428\

 Normal termination of Gaussian 16 at Tue Dec  8 19:19:10 2020.

 ----------------------------------------------------------------------
 # B3LYP/6-311++G(d,p) empiricaldispersion=gd3bj scf=xqc pop=npa geom=c
 heck
 ----------------------------------------------------------------------

 ------------------------------------
 CID_220975_JID_1018_Energie_neutraal
 ------------------------------------
 Structure from the checkpoint file:  "JID_1018.chk"
 Charge =  0 Multiplicity = 1

 SCF Done:  E(RB3LYP) =  -505.651686724     A.U. after   14 cycles
 Normal termination of Gaussian 16 at Tue Dec  8 19:21:58 2020.

 ----------------------------------------------------------------------
 # B3LYP/6-311++G(d,p) empiricaldispersion=gd3bj scf=xqc pop=npa geom=c
 heck
 ----------------------------------------------------------------------

 ----------------------------------
 CID_220975_JID_1018_Energie_kation
 ----------------------------------
 Structure from the checkpoint file:  "JID_1018.chk"
 Charge =  1 Multiplicity = 2

 SCF Done:  E(UB3LYP) =  -505.305571367     A.U. after   27 cycles
 Normal termination of Gaussian 16 at Tue Dec  8 19:29:02 2020.
 Gaussian 16:  ES64L-G16RevA.03 25-Dec-2016

 ---------------------------------
 CID_220975_JID_1018_Energie_anion
 ---------------------------------
 Structure from the checkpoint file:  "JID_1018.chk"
 Charge = -1 Multiplicity = 2

                         Standard orientation:
 ---------------------------------------------------------------------
 Center     Atomic      Atomic             Coordinates (Angstroms)
 Number     Number       Type             X           Y           Z
 ---------------------------------------------------------------------
      1          6           0        4.061244    0.330681    0.384870
      2          6           0        2.857875    0.978913   -0.305895
      3          6           0        2.023306    0.002701   -1.148662
      4          6           0        1.429337   -1.186331   -0.374432
      5          6           0        0.561074   -0.803537    0.834496
      6          6           0       -0.614356    0.122152    0.517592
      7          6           0       -1.625357   -0.423059   -0.511893
      8          6           0       -2.095626   -1.855053   -0.229695
      9          6           0       -2.853898    0.510363   -0.586237
     10          8           0       -2.531666    1.889045   -0.513208
     11          8           0       -1.275725    0.529781    1.731277
     12          1           0        3.751309   -0.418827    1.121708
     13          1           0        4.664721    1.078526    0.910926
     14          1           0        4.710344   -0.170717   -0.343845
     15          1           0        2.219916    1.459483    0.447421
     16          1           0        3.209201    1.787121   -0.960213
     17          1           0        1.216008    0.560647   -1.640999
     18          1           0        2.651520   -0.394331   -1.957998
     19          1           0        0.842051   -1.797047   -1.071869
     20          1           0        2.241126   -1.834454   -0.021887
     21          1           0        0.182356   -1.720836    1.307094
     22          1           0        1.172995   -0.301818    1.593225
     23          1           0       -0.228128    1.062880    0.117593
     24          1           0       -1.120088   -0.405831   -1.486804
     25          1           0       -2.511964   -1.948042    0.782712
     26          1           0       -2.890169   -2.144310   -0.927243
     27          1           0       -1.287498   -2.585879   -0.327458
     28          1           0       -3.371758    0.359923   -1.539420
     29          1           0       -3.559462    0.234697    0.213194
     30          1           0       -2.255590    2.033651    0.407893
     31          1           0       -1.639352   -0.266422    2.150553
 ---------------------------------------------------------------------

 SCF Done:  E(UB3LYP) =  -505.638626772     A.U. after   27 cycles

 The electronic state is 2-A.
 Alpha  occ. eigenvalues --  -19.02333 -19.01773 -10.11606 -10.11040 -10.07140
 Alpha  occ. eigenvalues --  -10.06827 -10.06560 -10.06431 -10.06137 -10.06107
 Alpha  occ. eigenvalues --  -10.05689  -0.92937  -0.91440  -0.71592  -0.69177
 Alpha  occ. eigenvalues --   -0.65342  -0.60122  -0.57320  -0.55853  -0.51792
 Alpha  occ. eigenvalues --   -0.47242  -0.45196  -0.41513  -0.39523  -0.37991
 Alpha  occ. eigenvalues --   -0.36823  -0.34743  -0.34416  -0.32734  -0.31266
 Alpha  occ. eigenvalues --   -0.30752  -0.29759  -0.28927  -0.28230  -0.27760
 Alpha  occ. eigenvalues --   -0.25791  -0.25409  -0.24968  -0.23870  -0.22691
 Alpha  occ. eigenvalues --   -0.22293  -0.21609  -0.20742  -0.17949  -0.16880
 Alpha  occ. eigenvalues --    0.04463
 Alpha virt. eigenvalues --    0.06312   0.07466   0.07793   0.08750   0.09270
 Alpha virt. eigenvalues --    0.09428   0.10557   0.10815   0.11473   0.11803
 Alpha virt. eigenvalues --    0.12098   0.12555   0.13057   0.13987   0.14739

  Beta  occ. eigenvalues --  -19.02292 -19.01768 -10.11603 -10.11025 -10.07134
  Beta  occ. eigenvalues --  -10.06817 -10.06550 -10.06413 -10.06113 -10.06076
  Beta  occ. eigenvalues --  -10.05629  -0.92887  -0.91394  -0.71557  -0.69142
  Beta  occ. eigenvalues --   -0.65303  -0.60071  -0.57238  -0.55803  -0.51728
  Beta  occ. eigenvalues --   -0.47174  -0.45134  -0.41483  -0.39489  -0.37940
  Beta  occ. eigenvalues --   -0.36787  -0.34706  -0.34376  -0.32691  -0.31227
  Beta  occ. eigenvalues --   -0.30709  -0.29729  -0.28880  -0.28191  -0.27712
  Beta  occ. eigenvalues --   -0.25757  -0.25368  -0.24921  -0.23834  -0.22666
  Beta  occ. eigenvalues --   -0.22266  -0.21572  -0.20706  -0.17921  -0.16858
  Beta virt. eigenvalues --    0.06668   0.07444   0.08177   0.08221   0.09317
  Beta virt. eigenvalues --    0.09656   0.09920   0.10928   0.11212   0.11874
  Beta virt. eigenvalues --    0.12027   0.12420   0.13110   0.13450   0.14398

 Mulliken charges and spin densities:
               1          2
     1  C    0.954720  -1.583215
     2  C   -0.840429   0.629424
     3  C    0.212569  -0.425874
     4  C    0.119701  -0.370435
     5  C   -0.240494  -0.010149
     6  C    1.078959  -1.631679
     7  C   -2.218350   2.599624
     8  C    2.297281  -2.939665
     9  C    0.161433  -0.724216
    10  O   -0.266243   0.018972
    11  O   -0.253205   0.031595
    12  H   -0.157347   0.297872
    13  H   -0.150919   0.284191
    14  H   -0.221909   0.358334
    15  H    0.136912  -0.000253
    16  H   -0.090872   0.235560
    17  H    0.029752   0.108982
    18  H   -0.205809   0.364285
    19  H   -0.253316   0.415837
    20  H   -0.067292   0.242365
    21  H   -0.161632   0.332151
    22  H   -0.083164   0.282725
    23  H    0.179297   0.035076
    24  H    0.069688   0.093885
    25  H   -0.545848   0.710965
    26  H   -0.377351   0.522258
    27  H   -0.211835   0.354005
    28  H    0.063969   0.101618
    29  H   -0.066078   0.230669
    30  H    0.213334   0.062647
    31  H   -0.105522   0.372447
 Sum of Mulliken charges =  -1.00000   1.00000

 Dipole moment (field-independent basis, Debye):
    X=              0.2530    Y=              3.2797    Z=             -1.2191  Tot=              3.5081
 Quadrupole moment (field-independent basis, Debye-Ang):
   XX=           -143.5574   YY=           -115.3328   ZZ=           -108.9774
   XY=             -4.6666   XZ=              3.3241   YZ=              2.5646

 Summary of Natural Population Analysis:

                                       Natural Population
                Natural  -----------------------------------------------
    Atom  No    Charge         Core      Valence    Rydberg      Total
 -----------------------------------------------------------------------
      C    1   -0.28769      0.99967     2.28312    0.00490     3.28769
      C    2   -0.19280      0.99964     2.18477    0.00839     3.19280
      C    3   -0.19046      0.99963     2.18245    0.00838     3.19046
      C    4   -0.19173      0.99962     2.18351    0.00859     3.19173
      C    5   -0.20439      0.99961     2.19406    0.01072     3.20439
      C    6    0.06131      0.99951     1.92376    0.01542     2.93869
      C    7   -0.13592      0.99958     2.12606    0.01028     3.13592
      C    8   -0.29233      0.99965     2.28531    0.00737     3.29233
      C    9   -0.00537      0.99957     1.99171    0.01409     3.00537
      O   10   -0.37586      0.99990     3.36952    0.00644     4.37586
      O   11   -0.38442      0.99990     3.37794    0.00658     4.38442
      H   12    0.09750      0.00000     0.40143    0.00107     0.40250
      H   13    0.09777      0.00000     0.40134    0.00089     0.40223
      H   14    0.09619      0.00000     0.40260    0.00121     0.40381
      H   15    0.09388      0.00000     0.40479    0.00133     0.40612
      H   16    0.09461      0.00000     0.40446    0.00093     0.40539
      H   17    0.09495      0.00000     0.40367    0.00138     0.40505
      H   18    0.09637      0.00000     0.40255    0.00107     0.40363
      H   19    0.09869      0.00000     0.39993    0.00138     0.40131
      H   20    0.09861      0.00000     0.40020    0.00119     0.40139
      H   21    0.10219      0.00000     0.39623    0.00158     0.39781
      H   22    0.10157      0.00000     0.39716    0.00127     0.39843
      H   23    0.09088      0.00000     0.40716    0.00197     0.40912
      H   24    0.09883      0.00000     0.39934    0.00183     0.40117
      H   25    0.09876      0.00000     0.39815    0.00308     0.40124
      H   26    0.10232      0.00000     0.39627    0.00141     0.39768
      H   27    0.10423      0.00000     0.39432    0.00145     0.39577
      H   28    0.08467      0.00000     0.41428    0.00105     0.41533
      H   29    0.07814      0.00000     0.42056    0.00130     0.42186
      H   30    0.23551      0.00000     0.26150    0.00299     0.26449
      H   31    0.23397      0.00000     0.26114    0.00489     0.26603
 =======================================================================
   * Total *    0.00000     10.99627    33.86928    0.13446    45.00000

 Normal termination of Gaussian 16 at Tue Dec  8 19:36:01 2020.
