 Gaussian 16, Revision A.03,

 -----------------------------------------------------------
 # opt freq B3LYP/6-31G(d) empiricaldispersion=gd3bj scf=xqc
 -----------------------------------------------------------

 ------------------------------
 CID_15568694_JID_2571_neutraal
 ------------------------------
 Symbolic Z-matrix:
 Charge =  0 Multiplicity = 1

 SCF Done:  E(RB3LYP) =  -538.795976606     A.U. after   15 cycles
 SCF Done:  E(RB3LYP) =  -538.798452973     A.U. after   13 cycles
 SCF Done:  E(RB3LYP) =  -538.800728646     A.U. after   13 cycles
 SCF Done:  E(RB3LYP) =  -538.801423073     A.U. after   13 cycles
 SCF Done:  E(RB3LYP) =  -538.801818678     A.U. after   11 cycles
 SCF Done:  E(RB3LYP) =  -538.801634160     A.U. after   12 cycles
 SCF Done:  E(RB3LYP) =  -538.802003431     A.U. after   12 cycles
 SCF Done:  E(RB3LYP) =  -538.802090145     A.U. after   12 cycles
 SCF Done:  E(RB3LYP) =  -538.802159409     A.U. after   11 cycles
 SCF Done:  E(RB3LYP) =  -538.802168047     A.U. after   10 cycles
 SCF Done:  E(RB3LYP) =  -538.802168773     A.U. after    8 cycles
 SCF Done:  E(RB3LYP) =  -538.802168919     A.U. after    7 cycles
 SCF Done:  E(RB3LYP) =  -538.802169009     A.U. after    7 cycles
 SCF Done:  E(RB3LYP) =  -538.802169059     A.U. after    7 cycles
 Optimization completed.
    -- Stationary point found.
 Normal termination of Gaussian 16 at Wed Dec  9 17:36:14 2020.

 --------------------------------------------------------------------
 #N Geom=AllCheck Guess=TCheck SCRF=Check GenChk RB3LYP/6-31G(d) Freq
 --------------------------------------------------------------------

 Structure from the checkpoint file:  "JID_2571.chk"
 ------------------------------
 CID_15568694_JID_2571_neutraal
 ------------------------------
 Charge =  0 Multiplicity = 1

 SCF Done:  E(RB3LYP) =  -538.802169059     A.U. after    1 cycles

  Exact polarizability: 149.654  -3.237 122.349   5.971   2.572  58.323
 Approx polarizability: 211.627 -11.897 222.342  13.204   6.263  86.457

                      1                      2                      3
                      A                      A                      A
 Frequencies --     54.7774                81.0561               124.3968
 Red. masses --      3.5979                 2.7393                 2.9624
 Frc consts  --      0.0064                 0.0106                 0.0270
 IR Inten    --      0.5615                 0.0467                 0.0037

                      4                      5                      6
                      A                      A                      A
 Frequencies --    142.7124               187.2880               203.3630
 Red. masses --      1.3147                 3.7037                 1.2397
 Frc consts  --      0.0158                 0.0765                 0.0302
 IR Inten    --      0.2447                 1.4164                 0.5469

                      7                      8                      9
                      A                      A                      A
 Frequencies --    245.7507               246.0624               289.0565
 Red. masses --      2.7887                 2.5539                 4.2722
 Frc consts  --      0.0992                 0.0911                 0.2103
 IR Inten    --      1.9994                 0.8744                 1.2059

                     10                     11                     12
                      A                      A                      A
 Frequencies --    338.8978               393.0621               449.0235
 Red. masses --      2.8976                 4.9723                 6.3487
 Frc consts  --      0.1961                 0.4526                 0.7542
 IR Inten    --      0.9964                 3.6474                 4.5309

                     13                     14                     15
                      A                      A                      A
 Frequencies --    479.5539               497.6885               542.8834
 Red. masses --      4.0781                 4.2303                 4.0993
 Frc consts  --      0.5526                 0.6174                 0.7118
 IR Inten    --      1.0157                 1.6216                 2.4550

                     16                     17                     18
                      A                      A                      A
 Frequencies --    564.3451               620.3946               667.7033
 Red. masses --      3.5083                 4.7085                 4.9121
 Frc consts  --      0.6583                 1.0677                 1.2903
 IR Inten    --      0.2270                28.5090                 2.3600

                     19                     20                     21
                      A                      A                      A
 Frequencies --    717.4136               760.4495               793.9033
 Red. masses --      4.7652                 1.8062                 2.0435
 Frc consts  --      1.4450                 0.6154                 0.7589
 IR Inten    --      0.9288                28.0481                14.8046

                     22                     23                     24
                      A                      A                      A
 Frequencies --    822.4152               847.9784               854.2805
 Red. masses --      1.3032                 4.2482                 1.1244
 Frc consts  --      0.5193                 1.7998                 0.4835
 IR Inten    --      3.2050                 4.9294                89.6359

                     25                     26                     27
                      A                      A                      A
 Frequencies --    875.3858               926.5573               962.3948
 Red. masses --      3.7575                 1.3153                 1.2842
 Frc consts  --      1.6965                 0.6653                 0.7008
 IR Inten    --     18.6000                 0.3067                 0.2911

                     28                     29                     30
                      A                      A                      A
 Frequencies --    978.9497              1025.4876              1067.0104
 Red. masses --      2.1633                 1.8736                 1.8685
 Frc consts  --      1.2215                 1.1609                 1.2534
 IR Inten    --     12.4402                 6.0921                75.5336

                     31                     32                     33
                      A                      A                      A
 Frequencies --   1077.7255              1089.6919              1130.6415
 Red. masses --      1.4900                 1.6866                 1.8712
 Frc consts  --      1.0196                 1.1799                 1.4094
 IR Inten    --      2.3974                 1.0075                16.6370

                     34                     35                     36
                      A                      A                      A
 Frequencies --   1165.7823              1208.3674              1272.9393
 Red. masses --      2.3052                 1.2509                 1.6190
 Frc consts  --      1.8458                 1.0761                 1.5456
 IR Inten    --     14.3338                 6.1613                42.4946

                     37                     38                     39
                      A                      A                      A
 Frequencies --   1277.3398              1311.5667              1344.0933
 Red. masses --      1.9245                 2.4642                 1.7078
 Frc consts  --      1.8500                 2.4975                 1.8178
 IR Inten    --     18.2137               111.0732                32.0927

                     40                     41                     42
                      A                      A                      A
 Frequencies --   1361.6713              1389.2327              1436.8286
 Red. masses --      2.3100                 4.3038                 1.2435
 Frc consts  --      2.5235                 4.8938                 1.5126
 IR Inten    --     35.4643                64.0596                 4.4932

                     43                     44                     45
                      A                      A                      A
 Frequencies --   1444.7336              1447.6401              1490.5142
 Red. masses --      1.5025                 1.6019                 2.3694
 Frc consts  --      1.8478                 1.9779                 3.1014
 IR Inten    --     24.1117                46.8699               178.3417

                     46                     47                     48
                      A                      A                      A
 Frequencies --   1505.7515              1515.1864              1521.9518
 Red. masses --      1.0439                 1.2469                 1.2209
 Frc consts  --      1.3945                 1.6866                 1.6663
 IR Inten    --      5.7517                10.2262                 3.9193

                     49                     50                     51
                      A                      A                      A
 Frequencies --   1528.0807              1538.0793              1542.3564
 Red. masses --      1.0480                 1.2155                 1.4373
 Frc consts  --      1.4418                 1.6943                 2.0145
 IR Inten    --      4.3626                24.8293                38.0413

                     52                     53                     54
                      A                      A                      A
 Frequencies --   1656.5743              1669.6982              1705.9780
 Red. masses --      4.0241                 5.0166                 6.5060
 Frc consts  --      6.5064                 8.2402                11.1560
 IR Inten    --     19.3214                76.1268               205.5420

                     55                     56                     57
                      A                      A                      A
 Frequencies --   3052.6972              3060.8454              3076.5631
 Red. masses --      1.0359                 1.0344                 1.0614
 Frc consts  --      5.6875                 5.7098                 5.9191
 IR Inten    --     27.0459                22.8866                13.2795

                     58                     59                     60
                      A                      A                      A
 Frequencies --   3106.3926              3120.4544              3133.1239
 Red. masses --      1.1003                 1.1026                 1.1029
 Frc consts  --      6.2559                 6.3258                 6.3790
 IR Inten    --     14.2029                 0.0803                27.7408

                     61                     62                     63
                      A                      A                      A
 Frequencies --   3134.1487              3141.4390              3182.7562
 Red. masses --      1.1032                 1.1040                 1.0883
 Frc consts  --      6.3847                 6.4191                 6.4951
 IR Inten    --     17.5718                30.8897                17.6915

                     64                     65                     66
                      A                      A                      A
 Frequencies --   3206.0409              3224.8208              3232.0832
 Red. masses --      1.0896                 1.0939                 1.0680
 Frc consts  --      6.5987                 6.7025                 6.5736
 IR Inten    --     12.0072                15.2993               340.5414

 - Thermochemistry -
 -------------------
 Temperature   298.150 Kelvin.  Pressure   1.00000 Atm.
 Atom     1 has atomic number  6 and mass  12.00000

 Molecular mass:   164.08373 amu.
 Principal axes and moments of inertia in atomic units:
                           1         2         3
     Eigenvalues --  1096.168482622.268443522.43162
           X            0.99964   0.02662  -0.00345
           Y           -0.02662   0.99964   0.00155
           Z            0.00349  -0.00146   0.99999
 This molecule is an asymmetric top.
 Rotational symmetry number  1.
 Warning -- assumption of classical behavior for rotation
           may cause significant error
 Rotational temperatures (Kelvin)      0.07902     0.03303     0.02459
 Rotational constants (GHZ):           1.64641     0.68824     0.51236
 Zero-point vibrational energy     526739.9 (Joules/Mol)
                                  125.89385 (Kcal/Mol)
 Warning -- explicit consideration of  17 degrees of freedom as
           vibrations may cause significant error
 Vibrational temperatures:     78.81   116.62   178.98   205.33   269.47
          (Kelvin)            292.59   353.58   354.03   415.89   487.60
                              565.53   646.04   689.97   716.06   781.09
                              811.97   892.61   960.68  1032.20  1094.12
                             1142.25  1183.27  1220.05  1229.12  1259.48
                             1333.11  1384.67  1408.49  1475.45  1535.19
                             1550.61  1567.82  1626.74  1677.30  1738.57
                             1831.48  1837.81  1887.05  1933.85  1959.14
                             1998.80  2067.28  2078.65  2082.83  2144.52
                             2166.44  2180.02  2189.75  2198.57  2212.95
                             2219.11  2383.44  2402.32  2454.52  4392.15
                             4403.87  4426.49  4469.41  4489.64  4507.87
                             4509.34  4519.83  4579.28  4612.78  4639.80
                             4650.25

 Zero-point correction=                           0.200625 (Hartree/Particle)
 Thermal correction to Energy=                    0.211984
 Thermal correction to Enthalpy=                  0.212928
 Thermal correction to Gibbs Free Energy=         0.163401
 Sum of electronic and zero-point Energies=           -538.601544
 Sum of electronic and thermal Energies=              -538.590185
 Sum of electronic and thermal Enthalpies=            -538.589241
 Sum of electronic and thermal Free Energies=         -538.638768

                     E (Thermal)             CV                S
                      KCal/Mol        Cal/Mol-Kelvin    Cal/Mol-Kelvin
 Total                  133.022             43.192            104.238
 Electronic               0.000              0.000              0.000
 Translational            0.889              2.981             41.194
 Rotational               0.889              2.981             30.694
 Vibrational            131.245             37.231             32.351
 Vibration     1          0.596              1.976              4.637
 Vibration     2          0.600              1.962              3.865
 Vibration     3          0.610              1.929              3.031
 Vibration     4          0.616              1.910              2.767
 Vibration     5          0.632              1.857              2.255
 Vibration     6          0.639              1.835              2.102
 Vibration     7          0.660              1.770              1.761
 Vibration     8          0.661              1.769              1.759
 Vibration     9          0.686              1.694              1.479
 Vibration    10          0.719              1.598              1.217
 Vibration    11          0.760              1.485              0.989
 Vibration    12          0.808              1.363              0.799
 Vibration    13          0.836              1.295              0.711
 Vibration    14          0.853              1.255              0.664
 Vibration    15          0.898              1.155              0.559
 Vibration    16          0.920              1.108              0.515
 Vibration    17          0.980              0.989              0.416

 Optimization completed.
    -- Stationary point found.
 Normal termination of Gaussian 16 at Wed Dec  9 17:41:27 2020.

 ----------------------------------------------------------------------
 # B3LYP/6-311++G(d,p) empiricaldispersion=gd3bj scf=xqc pop=npa geom=c
 heck
 ----------------------------------------------------------------------

 --------------------------------------
 CID_15568694_JID_2571_Energie_neutraal
 --------------------------------------
 Structure from the checkpoint file:  "JID_2571.chk"
 Charge =  0 Multiplicity = 1

 SCF Done:  E(RB3LYP) =  -538.956797252     A.U. after   15 cycles
 Normal termination of Gaussian 16 at Wed Dec  9 17:43:40 2020.

 ----------------------------------------------------------------------
 # B3LYP/6-311++G(d,p) empiricaldispersion=gd3bj scf=xqc pop=npa geom=c
 heck
 ----------------------------------------------------------------------

 ------------------------------------
 CID_15568694_JID_2571_Energie_kation
 ------------------------------------
 Structure from the checkpoint file:  "JID_2571.chk"
 Charge =  1 Multiplicity = 2

 SCF Done:  E(UB3LYP) =  -538.651678866     A.U. after   23 cycles
 Normal termination of Gaussian 16 at Wed Dec  9 17:48:12 2020.
 Gaussian 16:  ES64L-G16RevA.03 25-Dec-2016

 ----------------------------------------------------------------------
 # B3LYP/6-311++G(d,p) empiricaldispersion=gd3bj scf=xqc pop=npa geom=c
 heck
 ----------------------------------------------------------------------

 -----------------------------------
 CID_15568694_JID_2571_Energie_anion
 -----------------------------------
 Structure from the checkpoint file:  "JID_2571.chk"
 Charge = -1 Multiplicity = 2

                         Standard orientation:
 ---------------------------------------------------------------------
 Center     Atomic      Atomic             Coordinates (Angstroms)
 Number     Number       Type             X           Y           Z
 ---------------------------------------------------------------------
      1          6           0        3.356927    0.651999   -0.928704
      2          6           0        2.875440    0.135175    0.439507
      3          6           0        1.560034   -0.611156    0.310705
      4          8           0        1.594187   -1.852004    0.245732
      5          6           0        0.290959    0.121871    0.211986
      6          6           0        0.227956    1.530093    0.294517
      7          6           0       -0.978558    2.195502    0.186955
      8          6           0       -2.158146    1.458702   -0.005517
      9          6           0       -2.154475    0.072954   -0.091938
     10          6           0       -0.917859   -0.601369    0.017915
     11          8           0       -0.944286   -1.939288   -0.070045
     12          6           0       -3.410018   -0.730496   -0.296319
     13          1           0        3.460594   -0.178147   -1.634719
     14          1           0        4.331717    1.140186   -0.830265
     15          1           0        2.653397    1.373403   -1.355856
     16          1           0        3.599016   -0.578224    0.842940
     17          1           0        2.787686    0.964452    1.149053
     18          1           0        1.139274    2.097981    0.444370
     19          1           0       -1.016878    3.278109    0.252255
     20          1           0       -3.107541    1.982352   -0.088719
     21          1           0       -0.000603   -2.244129    0.029689
     22          1           0       -3.350836   -1.328563   -1.212938
     23          1           0       -3.563168   -1.438836    0.525951
     24          1           0       -4.285424   -0.077904   -0.361892
 ---------------------------------------------------------------------

 SCF Done:  E(UB3LYP) =  -538.969775689     A.U. after   26 cycles

 The electronic state is 2-A.
 Alpha  occ. eigenvalues --  -18.98237 -18.92376 -10.07481 -10.06075 -10.03841
 Alpha  occ. eigenvalues --  -10.03709 -10.02990 -10.02445 -10.02111 -10.01826
 Alpha  occ. eigenvalues --  -10.01684 -10.01496  -0.90785  -0.85777  -0.70260
 Alpha  occ. eigenvalues --   -0.64445  -0.62725  -0.59059  -0.54644  -0.51258
 Alpha  occ. eigenvalues --   -0.48148  -0.44112  -0.40825  -0.36294  -0.35205
 Alpha  occ. eigenvalues --   -0.33141  -0.30746  -0.30466  -0.29476  -0.27928
 Alpha  occ. eigenvalues --   -0.27447  -0.26467  -0.25870  -0.24451  -0.23474
 Alpha  occ. eigenvalues --   -0.23290  -0.22298  -0.21029  -0.20103  -0.19086
 Alpha  occ. eigenvalues --   -0.18947  -0.10793  -0.08904  -0.07647   0.04666
 Alpha virt. eigenvalues --    0.08517   0.09018   0.10027   0.11025   0.11626
 Alpha virt. eigenvalues --    0.12152   0.13036   0.13556   0.13920   0.14527
 Alpha virt. eigenvalues --    0.14697   0.15707   0.16581   0.16868   0.17424

  Beta  occ. eigenvalues --  -18.98162 -18.91791 -10.07305 -10.05616 -10.03841
  Beta  occ. eigenvalues --  -10.03659 -10.03027 -10.02458 -10.02222 -10.01596
  Beta  occ. eigenvalues --  -10.01506 -10.01388  -0.90551  -0.84741  -0.69969
  Beta  occ. eigenvalues --   -0.64146  -0.62607  -0.58731  -0.54384  -0.50841
  Beta  occ. eigenvalues --   -0.47731  -0.43942  -0.40467  -0.35865  -0.35092
  Beta  occ. eigenvalues --   -0.32949  -0.30663  -0.30088  -0.29258  -0.27556
  Beta  occ. eigenvalues --   -0.27258  -0.25939  -0.25589  -0.24071  -0.23310
  Beta  occ. eigenvalues --   -0.23015  -0.22156  -0.20832  -0.18950  -0.18509
  Beta  occ. eigenvalues --   -0.17411  -0.09271  -0.08449  -0.06874
  Beta virt. eigenvalues --    0.08432   0.08973   0.09956   0.10875   0.11371
  Beta virt. eigenvalues --    0.11597   0.12128   0.13168   0.13655   0.13869
  Beta virt. eigenvalues --    0.14579   0.15005   0.15661   0.16519   0.17237

 Mulliken charges and spin densities:
               1          2
     1  C   -0.230682  -0.298810
     2  C   -0.283998   0.212209
     3  C   -0.016567   0.116064
     4  O   -0.461702   0.200355
     5  C    0.955940   0.030934
     6  C   -0.490279   0.168058
     7  C   -0.667146  -0.128631
     8  C   -0.812682   0.258695
     9  C    0.599062  -0.059865
    10  C   -0.178973   0.097167
    11  O   -0.340532   0.024781
    12  C   -0.396521   0.018228
    13  H    0.143673  -0.009532
    14  H   -0.108170   0.222110
    15  H    0.115280   0.010581
    16  H    0.097983   0.082464
    17  H    0.047940   0.066994
    18  H    0.087114   0.001677
    19  H    0.099562   0.014792
    20  H    0.062418  -0.021249
    21  H    0.351931  -0.005974
    22  H    0.153320  -0.000061
    23  H    0.152120  -0.000339
    24  H    0.120911  -0.000650
 Sum of Mulliken charges =  -1.00000   1.00000

 Dipole moment (field-independent basis, Debye):
    X=             -1.6637    Y=              2.0037    Z=             -0.4254  Tot=              2.6389
 Quadrupole moment (field-independent basis, Debye-Ang):
   XX=           -103.0897   YY=            -93.7403   ZZ=            -82.3601
   XY=              2.8152   XZ=             -0.0857   YZ=              0.7955

 Summary of Natural Population Analysis:

                                       Natural Population
                Natural  -----------------------------------------------
    Atom  No    Charge         Core      Valence    Rydberg      Total
 -----------------------------------------------------------------------
      C    1   -0.27980      0.99966     2.27449    0.00565     3.27980
      C    2   -0.23051      0.99962     2.22075    0.01015     3.23051
      C    3    0.33321      0.99961     1.64735    0.01983     2.66679
      O    4   -0.27989      0.99986     3.27356    0.00646     4.27989
      C    5   -0.11026      0.99945     2.10169    0.00912     3.11026
      C    6   -0.04114      0.99956     2.03440    0.00719     3.04114
      C    7   -0.15705      0.99957     2.14767    0.00980     3.15705
      C    8   -0.03726      0.99954     2.02873    0.00899     3.03726
      C    9   -0.06082      0.99949     2.05268    0.00866     3.06082
      C   10    0.21976      0.99937     1.76851    0.01236     2.78024
      O   11   -0.35263      0.99987     3.34620    0.00656     4.35263
      C   12   -0.28816      0.99965     2.28319    0.00533     3.28816
      H   13    0.09655      0.00000     0.40242    0.00103     0.40345
      H   14    0.08996      0.00000     0.40875    0.00129     0.41004
      H   15    0.09784      0.00000     0.40120    0.00096     0.40216
      H   16    0.10105      0.00000     0.39707    0.00187     0.39895
      H   17    0.09642      0.00000     0.40206    0.00152     0.40358
      H   18    0.08972      0.00000     0.40873    0.00155     0.41028
      H   19    0.08920      0.00000     0.40915    0.00165     0.41080
      H   20    0.08314      0.00000     0.41540    0.00146     0.41686
      H   21    0.25041      0.00000     0.24610    0.00349     0.24959
      H   22    0.09972      0.00000     0.39907    0.00121     0.40028
      H   23    0.09970      0.00000     0.39909    0.00121     0.40030
      H   24    0.09083      0.00000     0.40827    0.00090     0.40917
 =======================================================================
   * Total *   -0.00000     11.99524    31.87652    0.12824    44.00000

 Normal termination of Gaussian 16 at Wed Dec  9 17:53:11 2020.
