 Gaussian 16, Revision A.03,

 -----------------------------------------------------------
 # opt freq B3LYP/6-31G(d) empiricaldispersion=gd3bj scf=xqc
 -----------------------------------------------------------

 ---------------------------
 CID_89709_JID_1666_neutraal
 ---------------------------
 Symbolic Z-matrix:
 Charge =  0 Multiplicity = 1

 SCF Done:  E(RB3LYP) =  -426.438493232     A.U. after   14 cycles
 SCF Done:  E(RB3LYP) =  -426.441119951     A.U. after   12 cycles
 SCF Done:  E(RB3LYP) =  -426.441294930     A.U. after   10 cycles
 SCF Done:  E(RB3LYP) =  -426.441322662     A.U. after   10 cycles
 SCF Done:  E(RB3LYP) =  -426.441337098     A.U. after    9 cycles
 SCF Done:  E(RB3LYP) =  -426.441359664     A.U. after    9 cycles
 SCF Done:  E(RB3LYP) =  -426.441392233     A.U. after    9 cycles
 SCF Done:  E(RB3LYP) =  -426.441401123     A.U. after    9 cycles
 SCF Done:  E(RB3LYP) =  -426.441401608     A.U. after    7 cycles
 Optimization completed.
    -- Stationary point found.
 Normal termination of Gaussian 16 at Tue Dec  8 20:40:32 2020.

 --------------------------------------------------------------------
 #N Geom=AllCheck Guess=TCheck SCRF=Check GenChk RB3LYP/6-31G(d) Freq
 --------------------------------------------------------------------

 Structure from the checkpoint file:  "JID_1666.chk"
 ---------------------------
 CID_89709_JID_1666_neutraal
 ---------------------------
 Charge =  0 Multiplicity = 1

 SCF Done:  E(RB3LYP) =  -426.441401608     A.U. after    1 cycles

  Exact polarizability: 152.451  -4.747 128.949  -0.373  -0.013  54.762
 Approx polarizability: 231.711 -13.489 210.500  -0.339   0.092  83.314

                      1                      2                      3
                      A                      A                      A
 Frequencies --     32.1330                95.0974               130.0645
 Red. masses --      1.0181                 1.0302                 3.1671
 Frc consts  --      0.0006                 0.0055                 0.0316
 IR Inten    --      0.2206                 0.2170                 0.3746

                      4                      5                      6
                      A                      A                      A
 Frequencies --    169.7634               236.1466               258.5868
 Red. masses --      2.7063                 3.0013                 2.7915
 Frc consts  --      0.0460                 0.0986                 0.1100
 IR Inten    --      3.8193                 0.0609                 0.4687

                      7                      8                      9
                      A                      A                      A
 Frequencies --    279.1899               285.2078               422.4241
 Red. masses --      2.7564                 2.9903                 2.1456
 Frc consts  --      0.1266                 0.1433                 0.2256
 IR Inten    --      0.5311                 0.5940                 4.5110

                     10                     11                     12
                      A                      A                      A
 Frequencies --    465.0464               481.4086               516.5150
 Red. masses --      4.9987                 3.4817                 3.3674
 Frc consts  --      0.6369                 0.4754                 0.5293
 IR Inten    --      0.8562                 0.0644                 0.0113

                     13                     14                     15
                      A                      A                      A
 Frequencies --    570.3373               586.4044               615.5150
 Red. masses --      4.2469                 2.8656                 4.4970
 Frc consts  --      0.8139                 0.5806                 1.0038
 IR Inten    --      0.9535                 5.7645                 0.2613

                     16                     17                     18
                      A                      A                      A
 Frequencies --    703.1964               765.5682               776.2949
 Red. masses --      1.4317                 5.0276                 2.9147
 Frc consts  --      0.4171                 1.7361                 1.0349
 IR Inten    --     14.2540                 0.4325                 7.2885

                     19                     20                     21
                      A                      A                      A
 Frequencies --    864.0741               871.8334               893.2516
 Red. masses --      4.1040                 1.2805                 1.3179
 Frc consts  --      1.8053                 0.5735                 0.6196
 IR Inten    --      6.0861                19.0376                 0.0725

                     22                     23                     24
                      A                      A                      A
 Frequencies --    953.3564               956.3806               962.4448
 Red. masses --      1.4469                 2.7526                 1.7840
 Frc consts  --      0.7748                 1.4834                 0.9737
 IR Inten    --      0.4199                 8.2409                 1.6529

                     25                     26                     27
                      A                      A                      A
 Frequencies --    965.6581               989.2860              1043.2433
 Red. masses --      2.3663                 3.0075                 1.5373
 Frc consts  --      1.3001                 1.7342                 0.9858
 IR Inten    --      0.7890                 1.9865                 1.3535

                     28                     29                     30
                      A                      A                      A
 Frequencies --   1048.2887              1073.4659              1073.9724
 Red. masses --      1.6563                 1.5054                 1.5026
 Frc consts  --      1.0724                 1.0221                 1.0211
 IR Inten    --      2.6489                11.5332                 1.2657

                     31                     32                     33
                      A                      A                      A
 Frequencies --   1138.7956              1154.1393              1162.3114
 Red. masses --      1.2734                 1.1300                 1.9950
 Frc consts  --      0.9730                 0.8868                 1.5880
 IR Inten    --      1.8678                 1.2161                 0.2908

                     34                     35                     36
                      A                      A                      A
 Frequencies --   1234.0875              1250.1339              1305.1749
 Red. masses --      1.8917                 1.5471                 1.5309
 Frc consts  --      1.6974                 1.4245                 1.5365
 IR Inten    --      0.9606                 2.8537                 0.2336

                     37                     38                     39
                      A                      A                      A
 Frequencies --   1319.9757              1360.3382              1405.4410
 Red. masses --      7.3137                 3.3976                 2.5545
 Frc consts  --      7.5079                 3.7043                 2.9729
 IR Inten    --      0.0667                 1.5182                 1.8594

                     40                     41                     42
                      A                      A                      A
 Frequencies --   1441.0517              1443.3535              1463.5800
 Red. masses --      1.2376                 1.2765                 2.4912
 Frc consts  --      1.5143                 1.5668                 3.1441
 IR Inten    --      0.2417                 0.6788                 7.5288

                     43                     44                     45
                      A                      A                      A
 Frequencies --   1467.7194              1504.6365              1514.9087
 Red. masses --      1.2432                 1.9452                 1.0450
 Frc consts  --      1.5779                 2.5947                 1.4130
 IR Inten    --      2.7990                 3.7096                 5.3321

                     46                     47                     48
                      A                      A                      A
 Frequencies --   1518.1745              1530.6707              1533.1788
 Red. masses --      1.0518                 1.2146                 1.3552
 Frc consts  --      1.4283                 1.6767                 1.8769
 IR Inten    --      5.3085                17.9388                 8.9868

                     49                     50                     51
                      A                      A                      A
 Frequencies --   1616.6567              1660.2891              1672.3746
 Red. masses --      5.7454                 6.7288                 6.2475
 Frc consts  --      8.8472                10.9283                10.2949
 IR Inten    --      4.8783                 2.1978                 8.8670

                     52                     53                     54
                      A                      A                      A
 Frequencies --   3032.5294              3037.2004              3039.5988
 Red. masses --      1.0602                 1.0413                 1.0378
 Frc consts  --      5.7445                 5.6593                 5.6491
 IR Inten    --     18.7855                46.3263                28.2800

                     55                     56                     57
                      A                      A                      A
 Frequencies --   3057.5416              3089.1192              3093.5369
 Red. masses --      1.1007                 1.1007                 1.0948
 Frc consts  --      6.0626                 6.1888                 6.1728
 IR Inten    --     13.4006                21.3585                25.4549

                     58                     59                     60
                      A                      A                      A
 Frequencies --   3122.1352              3124.5390              3167.2639
 Red. masses --      1.1024                 1.1004                 1.0894
 Frc consts  --      6.3313                 6.3294                 6.4390
 IR Inten    --     16.5628                17.9331                30.7630

                     61                     62                     63
                      A                      A                      A
 Frequencies --   3172.0164              3215.6742              3238.9140
 Red. masses --      1.0904                 1.0868                 1.1026
 Frc consts  --      6.4640                 6.6211                 6.8147
 IR Inten    --     17.7109                 5.6500                21.0382

 - Thermochemistry -
 -------------------
 Temperature   298.150 Kelvin.  Pressure   1.00000 Atm.
 Atom     1 has atomic number  6 and mass  12.00000

 Molecular mass:   144.09390 amu.
 Principal axes and moments of inertia in atomic units:
                           1         2         3
     Eigenvalues --  1032.805731788.256632787.48958
           X            0.99992   0.01299  -0.00032
           Y           -0.01299   0.99992  -0.00010
           Z            0.00032   0.00010   1.00000
 This molecule is an asymmetric top.
 Rotational symmetry number  1.
 Warning -- assumption of classical behavior for rotation
           may cause significant error
 Rotational temperatures (Kelvin)      0.08386     0.04843     0.03107
 Rotational constants (GHZ):           1.74742     1.00922     0.64744
 Zero-point vibrational energy     515418.3 (Joules/Mol)
                                  123.18794 (Kcal/Mol)
 Warning -- explicit consideration of  15 degrees of freedom as
           vibrations may cause significant error
 Vibrational temperatures:     46.23   136.82   187.13   244.25   339.76
          (Kelvin)            372.05   401.69   410.35   607.77   669.10
                              692.64   743.15   820.59   843.71   885.59
                             1011.74  1101.48  1116.92  1243.21  1254.37
                             1285.19  1371.67  1376.02  1384.74  1389.37
                             1423.36  1500.99  1508.25  1544.48  1545.21
                             1638.47  1660.55  1672.31  1775.58  1798.66
                             1877.86  1899.15  1957.22  2022.12  2073.35
                             2076.66  2105.77  2111.72  2164.84  2179.62
                             2184.31  2202.29  2205.90  2326.01  2388.79
                             2406.17  4363.13  4369.85  4373.30  4399.12
                             4444.55  4450.91  4492.06  4495.51  4556.99
                             4563.82  4626.64  4660.07

 Zero-point correction=                           0.196312 (Hartree/Particle)
 Thermal correction to Energy=                    0.206375
 Thermal correction to Enthalpy=                  0.207319
 Thermal correction to Gibbs Free Energy=         0.160345
 Sum of electronic and zero-point Energies=           -426.245089
 Sum of electronic and thermal Energies=              -426.235027
 Sum of electronic and thermal Enthalpies=            -426.234083
 Sum of electronic and thermal Free Energies=         -426.281056

                     E (Thermal)             CV                S
                      KCal/Mol        Cal/Mol-Kelvin    Cal/Mol-Kelvin
 Total                  129.502             38.647             98.864
 Electronic               0.000              0.000              0.000
 Translational            0.889              2.981             40.807
 Rotational               0.889              2.981             30.022
 Vibrational            127.725             32.686             28.035
 Vibration     1          0.594              1.983              5.693
 Vibration     2          0.603              1.953              3.552
 Vibration     3          0.612              1.923              2.945
 Vibration     4          0.625              1.880              2.438
 Vibration     5          0.655              1.785              1.832
 Vibration     6          0.667              1.748              1.671
 Vibration     7          0.680              1.712              1.539
 Vibration     8          0.683              1.701              1.502
 Vibration     9          0.785              1.421              0.884
 Vibration    10          0.822              1.328              0.752
 Vibration    11          0.838              1.291              0.706
 Vibration    12          0.872              1.213              0.618
 Vibration    13          0.926              1.095              0.504
 Vibration    14          0.943              1.061              0.474
 Vibration    15          0.975              0.999              0.424

                           ! Non-Optimized Parameters !
 Normal termination of Gaussian 16 at Tue Dec  8 20:45:34 2020.

 ----------------------------------------------------------------------
 # B3LYP/6-311++G(d,p) empiricaldispersion=gd3bj scf=xqc pop=npa geom=c
 heck
 ----------------------------------------------------------------------

 -----------------------------------
 CID_89709_JID_1666_Energie_neutraal
 -----------------------------------
 Structure from the checkpoint file:  "JID_1666.chk"
 Charge =  0 Multiplicity = 1

 SCF Done:  E(RB3LYP) =  -426.548602474     A.U. after   14 cycles
 Normal termination of Gaussian 16 at Tue Dec  8 20:49:52 2020.

 ----------------------------------------------------------------------
 # B3LYP/6-311++G(d,p) empiricaldispersion=gd3bj scf=xqc pop=npa geom=c
 heck
 ----------------------------------------------------------------------

 ---------------------------------
 CID_89709_JID_1666_Energie_kation
 ---------------------------------
 Structure from the checkpoint file:  "JID_1666.chk"
 Charge =  1 Multiplicity = 2

 SCF Done:  E(UB3LYP) =  -426.270505924     A.U. after   22 cycles
 Normal termination of Gaussian 16 at Tue Dec  8 20:57:24 2020.
 Gaussian 16:  ES64L-G16RevA.03 25-Dec-2016

 ----------------------------------------------------------------------
 # B3LYP/6-311++G(d,p) empiricaldispersion=gd3bj scf=xqc pop=npa geom=c
 heck
 ----------------------------------------------------------------------

 --------------------------------
 CID_89709_JID_1666_Energie_anion
 --------------------------------
 Structure from the checkpoint file:  "JID_1666.chk"
 Charge = -1 Multiplicity = 2

                         Standard orientation:
 ---------------------------------------------------------------------
 Center     Atomic      Atomic             Coordinates (Angstroms)
 Number     Number       Type             X           Y           Z
 ---------------------------------------------------------------------
      1          6           0       -3.305594   -0.896790    0.013592
      2          6           0       -1.860105   -0.460866   -0.011122
      3          6           0       -1.527490    0.901212   -0.009099
      4          6           0       -0.204323    1.357067   -0.000347
      5          6           0        0.806435    0.387542    0.004089
      6          6           0        2.267234    0.519623    0.007618
      7          6           0        2.836523   -0.701944    0.004546
      8          6           0        1.777120   -1.780238   -0.002775
      9          6           0        0.489942   -0.986108   -0.001590
     10          6           0       -0.829078   -1.413079   -0.010838
     11          6           0        0.120362    2.829952   -0.001336
     12          1           0       -3.962254   -0.131514   -0.413121
     13          1           0       -3.649000   -1.085410    1.039799
     14          1           0       -3.454045   -1.823488   -0.551583
     15          1           0       -2.331712    1.634529   -0.015716
     16          1           0        2.795949    1.466719    0.012553
     17          1           0        3.900017   -0.912422    0.007281
     18          1           0        1.860811   -2.431444   -0.884950
     19          1           0        1.857809   -2.440749    0.872756
     20          1           0       -1.072219   -2.473709   -0.018908
     21          1           0       -0.790675    3.436081   -0.004602
     22          1           0        0.707048    3.112573    0.881829
     23          1           0        0.712115    3.110607   -0.881764
 ---------------------------------------------------------------------

 SCF Done:  E(UB3LYP) =  -426.529590817     A.U. after   33 cycles
 SCF Done:  E(UB3LYP) =  -426.529590817     a.u. after    1 cycles

 The electronic state is 2-A.
 Alpha  occ. eigenvalues --  -10.07538 -10.07518 -10.07460 -10.07053 -10.06872
 Alpha  occ. eigenvalues --  -10.06762 -10.06512 -10.06333 -10.06305 -10.06254
 Alpha  occ. eigenvalues --  -10.06005  -0.77461  -0.72015  -0.67837  -0.63367
 Alpha  occ. eigenvalues --   -0.60089  -0.58399  -0.56084  -0.48269  -0.46161
 Alpha  occ. eigenvalues --   -0.44602  -0.40312  -0.36318  -0.33983  -0.33397
 Alpha  occ. eigenvalues --   -0.32321  -0.31738  -0.31100  -0.30540  -0.29481
 Alpha  occ. eigenvalues --   -0.27814  -0.27034  -0.25611  -0.23841  -0.23782
 Alpha  occ. eigenvalues --   -0.22426  -0.18698  -0.13744  -0.10910   0.04789
 Alpha virt. eigenvalues --    0.06678   0.07025   0.07135   0.08539   0.08748
 Alpha virt. eigenvalues --    0.08886   0.09480   0.10701   0.10914   0.11129
 Alpha virt. eigenvalues --    0.11937   0.12656   0.13505   0.14222   0.14642

  Beta  occ. eigenvalues --  -10.07516 -10.07515 -10.07454 -10.07051 -10.06846
  Beta  occ. eigenvalues --  -10.06748 -10.06504 -10.06301 -10.06271 -10.06243
  Beta  occ. eigenvalues --  -10.05992  -0.77440  -0.71987  -0.67809  -0.63330
  Beta  occ. eigenvalues --   -0.60039  -0.58353  -0.56034  -0.48222  -0.46114
  Beta  occ. eigenvalues --   -0.44547  -0.40268  -0.36279  -0.33941  -0.33352
  Beta  occ. eigenvalues --   -0.32275  -0.31698  -0.31061  -0.30509  -0.29440
  Beta  occ. eigenvalues --   -0.27775  -0.27001  -0.25568  -0.23813  -0.23748
  Beta  occ. eigenvalues --   -0.22399  -0.18649  -0.13717  -0.10850
  Beta virt. eigenvalues --    0.06935   0.07238   0.07669   0.07930   0.08888
  Beta virt. eigenvalues --    0.09254   0.09599   0.09817   0.11249   0.11464
  Beta virt. eigenvalues --    0.11626   0.12207   0.13012   0.14091   0.14307

 Mulliken charges and spin densities:
               1          2
     1  C    2.653007  -3.014774
     2  C    0.393445   0.831675
     3  C   -3.079770   1.942790
     4  C    0.260865   0.266244
     5  C    0.749952  -0.286353
     6  C   -0.211182  -0.203820
     7  C    0.195590  -0.159388
     8  C    0.583073  -1.468643
     9  C   -0.924038   0.950922
    10  C    0.521448  -1.088914
    11  C    1.355540  -2.025308
    12  H   -0.388185   0.533441
    13  H   -0.033200   0.196347
    14  H   -0.263411   0.400046
    15  H   -0.140847   0.228455
    16  H   -0.321080   0.459501
    17  H   -1.013963   1.199478
    18  H   -0.119283   0.280328
    19  H   -0.091608   0.251564
    20  H   -0.385605   0.515004
    21  H   -0.640736   0.792743
    22  H   -0.028863   0.176010
    23  H   -0.071150   0.222654
 Sum of Mulliken charges =  -1.00000   1.00000

 Dipole moment (field-independent basis, Debye):
    X=             -0.5804    Y=             -0.4407    Z=              0.3778  Tot=              0.8209
 Quadrupole moment (field-independent basis, Debye-Ang):
   XX=           -134.7005   YY=           -114.8439   ZZ=            -94.0781
   XY=              3.5548   XZ=             -0.7356   YZ=              0.2697

 Summary of Natural Population Analysis:

                                       Natural Population
                Natural  -----------------------------------------------
    Atom  No    Charge         Core      Valence    Rydberg      Total
 -----------------------------------------------------------------------
      C    1   -0.29013      0.99964     2.28520    0.00529     3.29013
      C    2   -0.01250      0.99953     2.00338    0.00959     3.01250
      C    3   -0.10210      0.99948     2.09298    0.00964     3.10210
      C    4   -0.00836      0.99948     1.99930    0.00958     3.00836
      C    5   -0.03875      0.99944     2.02934    0.00998     3.03875
      C    6   -0.10427      0.99950     2.09468    0.01008     3.10427
      C    7   -0.07816      0.99956     2.06838    0.01022     3.07816
      C    8   -0.21798      0.99960     2.21015    0.00824     3.21798
      C    9    0.00427      0.99949     1.98641    0.00983     2.99573
      C   10   -0.10450      0.99946     2.09600    0.00904     3.10450
      C   11   -0.29104      0.99964     2.28625    0.00515     3.29104
      H   12    0.10177      0.00000     0.39680    0.00142     0.39823
      H   13    0.10304      0.00000     0.39527    0.00169     0.39696
      H   14    0.10129      0.00000     0.39725    0.00146     0.39871
      H   15    0.09726      0.00000     0.40157    0.00117     0.40274
      H   16    0.10367      0.00000     0.39513    0.00120     0.39633
      H   17    0.09965      0.00000     0.39836    0.00199     0.40035
      H   18    0.11499      0.00000     0.38323    0.00178     0.38501
      H   19    0.11379      0.00000     0.38490    0.00131     0.38621
      H   20    0.09838      0.00000     0.40027    0.00135     0.40162
      H   21    0.10282      0.00000     0.39573    0.00145     0.39718
      H   22    0.10266      0.00000     0.39584    0.00150     0.39734
      H   23    0.10419      0.00000     0.39410    0.00171     0.39581
 =======================================================================
   * Total *   -0.00000     10.99481    27.89052    0.11467    39.00000

 Normal termination of Gaussian 16 at Tue Dec  8 21:05:30 2020.
