 Gaussian 16, Revision A.03,

 -----------------------------------------------------------
 # opt freq B3LYP/6-31G(d) empiricaldispersion=gd3bj scf=xqc
 -----------------------------------------------------------

 ------------------------------
 CID_64188499_JID_6870_neutraal
 ------------------------------
 Symbolic Z-matrix:
 Charge =  0 Multiplicity = 1

 SCF Done:  E(RB3LYP) =  -1092.03731112     A.U. after   15 cycles
 SCF Done:  E(RB3LYP) =  -1092.04305567     A.U. after   13 cycles
 SCF Done:  E(RB3LYP) =  -1092.04383111     A.U. after   12 cycles
 SCF Done:  E(RB3LYP) =  -1092.04402165     A.U. after   13 cycles
 SCF Done:  E(RB3LYP) =  -1092.04447104     A.U. after   12 cycles
 SCF Done:  E(RB3LYP) =  -1092.04463494     A.U. after   12 cycles
 SCF Done:  E(RB3LYP) =  -1092.04482317     A.U. after   11 cycles
 SCF Done:  E(RB3LYP) =  -1092.04491231     A.U. after   12 cycles
 SCF Done:  E(RB3LYP) =  -1092.04498464     A.U. after   12 cycles
 SCF Done:  E(RB3LYP) =  -1092.04503638     A.U. after   11 cycles
 SCF Done:  E(RB3LYP) =  -1092.04505680     A.U. after    9 cycles
 SCF Done:  E(RB3LYP) =  -1092.04505714     A.U. after    8 cycles
 SCF Done:  E(RB3LYP) =  -1092.04505753     A.U. after    8 cycles
 SCF Done:  E(RB3LYP) =  -1092.04505794     A.U. after    8 cycles
 SCF Done:  E(RB3LYP) =  -1092.04505810     A.U. after    8 cycles
 SCF Done:  E(RB3LYP) =  -1092.04505814     A.U. after    6 cycles
 Optimization completed.
    -- Stationary point found.
 Normal termination of Gaussian 16 at Fri Dec 11 01:06:49 2020.

 --------------------------------------------------------------------
 #N Geom=AllCheck Guess=TCheck SCRF=Check GenChk RB3LYP/6-31G(d) Freq
 --------------------------------------------------------------------

 Structure from the checkpoint file:  "JID_6870.chk"
 ------------------------------
 CID_64188499_JID_6870_neutraal
 ------------------------------
 Charge =  0 Multiplicity = 1

 SCF Done:  E(RB3LYP) =  -1092.04505814     A.U. after    1 cycles

  Exact polarizability: 177.653  -3.818 178.498 -17.686  -2.037 103.632
 Approx polarizability: 254.686   4.783 263.616 -47.728 -10.335 173.439

                      1                      2                      3
                      A                      A                      A
 Frequencies --     17.4892                31.2619                36.3755
 Red. masses --      4.2602                 4.3556                 2.7487
 Frc consts  --      0.0008                 0.0025                 0.0021
 IR Inten    --      0.1341                 0.8055                 0.0764

                      4                      5                      6
                      A                      A                      A
 Frequencies --     60.5024                79.2755                99.2207
 Red. masses --      5.9424                 1.0614                 4.0789
 Frc consts  --      0.0128                 0.0039                 0.0237
 IR Inten    --      1.1065                 0.2776                 0.4065

                      7                      8                      9
                      A                      A                      A
 Frequencies --    110.4138               118.2286               147.9204
 Red. masses --      5.6602                 2.2348                 3.6730
 Frc consts  --      0.0407                 0.0184                 0.0474
 IR Inten    --      1.0512                 0.0243                 1.3698

                     10                     11                     12
                      A                      A                      A
 Frequencies --    160.4795               199.7014               217.8710
 Red. masses --      5.3047                 1.5401                 2.2666
 Frc consts  --      0.0805                 0.0362                 0.0634
 IR Inten    --      1.8455                 0.8425                 0.0483

                     13                     14                     15
                      A                      A                      A
 Frequencies --    230.9656               243.1207               265.7319
 Red. masses --      1.8617                 1.6956                 3.6193
 Frc consts  --      0.0585                 0.0590                 0.1506
 IR Inten    --      2.5968                 1.8786                 0.5809

                     16                     17                     18
                      A                      A                      A
 Frequencies --    299.2361               303.2387               340.3876
 Red. masses --      1.7289                 4.3882                 5.8527
 Frc consts  --      0.0912                 0.2377                 0.3995
 IR Inten    --      0.1137                 0.6154                 2.5003

                     19                     20                     21
                      A                      A                      A
 Frequencies --    366.3634               389.8902               408.6663
 Red. masses --      2.9143                 3.4952                 2.9191
 Frc consts  --      0.2305                 0.3130                 0.2872
 IR Inten    --      1.1042                 5.1924                 1.0465

                     22                     23                     24
                      A                      A                      A
 Frequencies --    441.6751               497.6555               511.3886
 Red. masses --      3.0016                 5.1407                 2.6251
 Frc consts  --      0.3450                 0.7501                 0.4045
 IR Inten    --      1.1928                 8.2544                 0.5188

                     25                     26                     27
                      A                      A                      A
 Frequencies --    512.9855               582.6219               603.1197
 Red. masses --      5.0477                 1.2735                 6.2024
 Frc consts  --      0.7826                 0.2547                 1.3293
 IR Inten    --      5.5972                66.0890                18.4127

                     28                     29                     30
                      A                      A                      A
 Frequencies --    616.4605               695.8343               704.0812
 Red. masses --      4.7313                 3.6744                 5.1065
 Frc consts  --      1.0594                 1.0482                 1.4915
 IR Inten    --     11.6840                16.5085                 6.8176

                     31                     32                     33
                      A                      A                      A
 Frequencies --    729.5405               747.2909               766.0436
 Red. masses --      4.0358                 1.5015                 7.2976
 Frc consts  --      1.2656                 0.4940                 2.5231
 IR Inten    --     28.8291                 5.0398                32.4902

                     34                     35                     36
                      A                      A                      A
 Frequencies --    833.2991               844.0326               867.5954
 Red. masses --      1.7615                 1.4610                 1.5434
 Frc consts  --      0.7207                 0.6132                 0.6845
 IR Inten    --      0.4874                20.8322                 1.8355

                     37                     38                     39
                      A                      A                      A
 Frequencies --    911.2820               944.8684               960.7407
 Red. masses --      1.5764                 1.6863                 1.8174
 Frc consts  --      0.7713                 0.8870                 0.9884
 IR Inten    --      0.5667                 5.4273                 1.2157

                     40                     41                     42
                      A                      A                      A
 Frequencies --    983.2821              1014.2925              1029.6536
 Red. masses --      3.5448                 1.8207                 1.5192
 Frc consts  --      2.0193                 1.1036                 0.9490
 IR Inten    --     20.1392                27.2768                 6.1253

                     43                     44                     45
                      A                      A                      A
 Frequencies --   1048.5609              1057.7763              1068.9877
 Red. masses --      1.7688                 2.9675                 1.4208
 Frc consts  --      1.1458                 1.9563                 0.9566
 IR Inten    --     42.6772               127.6830                 2.0214

                     46                     47                     48
                      A                      A                      A
 Frequencies --   1088.4987              1114.7651              1164.6214
 Red. masses --      2.5840                 4.3781                 2.0078
 Frc consts  --      1.8039                 3.2055                 1.6045
 IR Inten    --      0.7157                69.0075                 1.3249

                     49                     50                     51
                      A                      A                      A
 Frequencies --   1168.2988              1189.7066              1199.9605
 Red. masses --      2.3528                 2.3453                 1.9347
 Frc consts  --      1.8921                 1.9558                 1.6413
 IR Inten    --      8.2906                10.2762                 0.6406

                     52                     53                     54
                      A                      A                      A
 Frequencies --   1215.1632              1252.4980              1273.4573
 Red. masses --      2.1542                 1.7560                 1.3886
 Frc consts  --      1.8741                 1.6230                 1.3267
 IR Inten    --    148.6520               134.1382                47.6103

                     55                     56                     57
                      A                      A                      A
 Frequencies --   1294.5608              1327.7276              1345.5007
 Red. masses --      1.2511                 1.2204                 1.2443
 Frc consts  --      1.2354                 1.2676                 1.3272
 IR Inten    --      1.7861                 1.6168                 6.0833

                     58                     59                     60
                      A                      A                      A
 Frequencies --   1374.3178              1379.0155              1397.9554
 Red. masses --      1.2609                 2.9400                 1.4160
 Frc consts  --      1.4031                 3.2941                 1.6304
 IR Inten    --      2.7273                20.5646                28.8270

                     61                     62                     63
                      A                      A                      A
 Frequencies --   1419.1446              1425.3354              1440.6541
 Red. masses --      1.5049                 1.5358                 1.2377
 Frc consts  --      1.7858                 1.8384                 1.5135
 IR Inten    --     38.9965                37.9725                11.5235

                     64                     65                     66
                      A                      A                      A
 Frequencies --   1442.5340              1445.0272              1465.7309
 Red. masses --      1.2382                 1.2754                 3.6196
 Frc consts  --      1.5181                 1.5692                 4.5816
 IR Inten    --      1.8032                15.4363               284.8736

                     67                     68                     69
                      A                      A                      A
 Frequencies --   1507.6998              1511.1208              1511.5783
 Red. masses --      1.0458                 1.0834                 1.7476
 Frc consts  --      1.4006                 1.4576                 2.3526
 IR Inten    --      9.3434                 2.2687                64.4316

                     70                     71                     72
                      A                      A                      A
 Frequencies --   1520.2581              1522.3631              1529.5991
 Red. masses --      1.1611                 1.0626                 1.0998
 Frc consts  --      1.5811                 1.4510                 1.5161
 IR Inten    --     36.9263                 4.1546                24.5048

                     73                     74                     75
                      A                      A                      A
 Frequencies --   1534.0901              1534.9724              1541.1228
 Red. masses --      1.0529                 1.0544                 1.8971
 Frc consts  --      1.4599                 1.4637                 2.6547
 IR Inten    --      5.2922                 9.2976                40.9998

                     76                     77                     78
                      A                      A                      A
 Frequencies --   1544.8024              1615.2144              1793.2479
 Red. masses --      1.0731                 5.7274                 9.2107
 Frc consts  --      1.5088                 8.8038                17.4511
 IR Inten    --      4.1349               121.7653               436.0777

                     79                     80                     81
                      A                      A                      A
 Frequencies --   3019.7574              3040.9271              3042.8674
 Red. masses --      1.0672                 1.0536                 1.0621
 Frc consts  --      5.7336                 5.7404                 5.7940
 IR Inten    --     21.3659                20.2746                13.9341

                     82                     83                     84
                      A                      A                      A
 Frequencies --   3045.6618              3048.1562              3051.3344
 Red. masses --      1.0431                 1.0574                 1.0363
 Frc consts  --      5.7006                 5.7883                 5.6850
 IR Inten    --     10.4836                41.8716                25.3599

                     85                     86                     87
                      A                      A                      A
 Frequencies --   3064.4130              3072.0078              3084.8829
 Red. masses --      1.1009                 1.0619                 1.0961
 Frc consts  --      6.0910                 5.9043                 6.1456
 IR Inten    --      9.4633                20.7317                47.5705

                     88                     89                     90
                      A                      A                      A
 Frequencies --   3105.2797              3105.8405              3110.7241
 Red. masses --      1.1011                 1.1015                 1.1016
 Frc consts  --      6.2558                 6.2603                 6.2805
 IR Inten    --     24.1537                11.7708                50.9159

                     91                     92                     93
                      A                      A                      A
 Frequencies --   3116.5725              3128.0119              3136.6092
 Red. masses --      1.1019                 1.0997                 1.1053
 Frc consts  --      6.3060                 6.3397                 6.4070
 IR Inten    --     52.2766                31.2583                38.8048

                     94                     95                     96
                      A                      A                      A
 Frequencies --   3136.6493              3228.6220              3694.0448
 Red. masses --      1.1016                 1.0937                 1.0640
 Frc consts  --      6.3856                 6.7173                 8.5542
 IR Inten    --     12.0228                 4.8698                79.2293

 - Thermochemistry -
 -------------------
 Temperature   298.150 Kelvin.  Pressure   1.00000 Atm.
 Atom     1 has atomic number  6 and mass  12.00000

 Molecular mass:   242.09767 amu.
 Principal axes and moments of inertia in atomic units:
                           1         2         3
     Eigenvalues --  2814.983566396.691998603.92896
           X            0.99988  -0.01474   0.00506
           Y            0.01475   0.99989  -0.00230
           Z           -0.00502   0.00237   0.99998
 This molecule is an asymmetric top.
 Rotational symmetry number  1.
 Warning -- assumption of classical behavior for rotation
           may cause significant error
 Rotational temperatures (Kelvin)      0.03077     0.01354     0.01007
 Rotational constants (GHZ):           0.64112     0.28214     0.20976
 Zero-point vibrational energy     750192.0 (Joules/Mol)
                                  179.30020 (Kcal/Mol)
 Warning -- explicit consideration of  28 degrees of freedom as
           vibrations may cause significant error
 Vibrational temperatures:     25.16    44.98    52.34    87.05   114.06
          (Kelvin)            142.76   158.86   170.10   212.82   230.89
                              287.33   313.47   332.31   349.80   382.33
                              430.53   436.29   489.74   527.12   560.97
                              587.98   635.47   716.02   735.77   738.07
                              838.26   867.75   886.95  1001.15  1013.02
                             1049.65  1075.18  1102.17  1198.93  1214.37
                             1248.28  1311.13  1359.45  1382.29  1414.72
                             1459.34  1481.44  1508.65  1521.90  1538.03
                             1566.11  1603.90  1675.63  1680.92  1711.72
                             1726.48  1748.35  1802.07  1832.22  1862.58
                             1910.30  1935.88  1977.34  1984.10  2011.35
                             2041.83  2050.74  2072.78  2075.48  2079.07
                             2108.86  2169.24  2174.17  2174.82  2187.31
                             2190.34  2200.75  2207.21  2208.48  2217.33
                             2222.63  2323.93  2580.08  4344.76  4375.22
                             4378.01  4382.03  4385.62  4390.19  4409.01
                             4419.93  4438.46  4467.80  4468.61  4475.64
                             4484.05  4500.51  4512.88  4512.94  4645.27
                             5314.91

 Zero-point correction=                           0.285733 (Hartree/Particle)
 Thermal correction to Energy=                    0.303717
 Thermal correction to Enthalpy=                  0.304662
 Thermal correction to Gibbs Free Energy=         0.237511
 Sum of electronic and zero-point Energies=          -1091.759325
 Sum of electronic and thermal Energies=             -1091.741341
 Sum of electronic and thermal Enthalpies=           -1091.740397
 Sum of electronic and thermal Free Energies=        -1091.807548

                     E (Thermal)             CV                S
                      KCal/Mol        Cal/Mol-Kelvin    Cal/Mol-Kelvin
 Total                  190.586             65.059            141.331
 Electronic               0.000              0.000              0.000
 Translational            0.889              2.981             42.354
 Rotational               0.889              2.981             33.404
 Vibrational            188.808             59.097             65.573
 Vibration     1          0.593              1.986              6.901
 Vibration     2          0.594              1.983              5.748
 Vibration     3          0.594              1.982              5.447
 Vibration     4          0.597              1.973              4.441
 Vibration     5          0.600              1.963              3.909
 Vibration     6          0.604              1.950              3.470
 Vibration     7          0.606              1.941              3.262
 Vibration     8          0.608              1.934              3.129
 Vibration     9          0.617              1.905              2.699
 Vibration    10          0.622              1.891              2.544
 Vibration    11          0.638              1.840              2.136
 Vibration    12          0.646              1.814              1.977
 Vibration    13          0.653              1.794              1.871
 Vibration    14          0.659              1.774              1.780
 Vibration    15          0.672              1.736              1.624
 Vibration    16          0.692              1.675              1.421
 Vibration    17          0.695              1.668              1.399
 Vibration    18          0.720              1.595              1.210
 Vibration    19          0.739              1.541              1.095
 Vibration    20          0.758              1.492              1.001
 Vibration    21          0.773              1.451              0.931
 Vibration    22          0.801              1.379              0.821
 Vibration    23          0.853              1.255              0.664
 Vibration    24          0.866              1.225              0.630
 Vibration    25          0.868              1.221              0.626
 Vibration    26          0.939              1.069              0.481
 Vibration    27          0.962              1.025              0.444
 Vibration    28          0.976              0.997              0.422

 Optimization completed.
    -- Stationary point found.
 Normal termination of Gaussian 16 at Fri Dec 11 01:18:24 2020.

 ----------------------------------------------------------------------
 # B3LYP/6-311++G(d,p) empiricaldispersion=gd3bj scf=xqc pop=npa geom=c
 heck
 ----------------------------------------------------------------------

 --------------------------------------
 CID_64188499_JID_6870_Energie_neutraal
 --------------------------------------
 Structure from the checkpoint file:  "JID_6870.chk"
 Charge =  0 Multiplicity = 1

 SCF Done:  E(RB3LYP) =  -1092.27473124     A.U. after   16 cycles
 Normal termination of Gaussian 16 at Fri Dec 11 01:24:52 2020.

 ----------------------------------------------------------------------
 # B3LYP/6-311++G(d,p) empiricaldispersion=gd3bj scf=xqc pop=npa geom=c
 heck
 ----------------------------------------------------------------------

 ------------------------------------
 CID_64188499_JID_6870_Energie_kation
 ------------------------------------
 Structure from the checkpoint file:  "JID_6870.chk"
 Charge =  1 Multiplicity = 2

 SCF Done:  E(UB3LYP) =  -1091.97233058     A.U. after   26 cycles
 Normal termination of Gaussian 16 at Fri Dec 11 01:39:42 2020.
 Gaussian 16:  ES64L-G16RevA.03 25-Dec-2016

 ----------------------------------------------------------------------
 # B3LYP/6-311++G(d,p) empiricaldispersion=gd3bj scf=xqc pop=npa geom=c
 heck
 ----------------------------------------------------------------------

 -----------------------------------
 CID_64188499_JID_6870_Energie_anion
 -----------------------------------
 Structure from the checkpoint file:  "JID_6870.chk"
 Charge = -1 Multiplicity = 2

                         Standard orientation:
 ---------------------------------------------------------------------
 Center     Atomic      Atomic             Coordinates (Angstroms)
 Number     Number       Type             X           Y           Z
 ---------------------------------------------------------------------
      1          6           0        4.676258    1.556346   -0.463624
      2          6           0        3.986104    1.178007    0.850401
      3          6           0        2.607859    0.527061    0.664409
      4          6           0        2.592240   -0.775231   -0.153562
      5          6           0        3.451057   -1.878050    0.478401
      6          6           0        1.164745   -1.290734   -0.324696
      7          8           0        0.406352   -0.337308   -1.098214
      8          6           0       -0.738221    0.177156   -0.600989
      9          6           0       -1.819046   -0.493669   -0.039729
     10         16           0       -3.052111    0.645765    0.474620
     11          6           0       -2.121979    1.996997   -0.103497
     12          6           0       -0.930836    1.591397   -0.642655
     13          6           0       -2.628616    3.399091    0.040551
     14          6           0       -2.169225   -1.900984    0.077638
     15          8           0       -3.171612   -2.314659    0.635198
     16          8           0       -1.292378   -2.746365   -0.530505
     17          1           0        4.922291    0.672626   -1.062818
     18          1           0        5.610291    2.097826   -0.277438
     19          1           0        4.031655    2.199788   -1.075182
     20          1           0        4.640400    0.514568    1.430461
     21          1           0        3.857964    2.080644    1.461921
     22          1           0        2.172155    0.321518    1.653555
     23          1           0        1.940563    1.248698    0.177618
     24          1           0        2.976031   -0.566876   -1.161118
     25          1           0        3.118467   -2.097779    1.501019
     26          1           0        3.394102   -2.807287   -0.100224
     27          1           0        4.503673   -1.584219    0.528674
     28          1           0        1.147321   -2.242509   -0.859919
     29          1           0        0.683251   -1.438112    0.647967
     30          1           0       -0.185332    2.263397   -1.052098
     31          1           0       -3.587902    3.534721   -0.472264
     32          1           0       -2.778153    3.666764    1.093060
     33          1           0       -1.910270    4.102501   -0.390138
     34          1           0       -1.663660   -3.636188   -0.384709
 ---------------------------------------------------------------------

 SCF Done:  E(UB3LYP) =  -1092.27768079     A.U. after   30 cycles

 The electronic state is 2-A.
 Alpha  occ. eigenvalues --  -88.72840 -19.03170 -19.01939 -18.95622 -10.14804
 Alpha  occ. eigenvalues --  -10.10357 -10.09338 -10.07172 -10.07120 -10.06750
 Alpha  occ. eigenvalues --  -10.06622 -10.06602 -10.06257 -10.06114 -10.05186
 Alpha  occ. eigenvalues --  -10.03687  -7.81474  -5.77786  -5.77426  -5.77036
 Alpha  occ. eigenvalues --   -0.96774  -0.93640  -0.87118  -0.74428  -0.71755
 Alpha  occ. eigenvalues --   -0.66849  -0.64411  -0.61103  -0.58723  -0.57841
 Alpha  occ. eigenvalues --   -0.56073  -0.51206  -0.49421  -0.45518  -0.43352
 Alpha  occ. eigenvalues --   -0.42057  -0.39891  -0.37648  -0.36648  -0.35005
 Alpha  occ. eigenvalues --   -0.34402  -0.33325  -0.32547  -0.31890  -0.31713
 Alpha  occ. eigenvalues --   -0.31293  -0.30930  -0.30081  -0.28667  -0.27507
 Alpha  occ. eigenvalues --   -0.27052  -0.26163  -0.25790  -0.24946  -0.24552
 Alpha  occ. eigenvalues --   -0.23133  -0.22507  -0.21784  -0.21673  -0.20493
 Alpha  occ. eigenvalues --   -0.18960  -0.17050  -0.14069  -0.11264  -0.09639
 Alpha  occ. eigenvalues --    0.04300
 Alpha virt. eigenvalues --    0.05848   0.07326   0.07796   0.08195   0.08917
 Alpha virt. eigenvalues --    0.09690   0.10578   0.10755   0.10906   0.11332
 Alpha virt. eigenvalues --    0.12080   0.12437   0.12918   0.13959   0.14066

  Beta  occ. eigenvalues --  -88.72805 -19.03114 -19.01885 -18.95419 -10.14570
  Beta  occ. eigenvalues --  -10.10325 -10.09054 -10.07162 -10.07118 -10.06731
  Beta  occ. eigenvalues --  -10.06633 -10.06601 -10.06109 -10.05842 -10.05136
  Beta  occ. eigenvalues --  -10.03788  -7.81443  -5.77775  -5.77414  -5.76912
  Beta  occ. eigenvalues --   -0.96538  -0.93463  -0.86801  -0.74094  -0.71713
  Beta  occ. eigenvalues --   -0.66791  -0.64058  -0.60873  -0.58688  -0.57675
  Beta  occ. eigenvalues --   -0.55865  -0.51124  -0.49101  -0.45479  -0.43184
  Beta  occ. eigenvalues --   -0.41828  -0.39594  -0.37592  -0.36567  -0.34816
  Beta  occ. eigenvalues --   -0.34185  -0.33188  -0.32447  -0.31753  -0.31330
  Beta  occ. eigenvalues --   -0.31099  -0.30250  -0.29943  -0.28555  -0.27321
  Beta  occ. eigenvalues --   -0.26983  -0.26063  -0.25648  -0.24806  -0.24269
  Beta  occ. eigenvalues --   -0.23073  -0.22446  -0.21595  -0.21458  -0.20209
  Beta  occ. eigenvalues --   -0.18137  -0.16664  -0.13861  -0.10578  -0.08243
  Beta virt. eigenvalues --    0.06205   0.07436   0.07785   0.08197   0.08972
  Beta virt. eigenvalues --    0.09374   0.09746   0.10567   0.10757   0.10985
  Beta virt. eigenvalues --    0.11598   0.12046   0.12480   0.12835   0.13906

 Mulliken charges and spin densities:
               1          2
     1  C    0.024680  -0.618226
     2  C   -0.506625   0.233485
     3  C    0.170005  -0.308656
     4  C   -0.418366   0.712856
     5  C   -0.145141  -0.581970
     6  C   -0.052324  -0.430300
     7  O   -0.082201   0.012553
     8  C   -0.285156   0.213564
     9  C    0.367447   0.021740
    10  S   -0.668053   0.102531
    11  C    0.211763   0.229894
    12  C    0.080603  -0.050678
    13  C   -0.230996  -0.133389
    14  C   -0.150393   0.150855
    15  O   -0.397770   0.072746
    16  O   -0.239081   0.010084
    17  H   -0.014104   0.161508
    18  H   -0.238550   0.372653
    19  H    0.082460   0.056766
    20  H    0.034166   0.092011
    21  H    0.016096   0.130951
    22  H    0.076796   0.069252
    23  H    0.172681  -0.101181
    24  H    0.142330   0.036826
    25  H    0.078107   0.073102
    26  H    0.031997   0.085369
    27  H   -0.079687   0.223348
    28  H    0.206583  -0.001137
    29  H    0.133381   0.006860
    30  H    0.079645   0.035445
    31  H    0.142046   0.009764
    32  H    0.067783   0.091373
    33  H    0.121375   0.015729
    34  H    0.268504   0.004271
 Sum of Mulliken charges =  -1.00000   1.00000

 Dipole moment (field-independent basis, Debye):
    X=              2.2442    Y=              0.7168    Z=             -0.7693  Tot=              2.4783
 Quadrupole moment (field-independent basis, Debye-Ang):
   XX=           -183.7229   YY=           -127.1979   ZZ=           -122.2032
   XY=            -11.2934   XZ=              4.8742   YZ=              1.8360

 Summary of Natural Population Analysis:

                                       Natural Population
                Natural  -----------------------------------------------
    Atom  No    Charge         Core      Valence    Rydberg      Total
 -----------------------------------------------------------------------
      C    1   -0.28873      0.99967     2.28368    0.00537     3.28873
      C    2   -0.19112      0.99964     2.18297    0.00851     3.19112
      C    3   -0.19085      0.99961     2.18300    0.00824     3.19085
      C    4   -0.12634      0.99960     2.11637    0.01038     3.12634
      C    5   -0.28860      0.99965     2.28277    0.00618     3.28860
      C    6    0.00230      0.99952     1.98698    0.01120     2.99770
      O    7   -0.28021      0.99984     3.27159    0.00878     4.28021
      C    8    0.21286      0.99930     1.77443    0.01341     2.78714
      C    9   -0.19151      0.99940     2.18079    0.01132     3.19151
      S   10    0.21626      4.99942     2.76295    0.02136     7.78374
      C   11   -0.01509      0.99953     2.00416    0.01140     3.01509
      C   12   -0.17816      0.99943     2.16905    0.00969     3.17816
      C   13   -0.30002      0.99962     2.29524    0.00516     3.30002
      C   14    0.40564      0.99959     1.57041    0.02435     2.59436
      O   15   -0.31574      0.99987     3.31021    0.00566     4.31574
      O   16   -0.35218      0.99988     3.34546    0.00684     4.35218
      H   17    0.09630      0.00000     0.40279    0.00091     0.40370
      H   18    0.09718      0.00000     0.40192    0.00089     0.40282
      H   19    0.09637      0.00000     0.40267    0.00097     0.40363
      H   20    0.09199      0.00000     0.40694    0.00107     0.40801
      H   21    0.09420      0.00000     0.40485    0.00094     0.40580
      H   22    0.09577      0.00000     0.40323    0.00100     0.40423
      H   23    0.10359      0.00000     0.39338    0.00302     0.39641
      H   24    0.09539      0.00000     0.40257    0.00204     0.40461
      H   25    0.09645      0.00000     0.40270    0.00086     0.40355
      H   26    0.09820      0.00000     0.40093    0.00087     0.40180
      H   27    0.10027      0.00000     0.39887    0.00085     0.39973
      H   28    0.08985      0.00000     0.40869    0.00147     0.41015
      H   29    0.08830      0.00000     0.40990    0.00181     0.41170
      H   30    0.09995      0.00000     0.39841    0.00164     0.40005
      H   31    0.10301      0.00000     0.39605    0.00094     0.39699
      H   32    0.10467      0.00000     0.39419    0.00114     0.39533
      H   33    0.10012      0.00000     0.39876    0.00112     0.39988
      H   34    0.22988      0.00000     0.26545    0.00467     0.27012
 =======================================================================
   * Total *    0.00000     19.99358    44.81236    0.19406    65.00000

 Normal termination of Gaussian 16 at Fri Dec 11 01:56:49 2020.
