 Gaussian 16, Revision A.03,

 -----------------------------------------------------------
 # opt freq B3LYP/6-31G(d) empiricaldispersion=gd3bj scf=xqc
 -----------------------------------------------------------

 ------------------------------
 CID_118186756_JID_469_neutraal
 ------------------------------
 Symbolic Z-matrix:
 Charge =  0 Multiplicity = 1

 SCF Done:  E(RB3LYP) =  -406.709444101     A.U. after   14 cycles
 SCF Done:  E(RB3LYP) =  -406.711681919     A.U. after   12 cycles
 SCF Done:  E(RB3LYP) =  -406.711871111     A.U. after   12 cycles
 SCF Done:  E(RB3LYP) =  -406.711767569     A.U. after   12 cycles
 SCF Done:  E(RB3LYP) =  -406.712202179     A.U. after   11 cycles
 SCF Done:  E(RB3LYP) =  -406.712230455     A.U. after   10 cycles
 SCF Done:  E(RB3LYP) =  -406.712234259     A.U. after   10 cycles
 SCF Done:  E(RB3LYP) =  -406.712235186     A.U. after    8 cycles
 SCF Done:  E(RB3LYP) =  -406.712235431     A.U. after    7 cycles
 SCF Done:  E(RB3LYP) =  -406.712235507     A.U. after    7 cycles
 Optimization completed.
    -- Stationary point found.

 1\1\GINC-NODE313\FOpt\RB3LYP\6-31G(d)\C9H15N1\VSC10255\08-Dec-2020\0\\
 # opt freq B3LYP/6-31G(d) empiricaldispersion=gd3bj scf=xqc\\CID_11818
 6756_JID_469_neutraal\\0,1\C,0.9601469952,0.0278751818,-0.0037363404\C
 ,0.8596244908,1.4134652777,0.6459993758\C,1.1578706301,2.5357156464,-0
 .3577668772\C,0.3259499806,2.8940980377,-1.371660152\C,-0.9472426528,2
 .3151166378,-1.7538539056\C,-1.7067811185,2.7987670696,-2.7512292033\C
 ,2.4091821442,3.2842818616,-0.2355557805\C,3.4019188361,3.1077528947,0
 .6510568702\N,-0.3999636061,1.5354358945,1.3880818791\C,-0.535764481,2

 Normal termination of Gaussian 16 at Tue Dec  8 10:39:43 2020.

 --------------------------------------------------------------------
 #N Geom=AllCheck Guess=TCheck SCRF=Check GenChk RB3LYP/6-31G(d) Freq
 --------------------------------------------------------------------

 Structure from the checkpoint file:  "JID_469.chk"
 ------------------------------
 CID_118186756_JID_469_neutraal
 ------------------------------
 Charge =  0 Multiplicity = 1

 SCF Done:  E(RB3LYP) =  -406.712235507     A.U. after    1 cycles

  Exact polarizability: 180.369  -3.628  92.527   5.393   8.399  70.711
 Approx polarizability: 316.468  -2.564 126.287  14.110  14.184  94.762

                      1                      2                      3
                      A                      A                      A
 Frequencies --     36.0083                75.4763                99.6324
 Red. masses --      3.0667                 2.9967                 1.9552
 Frc consts  --      0.0023                 0.0101                 0.0114
 IR Inten    --      0.2923                 0.0702                 1.6583

                      4                      5                      6
                      A                      A                      A
 Frequencies --    126.8140               160.5631               210.0719
 Red. masses --      2.1959                 2.7696                 2.2042
 Frc consts  --      0.0208                 0.0421                 0.0573
 IR Inten    --      0.1829                 0.7403                 0.8826

                      7                      8                      9
                      A                      A                      A
 Frequencies --    211.8792               224.7791               256.4624
 Red. masses --      1.6685                 1.0435                 1.9335
 Frc consts  --      0.0441                 0.0311                 0.0749
 IR Inten    --      1.1333                 0.0976                 1.1930

                     10                     11                     12
                      A                      A                      A
 Frequencies --    266.6888               295.6429               364.3109
 Red. masses --      2.3572                 2.1297                 2.9104
 Frc consts  --      0.0988                 0.1097                 0.2276
 IR Inten    --      2.0402                 1.1223                 0.2014

                     13                     14                     15
                      A                      A                      A
 Frequencies --    423.0077               445.8568               516.7271
 Red. masses --      3.3062                 3.0207                 2.7975
 Frc consts  --      0.3486                 0.3538                 0.4401
 IR Inten    --      0.5474                 3.9580                 5.2849

                     16                     17                     18
                      A                      A                      A
 Frequencies --    544.5148               587.0403               680.6273
 Red. masses --      1.9153                 2.9891                 1.4478
 Frc consts  --      0.3346                 0.6069                 0.3952
 IR Inten    --      2.7922                 2.9591                 8.7670

                     19                     20                     21
                      A                      A                      A
 Frequencies --    741.7117               747.2705               820.1421
 Red. masses --      2.1077                 1.7732                 2.0552
 Frc consts  --      0.6832                 0.5834                 0.8145
 IR Inten    --     12.1613                69.8715                40.1561

                     22                     23                     24
                      A                      A                      A
 Frequencies --    905.0495               912.9299               915.7379
 Red. masses --      1.5544                 1.3654                 1.3406
 Frc consts  --      0.7502                 0.6705                 0.6624
 IR Inten    --      4.0454                31.5776                17.0311

                     25                     26                     27
                      A                      A                      A
 Frequencies --    931.4576               979.8773              1016.9808
 Red. masses --      1.5636                 1.5492                 1.5525
 Frc consts  --      0.7993                 0.8764                 0.9460
 IR Inten    --     25.4426                 2.7265                 2.8688

                     28                     29                     30
                      A                      A                      A
 Frequencies --   1029.8341              1035.4535              1046.1588
 Red. masses --      1.1485                 1.2387                 1.5084
 Frc consts  --      0.7177                 0.7825                 0.9727
 IR Inten    --      0.6395                18.2787                14.4587

                     31                     32                     33
                      A                      A                      A
 Frequencies --   1094.4455              1109.3398              1163.9369
 Red. masses --      2.1063                 1.8144                 2.1897
 Frc consts  --      1.4865                 1.3155                 1.7478
 IR Inten    --      2.8511                20.3873                19.7728

                     34                     35                     36
                      A                      A                      A
 Frequencies --   1166.4514              1174.8716              1236.4286
 Red. masses --      2.2111                 1.8069                 2.0338
 Frc consts  --      1.7725                 1.4695                 1.8319
 IR Inten    --     28.6752                23.9965                 1.8814

                     37                     38                     39
                      A                      A                      A
 Frequencies --   1269.8826              1340.3662              1344.4782
 Red. masses --      2.0432                 1.3103                 1.3698
 Frc consts  --      1.9412                 1.3869                 1.4588
 IR Inten    --      1.8914                 4.1137                 0.4915

                     40                     41                     42
                      A                      A                      A
 Frequencies --   1360.4136              1394.3309              1417.7336
 Red. masses --      1.3682                 1.2237                 1.5328
 Frc consts  --      1.4919                 1.4017                 1.8153
 IR Inten    --      1.8664                 1.1255                 1.4056

                     43                     44                     45
                      A                      A                      A
 Frequencies --   1436.6753              1464.1003              1480.8720
 Red. masses --      1.2877                 1.2962                 1.1730
 Frc consts  --      1.5659                 1.6371                 1.5156
 IR Inten    --      5.5679                 0.3637                 0.4573

                     46                     47                     48
                      A                      A                      A
 Frequencies --   1485.1030              1509.4980              1516.6494
 Red. masses --      1.2378                 1.1274                 1.0509
 Frc consts  --      1.6085                 1.5136                 1.4243
 IR Inten    --      3.7078                 8.8067                 5.6257

                     49                     50                     51
                      A                      A                      A
 Frequencies --   1527.2200              1532.2715              1550.0037
 Red. masses --      1.0539                 1.0999                 1.0518
 Frc consts  --      1.4483                 1.5215                 1.4888
 IR Inten    --      9.9819                 0.8907                 8.3285

                     52                     53                     54
                      A                      A                      A
 Frequencies --   1646.6050              1694.9650              1706.1661
 Red. masses --      4.2691                 4.0865                 4.1977
 Frc consts  --      6.8196                 6.9171                 7.1995
 IR Inten    --      0.9172                 5.3892                15.7560

                     55                     56                     57
                      A                      A                      A
 Frequencies --   2988.1609              3060.5132              3075.9436
 Red. masses --      1.0541                 1.0345                 1.0803
 Frc consts  --      5.5454                 5.7092                 6.0222
 IR Inten    --     60.1344                20.3854                39.1257

                     58                     59                     60
                      A                      A                      A
 Frequencies --   3082.3464              3119.8185              3130.4128
 Red. masses --      1.0830                 1.1025                 1.1012
 Frc consts  --      6.0624                 6.3224                 6.3578
 IR Inten    --     14.9945                29.0267                25.0410

                     61                     62                     63
                      A                      A                      A
 Frequencies --   3132.0914              3137.8633              3142.0716
 Red. masses --      1.0872                 1.1037                 1.0861
 Frc consts  --      6.2839                 6.4030                 6.3175
 IR Inten    --      2.1012                29.1680                29.5528

                     64                     65                     66
                      A                      A                      A
 Frequencies --   3164.2653              3179.4221              3194.8195
 Red. masses --      1.0593                 1.0616                 1.0889
 Frc consts  --      6.2489                 6.3229                 6.5486
 IR Inten    --      9.7433                 6.2981                15.6189

                     67                     68                     69
                      A                      A                      A
 Frequencies --   3250.9279              3253.7583              3525.6433
 Red. masses --      1.1155                 1.1152                 1.0729
 Frc consts  --      6.9458                 6.9563                 7.8574
 IR Inten    --     15.6713                19.6676                 0.7771

 - Thermochemistry -
 -------------------
 Temperature   298.150 Kelvin.  Pressure   1.00000 Atm.
 Atom     1 has atomic number  6 and mass  12.00000

 Molecular mass:   137.12045 amu.
 Principal axes and moments of inertia in atomic units:
                           1         2         3
     Eigenvalues --  1260.532881860.472782263.04677
           X            1.00000  -0.00125   0.00004
           Y            0.00125   0.99996   0.00914
           Z           -0.00006  -0.00914   0.99996
 This molecule is an asymmetric top.
 Rotational symmetry number  1.
 Warning -- assumption of classical behavior for rotation
           may cause significant error
 Rotational temperatures (Kelvin)      0.06871     0.04655     0.03827
 Rotational constants (GHZ):           1.43173     0.97004     0.79748
 Zero-point vibrational energy     584193.8 (Joules/Mol)
                                  139.62566 (Kcal/Mol)
 Warning -- explicit consideration of  17 degrees of freedom as
           vibrations may cause significant error
 Vibrational temperatures:     51.81   108.59   143.35   182.46   231.01
          (Kelvin)            302.25   304.85   323.41   368.99   383.71
                              425.36   524.16   608.61   641.49   743.46
                              783.44   844.62   979.27  1067.16  1075.16
                             1180.00  1302.16  1313.50  1317.54  1340.16
                             1409.82  1463.21  1481.70  1489.79  1505.19
                             1574.66  1596.09  1674.65  1678.26  1690.38
                             1778.94  1827.08  1928.49  1934.40  1957.33
                             2006.13  2039.80  2067.06  2106.51  2130.64
                             2136.73  2171.83  2182.12  2197.33  2204.60
                             2230.11  2369.10  2438.68  2454.79  4299.30
                             4403.40  4425.60  4434.81  4488.72  4503.97
                             4506.38  4514.69  4520.74  4552.67  4574.48
                             4596.63  4677.36  4681.43  5072.61

 Zero-point correction=                           0.222508 (Hartree/Particle)
 Thermal correction to Energy=                    0.234469
 Thermal correction to Enthalpy=                  0.235413
 Thermal correction to Gibbs Free Energy=         0.184619
 Sum of electronic and zero-point Energies=           -406.489728
 Sum of electronic and thermal Energies=              -406.477767
 Sum of electronic and thermal Enthalpies=            -406.476823
 Sum of electronic and thermal Free Energies=         -406.527617

                     E (Thermal)             CV                S
                      KCal/Mol        Cal/Mol-Kelvin    Cal/Mol-Kelvin
 Total                  147.131             43.685            106.905
 Electronic               0.000              0.000              0.000
 Translational            0.889              2.981             40.659
 Rotational               0.889              2.981             30.052
 Vibrational            145.354             37.723             36.194
 Vibration     1          0.594              1.982              5.467
 Vibration     2          0.599              1.965              4.005
 Vibration     3          0.604              1.949              3.461
 Vibration     4          0.611              1.926              2.994
 Vibration     5          0.622              1.891              2.543
 Vibration     6          0.642              1.825              2.043
 Vibration     7          0.643              1.823              2.027
 Vibration     8          0.649              1.803              1.920
 Vibration     9          0.666              1.752              1.686
 Vibration    10          0.672              1.734              1.618
 Vibration    11          0.690              1.682              1.441
 Vibration    12          0.738              1.546              1.104
 Vibration    13          0.785              1.420              0.882
 Vibration    14          0.805              1.370              0.808
 Vibration    15          0.872              1.213              0.618
 Vibration    16          0.900              1.152              0.556
 Vibration    17          0.944              1.059              0.472

 Optimization completed.
    -- Stationary point found.

 1\1\GINC-NODE313\Freq\RB3LYP\6-31G(d)\C9H15N1\VSC10255\08-Dec-2020\0\\
 #N Geom=AllCheck Guess=TCheck SCRF=Check GenChk RB3LYP/6-31G(d) Freq\\
 CID_118186756_JID_469_neutraal\\0,1\C,0.9601469952,0.0278751818,-0.003
 7363404\C,0.8596244908,1.4134652777,0.6459993758\C,1.1578706301,2.5357
 156464,-0.3577668772\C,0.3259499806,2.8940980377,-1.371660152\C,-0.947
 2426528,2.3151166378,-1.7538539056\C,-1.7067811185,2.7987670696,-2.751
 2292033\C,2.4091821442,3.2842818616,-0.2355557805\C,3.4019188361,3.107
 7528947,0.6510568702\N,-0.3999636061,1.5354358945,1.3880818791\C,-0.53

 Normal termination of Gaussian 16 at Tue Dec  8 10:44:55 2020.

 ----------------------------------------------------------------------
 # B3LYP/6-311++G(d,p) empiricaldispersion=gd3bj scf=xqc pop=npa geom=c
 heck
 ----------------------------------------------------------------------

 --------------------------------------
 CID_118186756_JID_469_Energie_neutraal
 --------------------------------------
 Structure from the checkpoint file:  "JID_469.chk"
 Charge =  0 Multiplicity = 1

 SCF Done:  E(RB3LYP) =  -406.832040533     A.U. after   15 cycles
 Normal termination of Gaussian 16 at Tue Dec  8 10:50:31 2020.

 ----------------------------------------------------------------------
 # B3LYP/6-311++G(d,p) empiricaldispersion=gd3bj scf=xqc pop=npa geom=c
 heck
 ----------------------------------------------------------------------

 ------------------------------------
 CID_118186756_JID_469_Energie_kation
 ------------------------------------
 Structure from the checkpoint file:  "JID_469.chk"
 Charge =  1 Multiplicity = 2

 SCF Done:  E(UB3LYP) =  -406.548266205     A.U. after   22 cycles
 Normal termination of Gaussian 16 at Tue Dec  8 10:56:05 2020.
 Gaussian 16:  ES64L-G16RevA.03 25-Dec-2016

 -----------------------------------
 CID_118186756_JID_469_Energie_anion
 -----------------------------------
 Structure from the checkpoint file:  "JID_469.chk"
 Charge = -1 Multiplicity = 2

                         Standard orientation:
 ---------------------------------------------------------------------
 Center     Atomic      Atomic             Coordinates (Angstroms)
 Number     Number       Type             X           Y           Z
 ---------------------------------------------------------------------
      1          6           0        0.430763    0.862795    2.042889
      2          6           0        0.763462    0.694049    0.555288
      3          6           0        0.308466   -0.671303    0.021681
      4          6           0       -0.990865   -1.019027   -0.176655
      5          6           0       -2.190913   -0.249454    0.087834
      6          6           0       -3.426828   -0.688004   -0.205017
      7          6           0        1.317996   -1.679106   -0.304275
      8          6           0        2.651441   -1.595388   -0.171286
      9          7           0        0.305154    1.863463   -0.202703
     10          6           0        0.662300    1.823976   -1.616781
     11          1           0       -0.649290    0.852422    2.222094
     12          1           0        0.830969    1.815012    2.404078
     13          1           0        0.868306    0.045774    2.625498
     14          1           0        1.853676    0.725041    0.470215
     15          1           0       -1.179987   -2.012030   -0.586982
     16          1           0       -2.094000    0.720662    0.566490
     17          1           0       -4.310192   -0.096544    0.013656
     18          1           0       -3.588294   -1.655938   -0.674147
     19          1           0        0.912391   -2.614314   -0.692062
     20          1           0        3.285045   -2.432395   -0.447917
     21          1           0        3.162675   -0.717862    0.210996
     22          1           0       -0.702702    1.961357   -0.117211
     23          1           0        0.267073    0.951637   -2.164050
     24          1           0        0.298660    2.734014   -2.104629
     25          1           0        1.754664    1.807687   -1.709178
 ---------------------------------------------------------------------

 SCF Done:  E(UB3LYP) =  -406.835531302     A.U. after   25 cycles

 The electronic state is 2-A.
 Alpha  occ. eigenvalues --  -14.16403 -10.05890 -10.05852 -10.02944 -10.00911
 Alpha  occ. eigenvalues --  -10.00624  -9.99707  -9.99209  -9.99003  -9.98849
 Alpha  occ. eigenvalues --   -0.77292  -0.65871  -0.61809  -0.60596  -0.55312
 Alpha  occ. eigenvalues --   -0.53119  -0.48416  -0.44707  -0.39441  -0.38617
 Alpha  occ. eigenvalues --   -0.34040  -0.33387  -0.31189  -0.30177  -0.28819
 Alpha  occ. eigenvalues --   -0.27318  -0.26280  -0.25510  -0.24170  -0.22797
 Alpha  occ. eigenvalues --   -0.22438  -0.19912  -0.19568  -0.18383  -0.17035
 Alpha  occ. eigenvalues --   -0.13397  -0.09347  -0.05968   0.05615
 Alpha virt. eigenvalues --    0.09259   0.10144   0.10273   0.10502   0.11923
 Alpha virt. eigenvalues --    0.12051   0.13159   0.13735   0.14207   0.14522
 Alpha virt. eigenvalues --    0.14752   0.15890   0.16439   0.17052   0.17557

  Beta  occ. eigenvalues --  -14.16388 -10.05906 -10.05852 -10.02930 -10.00880
  Beta  occ. eigenvalues --  -10.00598  -9.99461  -9.98961  -9.98684  -9.98402
  Beta  occ. eigenvalues --   -0.77248  -0.65395  -0.61363  -0.60301  -0.54728
  Beta  occ. eigenvalues --   -0.53104  -0.48103  -0.43910  -0.39102  -0.38245
  Beta  occ. eigenvalues --   -0.33950  -0.33269  -0.31061  -0.30039  -0.28756
  Beta  occ. eigenvalues --   -0.27092  -0.26141  -0.25424  -0.23966  -0.22729
  Beta  occ. eigenvalues --   -0.22231  -0.19728  -0.19357  -0.18130  -0.15652
  Beta  occ. eigenvalues --   -0.11711  -0.09259  -0.03599
  Beta virt. eigenvalues --    0.09186   0.10103   0.10221   0.10457   0.11468
  Beta virt. eigenvalues --    0.11859   0.12052   0.13089   0.13819   0.14158
  Beta virt. eigenvalues --    0.14483   0.14772   0.16053   0.16923   0.17078

 Mulliken charges and spin densities:
               1          2
     1  C   -0.599011   0.002816
     2  C   -0.629863  -0.058825
     3  C    0.853183   0.135630
     4  C   -0.492193   0.293785
     5  C    0.175690  -0.116832
     6  C   -0.785483   0.533464
     7  C    0.132759  -0.086848
     8  C   -0.835944   0.351736
     9  N    0.007101   0.015859
    10  C   -0.391490  -0.029323
    11  H    0.108409   0.003085
    12  H    0.111654   0.006150
    13  H    0.136205  -0.000306
    14  H    0.115739   0.011070
    15  H    0.099428  -0.007501
    16  H    0.042885  -0.008326
    17  H    0.089895  -0.019042
    18  H    0.058315  -0.019588
    19  H    0.090394  -0.004426
    20  H    0.095804  -0.013378
    21  H    0.066717  -0.018764
    22  H    0.196044  -0.000636
    23  H    0.150293   0.004824
    24  H    0.109739  -0.001983
    25  H    0.093730   0.027360
 Sum of Mulliken charges =  -1.00000   1.00000

 Dipole moment (field-independent basis, Debye):
    X=              1.1342    Y=              2.7128    Z=              0.1911  Tot=              2.9466
 Quadrupole moment (field-independent basis, Debye-Ang):
   XX=           -102.0033   YY=            -81.1980   ZZ=            -76.7688
   XY=             -0.1767   XZ=              0.5184   YZ=              0.7916

 Summary of Natural Population Analysis:

                                       Natural Population
                Natural  -----------------------------------------------
    Atom  No    Charge         Core      Valence    Rydberg      Total
 -----------------------------------------------------------------------
      C    1   -0.27897      0.99965     2.27473    0.00459     3.27897
      C    2   -0.01979      0.99957     2.00565    0.01457     3.01979
      C    3   -0.00644      0.99945     1.99345    0.01353     3.00644
      C    4   -0.05430      0.99949     2.04584    0.00898     3.05430
      C    5   -0.12171      0.99956     2.11306    0.00910     3.12171
      C    6   -0.10567      0.99960     2.09647    0.00960     3.10567
      C    7   -0.09457      0.99955     2.08514    0.00988     3.09457
      C    8   -0.16042      0.99959     2.15162    0.00921     3.16042
      N    9   -0.34394      0.99974     2.83032    0.01388     3.84394
      C   10   -0.17816      0.99967     2.17180    0.00669     3.17816
      H   11    0.09643      0.00000     0.40261    0.00096     0.40357
      H   12    0.09128      0.00000     0.40754    0.00118     0.40872
      H   13    0.10023      0.00000     0.39911    0.00066     0.39977
      H   14    0.09193      0.00000     0.40639    0.00168     0.40807
      H   15    0.08053      0.00000     0.41743    0.00204     0.41947
      H   16    0.07718      0.00000     0.42085    0.00197     0.42282
      H   17    0.07669      0.00000     0.42226    0.00105     0.42331
      H   18    0.07624      0.00000     0.42261    0.00115     0.42376
      H   19    0.08311      0.00000     0.41514    0.00175     0.41689
      H   20    0.08064      0.00000     0.41825    0.00111     0.41936
      H   21    0.07747      0.00000     0.42145    0.00108     0.42253
      H   22    0.17190      0.00000     0.32595    0.00215     0.32810
      H   23    0.08893      0.00000     0.40951    0.00155     0.41107
      H   24    0.08401      0.00000     0.41513    0.00086     0.41599
      H   25    0.08739      0.00000     0.41112    0.00149     0.41261
 =======================================================================
   * Total *    0.00000      9.99587    27.88342    0.12071    38.00000

 Normal termination of Gaussian 16 at Tue Dec  8 11:00:00 2020.
