 Gaussian 16, Revision A.03,

 -----------------------------------------------------------
 # opt freq B3LYP/6-31G(d) empiricaldispersion=gd3bj scf=xqc
 -----------------------------------------------------------

 ------------------------------
 CID_130791775_JID_809_neutraal
 ------------------------------
 Symbolic Z-matrix:
 Charge =  0 Multiplicity = 1

 SCF Done:  E(RB3LYP) =  -798.941112458     A.U. after   14 cycles
 SCF Done:  E(RB3LYP) =  -798.948705464     A.U. after   13 cycles
 SCF Done:  E(RB3LYP) =  -798.942085784     A.U. after   14 cycles
 SCF Done:  E(RB3LYP) =  -798.944976926     A.U. after   13 cycles
 SCF Done:  E(RB3LYP) =  -798.950489234     A.U. after   10 cycles
 SCF Done:  E(RB3LYP) =  -798.951851098     A.U. after   12 cycles
 SCF Done:  E(RB3LYP) =  -798.952014633     A.U. after   10 cycles
 SCF Done:  E(RB3LYP) =  -798.952061869     A.U. after   10 cycles
 SCF Done:  E(RB3LYP) =  -798.952073978     A.U. after    9 cycles
 SCF Done:  E(RB3LYP) =  -798.952076192     A.U. after    8 cycles
 SCF Done:  E(RB3LYP) =  -798.952076669     A.U. after    7 cycles
 SCF Done:  E(RB3LYP) =  -798.952076822     A.U. after    7 cycles
 Optimization completed.
    -- Stationary point found.
 Normal termination of Gaussian 16 at Tue Dec  8 12:49:40 2020.

 --------------------------------------------------------------------
 #N Geom=AllCheck Guess=TCheck SCRF=Check GenChk RB3LYP/6-31G(d) Freq
 --------------------------------------------------------------------

 Structure from the checkpoint file:  "JID_809.chk"
 ------------------------------
 CID_130791775_JID_809_neutraal
 ------------------------------
 Charge =  0 Multiplicity = 1

 SCF Done:  E(RB3LYP) =  -798.952076822     A.U. after    1 cycles

  Exact polarizability: 118.713   0.657  83.722  -3.781   2.695  91.487
 Approx polarizability: 153.194   3.100 124.480  -8.213   8.018 153.039

                      1                      2                      3
                      A                      A                      A
 Frequencies --     75.3026               101.7695               116.2645
 Red. masses --      3.4284                 4.8550                 3.9237
 Frc consts  --      0.0115                 0.0296                 0.0312
 IR Inten    --      1.5661                 5.4584                 2.4312

                      4                      5                      6
                      A                      A                      A
 Frequencies --    176.9378               215.4303               247.7669
 Red. masses --      2.6546                 3.6077                 1.0886
 Frc consts  --      0.0490                 0.0986                 0.0394
 IR Inten    --      3.0707                 1.4519                 0.3057

                      7                      8                      9
                      A                      A                      A
 Frequencies --    269.7899               336.8246               395.0182
 Red. masses --      2.8757                 3.5355                 1.9181
 Frc consts  --      0.1233                 0.2363                 0.1763
 IR Inten    --      0.5053                 1.6020                24.9701

                     10                     11                     12
                      A                      A                      A
 Frequencies --    404.3360               438.3832               458.5569
 Red. masses --      1.3609                 2.1950                 3.0563
 Frc consts  --      0.1311                 0.2485                 0.3786
 IR Inten    --     33.6751                23.5439                17.2156

                     13                     14                     15
                      A                      A                      A
 Frequencies --    473.7934               507.0609               566.2493
 Red. masses --      2.6676                 1.5943                 3.8431
 Frc consts  --      0.3528                 0.2415                 0.7260
 IR Inten    --     16.1618                41.5873                 0.5779

                     16                     17                     18
                      A                      A                      A
 Frequencies --    632.9255               640.2688               679.6041
 Red. masses --      3.1041                 1.8798                 2.2471
 Frc consts  --      0.7326                 0.4540                 0.6115
 IR Inten    --      7.6850                81.8020                60.2658

                     19                     20                     21
                      A                      A                      A
 Frequencies --    709.5337               730.8779               805.3162
 Red. masses --      1.9174                 4.0669                 2.5717
 Frc consts  --      0.5687                 1.2800                 0.9827
 IR Inten    --     93.3549                 9.7723               129.7261

                     22                     23                     24
                      A                      A                      A
 Frequencies --    813.3867               903.2358               919.5607
 Red. masses --      2.3333                 2.0037                 2.0274
 Frc consts  --      0.9095                 0.9631                 1.0101
 IR Inten    --    160.2780                 3.8321                 6.8116

                     25                     26                     27
                      A                      A                      A
 Frequencies --    931.1851               972.9499              1036.4405
 Red. masses --      2.0548                 1.6834                 3.1807
 Frc consts  --      1.0498                 0.9389                 2.0131
 IR Inten    --      1.8765                 1.8880                 0.3605

                     28                     29                     30
                      A                      A                      A
 Frequencies --   1054.2248              1071.9636              1120.0898
 Red. masses --      1.7083                 2.1195                 1.4131
 Frc consts  --      1.1186                 1.4350                 1.0446
 IR Inten    --      7.4143                11.3344                 9.4281

                     31                     32                     33
                      A                      A                      A
 Frequencies --   1124.6954              1144.2170              1173.7379
 Red. masses --      2.2515                 1.6237                 1.2212
 Frc consts  --      1.6780                 1.2524                 0.9913
 IR Inten    --      2.1526                 6.1800                10.5865

                     34                     35                     36
                      A                      A                      A
 Frequencies --   1199.1372              1263.5320              1279.3136
 Red. masses --      1.4188                 1.4030                 1.6334
 Frc consts  --      1.2021                 1.3197                 1.5750
 IR Inten    --      0.8360                 9.0315                33.9432

                     37                     38                     39
                      A                      A                      A
 Frequencies --   1308.8107              1319.1089              1361.6664
 Red. masses --      1.2989                 1.3122                 1.2273
 Frc consts  --      1.3110                 1.3453                 1.3408
 IR Inten    --      4.2561                11.8876                 1.5982

                     40                     41                     42
                      A                      A                      A
 Frequencies --   1390.6603              1400.2186              1430.7459
 Red. masses --      1.3941                 1.2958                 2.8936
 Frc consts  --      1.5885                 1.4969                 3.4899
 IR Inten    --      8.9443                13.5733               141.4750

                     43                     44                     45
                      A                      A                      A
 Frequencies --   1439.7604              1515.9929              1520.1937
 Red. masses --      1.2533                 1.0818                 1.0845
 Frc consts  --      1.5307                 1.4648                 1.4767
 IR Inten    --      4.2356                 3.5246                 1.7249

                     46                     47                     48
                      A                      A                      A
 Frequencies --   1523.3815              1529.0323              1657.9708
 Red. masses --      1.0563                 1.0437                 1.2431
 Frc consts  --      1.4443                 1.4377                 2.0133
 IR Inten    --      3.8521                 7.4783                49.6932

                     49                     50                     51
                      A                      A                      A
 Frequencies --   1691.1697              1757.0354              3048.8533
 Red. masses --      1.2574                 3.4270                 1.0832
 Frc consts  --      2.1188                 6.2335                 5.9325
 IR Inten    --     89.1779               351.7889                10.3805

                     52                     53                     54
                      A                      A                      A
 Frequencies --   3050.3148              3050.7901              3062.8334
 Red. masses --      1.0388                 1.0844                 1.0593
 Frc consts  --      5.6946                 5.9464                 5.8548
 IR Inten    --     22.2852                27.6986                28.3544

                     55                     56                     57
                      A                      A                      A
 Frequencies --   3090.0881              3106.2819              3117.6577
 Red. masses --      1.0639                 1.1039                 1.1020
 Frc consts  --      5.9856                 6.2757                 6.3111
 IR Inten    --     30.1573                25.5938                30.7050

                     58                     59                     60
                      A                      A                      A
 Frequencies --   3127.2213              3151.1714              3493.3700
 Red. masses --      1.1030                 1.1046                 1.0541
 Frc consts  --      6.3554                 6.4624                 7.5793
 IR Inten    --     29.6879                 8.4235               142.5290

                     61                     62                     63
                      A                      A                      A
 Frequencies --   3523.6551              3622.7574              3633.1953
 Red. masses --      1.0494                 1.0948                 1.0952
 Frc consts  --      7.6767                 8.4659                 8.5174
 IR Inten    --      5.4809                60.2841                16.2677

 - Thermochemistry -
 -------------------
 Temperature   298.150 Kelvin.  Pressure   1.00000 Atm.
 Atom     1 has atomic number  6 and mass  12.00000

 Molecular mass:   159.08302 amu.
 Principal axes and moments of inertia in atomic units:
                           1         2         3
     Eigenvalues --   868.740512575.928242673.10474
           X            0.99958  -0.02866  -0.00376
           Y            0.02772   0.98732  -0.15632
           Z            0.00819   0.15615   0.98770
 This molecule is an asymmetric top.
 Rotational symmetry number  1.
 Warning -- assumption of classical behavior for rotation
           may cause significant error
 Rotational temperatures (Kelvin)      0.09970     0.03362     0.03240
 Rotational constants (GHZ):           2.07742     0.70062     0.67515
 Zero-point vibrational energy     525840.2 (Joules/Mol)
                                  125.67883 (Kcal/Mol)
 Warning -- explicit consideration of  15 degrees of freedom as
           vibrations may cause significant error
 Vibrational temperatures:    108.34   146.42   167.28   254.57   309.96
          (Kelvin)            356.48   388.17   484.62   568.34   581.75
                              630.74   659.76   681.68   729.55   814.71
                              910.64   921.20   977.80  1020.86  1051.57
                             1158.67  1170.28  1299.55  1323.04  1339.77
                             1399.86  1491.21  1516.79  1542.32  1611.56
                             1618.19  1646.27  1688.75  1725.29  1817.94
                             1840.65  1883.09  1897.90  1959.13  2000.85
                             2014.60  2058.52  2071.49  2181.18  2187.22
                             2191.81  2199.94  2385.45  2433.22  2527.98
                             4386.62  4388.72  4389.41  4406.73  4445.95
                             4469.25  4485.61  4499.37  4533.83  5026.18
                             5069.75  5212.34  5227.36

 Zero-point correction=                           0.200282 (Hartree/Particle)
 Thermal correction to Energy=                    0.210841
 Thermal correction to Enthalpy=                  0.211785
 Thermal correction to Gibbs Free Energy=         0.164502
 Sum of electronic and zero-point Energies=           -798.751795
 Sum of electronic and thermal Energies=              -798.741236
 Sum of electronic and thermal Enthalpies=            -798.740292
 Sum of electronic and thermal Free Energies=         -798.787575

                     E (Thermal)             CV                S
                      KCal/Mol        Cal/Mol-Kelvin    Cal/Mol-Kelvin
 Total                  132.304             41.062             99.515
 Electronic               0.000              0.000              0.000
 Translational            0.889              2.981             41.102
 Rotational               0.889              2.981             30.171
 Vibrational            130.527             35.101             28.242
 Vibration     1          0.599              1.965              4.010
 Vibration     2          0.604              1.948              3.420
 Vibration     3          0.608              1.936              3.162
 Vibration     4          0.628              1.871              2.360
 Vibration     5          0.645              1.818              1.997
 Vibration     6          0.661              1.766              1.746
 Vibration     7          0.674              1.729              1.598
 Vibration     8          0.718              1.602              1.227
 Vibration     9          0.762              1.481              0.981
 Vibration    10          0.770              1.461              0.947
 Vibration    11          0.799              1.386              0.832
 Vibration    12          0.817              1.342              0.770
 Vibration    13          0.831              1.308              0.727
 Vibration    14          0.862              1.234              0.641
 Vibration    15          0.922              1.104              0.512

 Optimization completed.
    -- Stationary point found.
 Normal termination of Gaussian 16 at Tue Dec  8 13:04:03 2020.

 ----------------------------------------------------------------------
 # B3LYP/6-311++G(d,p) empiricaldispersion=gd3bj scf=xqc pop=npa geom=c
 heck
 ----------------------------------------------------------------------

 --------------------------------------
 CID_130791775_JID_809_Energie_neutraal
 --------------------------------------
 Structure from the checkpoint file:  "JID_809.chk"
 Charge =  0 Multiplicity = 1

 SCF Done:  E(RB3LYP) =  -799.106622413     A.U. after   14 cycles
 Normal termination of Gaussian 16 at Tue Dec  8 13:08:28 2020.

 ----------------------------------------------------------------------
 # B3LYP/6-311++G(d,p) empiricaldispersion=gd3bj scf=xqc pop=npa geom=c
 heck
 ----------------------------------------------------------------------

 ------------------------------------
 CID_130791775_JID_809_Energie_kation
 ------------------------------------
 Structure from the checkpoint file:  "JID_809.chk"
 Charge =  1 Multiplicity = 2

 SCF Done:  E(UB3LYP) =  -798.810894007     A.U. after   26 cycles
 Normal termination of Gaussian 16 at Tue Dec  8 13:17:02 2020.
 Gaussian 16:  ES64L-G16RevA.03 25-Dec-2016

 ----------------------------------------------------------------------
 # B3LYP/6-311++G(d,p) empiricaldispersion=gd3bj scf=xqc pop=npa geom=c
 heck
 ----------------------------------------------------------------------

 -----------------------------------
 CID_130791775_JID_809_Energie_anion
 -----------------------------------
 Structure from the checkpoint file:  "JID_809.chk"
 Charge = -1 Multiplicity = 2

                         Standard orientation:
 ---------------------------------------------------------------------
 Center     Atomic      Atomic             Coordinates (Angstroms)
 Number     Number       Type             X           Y           Z
 ---------------------------------------------------------------------
      1          6           0        2.838631   -1.376669    0.623643
      2          6           0        2.005477   -0.493792   -0.297337
      3          6           0        0.635997   -1.069776   -0.657172
      4          6           0       -0.268644    0.052425   -1.236420
      5          6           0        0.275237    1.438260   -0.738183
      6         16           0        1.603374    1.128261    0.498445
      7          7           0       -1.685503   -0.180774   -1.015810
      8          6           0       -2.184634   -0.156766    0.167344
      9          7           0       -1.604181    0.257611    1.361257
     10          7           0       -3.508019   -0.580429    0.347346
     11          1           0        3.054211   -2.332740    0.132609
     12          1           0        2.298771   -1.584112    1.554166
     13          1           0        3.793579   -0.905491    0.877997
     14          1           0        2.573822   -0.273763   -1.209714
     15          1           0        0.730367   -1.896505   -1.370671
     16          1           0        0.177403   -1.478837    0.249782
     17          1           0       -0.137667    0.054205   -2.323950
     18          1           0       -0.509366    2.037240   -0.272276
     19          1           0        0.689990    2.010941   -1.571902
     20          1           0       -1.951690   -0.218365    2.184906
     21          1           0       -0.595620    0.383310    1.372423
     22          1           0       -3.949538   -0.725473   -0.553802
     23          1           0       -4.056703    0.040463    0.934497
 ---------------------------------------------------------------------

 SCF Done:  E(UB3LYP) =  -799.091473097     A.U. after   31 cycles

 The electronic state is 2-A.
 Alpha  occ. eigenvalues --  -88.73608 -14.21322 -14.20585 -14.16473 -10.15910
 Alpha  occ. eigenvalues --  -10.10396 -10.10146 -10.09456 -10.06703 -10.06641
 Alpha  occ. eigenvalues --   -7.82262  -5.78613  -5.78302  -5.77661  -0.86840
 Alpha  occ. eigenvalues --   -0.77239  -0.76103  -0.72790  -0.65244  -0.61568
 Alpha  occ. eigenvalues --   -0.56820  -0.50446  -0.47462  -0.46436  -0.42492
 Alpha  occ. eigenvalues --   -0.40669  -0.37467  -0.36054  -0.34569  -0.34452
 Alpha  occ. eigenvalues --   -0.32994  -0.31376  -0.28985  -0.27980  -0.25800
 Alpha  occ. eigenvalues --   -0.25323  -0.24856  -0.23128  -0.21224  -0.16714
 Alpha  occ. eigenvalues --   -0.14433  -0.12939  -0.12230   0.04644
 Alpha virt. eigenvalues --    0.06251   0.07377   0.08802   0.09098   0.09360
 Alpha virt. eigenvalues --    0.10157   0.11337   0.11690   0.12145   0.12543
 Alpha virt. eigenvalues --    0.12780   0.13295   0.14607   0.14735   0.16304

  Beta  occ. eigenvalues --  -88.73603 -14.21274 -14.20530 -14.16468 -10.15908
  Beta  occ. eigenvalues --  -10.10379 -10.10140 -10.09444 -10.06684 -10.06601
  Beta  occ. eigenvalues --   -7.82256  -5.78608  -5.78296  -5.77655  -0.86800
  Beta  occ. eigenvalues --   -0.77199  -0.76019  -0.72758  -0.65205  -0.61532
  Beta  occ. eigenvalues --   -0.56756  -0.50392  -0.47409  -0.46368  -0.42408
  Beta  occ. eigenvalues --   -0.40612  -0.37421  -0.35995  -0.34520  -0.34409
  Beta  occ. eigenvalues --   -0.32952  -0.31347  -0.28943  -0.27940  -0.25765
  Beta  occ. eigenvalues --   -0.25282  -0.24817  -0.23092  -0.21189  -0.16656
  Beta  occ. eigenvalues --   -0.14417  -0.12914  -0.12204
  Beta virt. eigenvalues --    0.07015   0.07651   0.07988   0.09296   0.09746
  Beta virt. eigenvalues --    0.09997   0.10776   0.11523   0.11923   0.12519
  Beta virt. eigenvalues --    0.12953   0.13023   0.13761   0.14715   0.14971

 Mulliken charges and spin densities:
               1          2
     1  C    1.300917  -2.028579
     2  C   -1.124312   1.222904
     3  C    0.263020  -0.817885
     4  C    0.320180  -0.201412
     5  C   -0.496577  -0.253701
     6  S    0.301041  -0.263634
     7  N   -0.040755  -0.098373
     8  C    0.541068  -0.789524
     9  N   -0.208776  -0.124956
    10  N   -0.518826   0.263157
    11  H   -0.350216   0.495801
    12  H   -0.162738   0.305817
    13  H   -0.320624   0.473194
    14  H   -0.269200   0.502675
    15  H    0.057615   0.094281
    16  H    0.016861   0.222280
    17  H   -0.107120   0.350806
    18  H    0.043504   0.192822
    19  H    0.139933   0.064010
    20  H   -0.396478   0.667368
    21  H    0.479668  -0.241076
    22  H    0.022440   0.225386
    23  H   -0.490624   0.738639
 Sum of Mulliken charges =  -1.00000   1.00000

 Dipole moment (field-independent basis, Debye):
    X=              2.1845    Y=              2.3319    Z=             -1.9532  Tot=              3.7450
 Quadrupole moment (field-independent basis, Debye-Ang):
   XX=           -143.8512   YY=           -100.1413   ZZ=           -105.4411
   XY=              4.6002   XZ=              8.9683   YZ=             -0.5737

 Summary of Natural Population Analysis:

                                       Natural Population
                Natural  -----------------------------------------------
    Atom  No    Charge         Core      Valence    Rydberg      Total
 -----------------------------------------------------------------------
      C    1   -0.28843      0.99963     2.28189    0.00690     3.28843
      C    2   -0.15946      0.99959     2.14623    0.01363     3.15946
      C    3   -0.19868      0.99958     2.18891    0.01019     3.19868
      C    4   -0.02168      0.99958     2.00745    0.01465     3.02168
      C    5   -0.25419      0.99959     2.24637    0.00824     3.25419
      S    6    0.07525      4.99962     2.90857    0.01656     7.92475
      N    7   -0.31155      0.99965     2.80045    0.01145     3.81155
      C    8    0.30586      0.99962     1.67708    0.01744     2.69414
      N    9   -0.42635      0.99971     2.91593    0.01072     3.92635
      N   10   -0.40888      0.99972     2.89839    0.01076     3.90888
      H   11    0.10469      0.00000     0.39369    0.00162     0.39531
      H   12    0.10147      0.00000     0.39709    0.00144     0.39853
      H   13    0.10247      0.00000     0.39621    0.00132     0.39753
      H   14    0.09768      0.00000     0.40046    0.00185     0.40232
      H   15    0.10643      0.00000     0.39228    0.00129     0.39357
      H   16    0.10135      0.00000     0.39683    0.00182     0.39865
      H   17    0.09550      0.00000     0.40276    0.00174     0.40450
      H   18    0.11018      0.00000     0.38853    0.00129     0.38982
      H   19    0.10073      0.00000     0.39771    0.00156     0.39927
      H   20    0.19409      0.00000     0.30146    0.00446     0.30591
      H   21    0.19581      0.00000     0.30058    0.00361     0.30419
      H   22    0.19004      0.00000     0.30731    0.00266     0.30996
      H   23    0.18768      0.00000     0.30471    0.00761     0.31232
 =======================================================================
   * Total *   -0.00000     13.99628    28.85091    0.15281    43.00000

 Normal termination of Gaussian 16 at Tue Dec  8 13:26:52 2020.
