 Gaussian 16, Revision A.03,

 -----------------------------------------------------------
 # opt freq B3LYP/6-31G(d) empiricaldispersion=gd3bj scf=xqc
 -----------------------------------------------------------

 ------------------------------
 CID_55074340_JID_9431_neutraal
 ------------------------------
 Symbolic Z-matrix:
 Charge =  0 Multiplicity = 1

 SCF Done:  E(RB3LYP) =  -808.926944644     A.U. after   14 cycles
 SCF Done:  E(RB3LYP) =  -808.934090270     A.U. after   12 cycles
 SCF Done:  E(RB3LYP) =  -808.933912422     A.U. after   12 cycles
 SCF Done:  E(RB3LYP) =  -808.934783789     A.U. after   12 cycles
 SCF Done:  E(RB3LYP) =  -808.936759839     A.U. after   12 cycles
 SCF Done:  E(RB3LYP) =  -808.939150485     A.U. after   13 cycles
 SCF Done:  E(RB3LYP) =  -808.938414090     A.U. after   14 cycles
 SCF Done:  E(RB3LYP) =  -808.939906999     A.U. after   11 cycles
 SCF Done:  E(RB3LYP) =  -808.940174684     A.U. after   11 cycles
 SCF Done:  E(RB3LYP) =  -808.940634790     A.U. after   11 cycles
 SCF Done:  E(RB3LYP) =  -808.943737407     A.U. after   10 cycles
 SCF Done:  E(RB3LYP) =  -808.943738583     A.U. after    9 cycles
 SCF Done:  E(RB3LYP) =  -808.943739081     A.U. after    7 cycles
 SCF Done:  E(RB3LYP) =  -808.943739390     A.U. after    7 cycles
 SCF Done:  E(RB3LYP) =  -808.943739474     A.U. after    7 cycles
 Optimization completed.
    -- Stationary point found.
 Normal termination of Gaussian 16 at Sat Dec 12 09:57:25 2020.

 --------------------------------------------------------------------
 #N Geom=AllCheck Guess=TCheck SCRF=Check GenChk RB3LYP/6-31G(d) Freq
 --------------------------------------------------------------------

 Structure from the checkpoint file:  "JID_9431.chk"
 ------------------------------
 CID_55074340_JID_9431_neutraal
 ------------------------------
 Charge =  0 Multiplicity = 1

 SCF Done:  E(RB3LYP) =  -808.943739474     A.U. after    1 cycles

  Exact polarizability: 228.160 -20.861 198.597  13.794  14.445 127.308
 Approx polarizability: 324.762 -26.801 277.166  37.090  35.758 211.829

                      1                      2                      3
                      A                      A                      A
 Frequencies --     31.1964                41.3053                48.2267
 Red. masses --      3.5697                 3.0298                 2.8087
 Frc consts  --      0.0020                 0.0030                 0.0038
 IR Inten    --      0.2970                 0.0786                 0.1776

                      4                      5                      6
                      A                      A                      A
 Frequencies --     51.7734                54.7025                75.3899
 Red. masses --      2.5776                 3.9789                 4.0567
 Frc consts  --      0.0041                 0.0070                 0.0136
 IR Inten    --      0.3633                 0.0277                 0.1516

                      7                      8                      9
                      A                      A                      A
 Frequencies --    104.5949               135.3339               148.4858
 Red. masses --      3.6162                 2.0990                 2.4087
 Frc consts  --      0.0233                 0.0227                 0.0313
 IR Inten    --      0.2319                 0.0922                 1.1069

                     10                     11                     12
                      A                      A                      A
 Frequencies --    164.7500               177.4646               185.2663
 Red. masses --      2.6838                 2.4532                 3.6156
 Frc consts  --      0.0429                 0.0455                 0.0731
 IR Inten    --      2.6693                 0.7555                 1.3564

                     13                     14                     15
                      A                      A                      A
 Frequencies --    209.7783               229.3260               258.6540
 Red. masses --      1.4202                 1.5734                 1.1999
 Frc consts  --      0.0368                 0.0488                 0.0473
 IR Inten    --      0.9425                 0.3186                 0.5950

                     16                     17                     18
                      A                      A                      A
 Frequencies --    283.6932               302.2799               314.6202
 Red. masses --      3.6635                 2.0403                 1.6439
 Frc consts  --      0.1737                 0.1098                 0.0959
 IR Inten    --      0.9025                 2.3016                 0.2355

                     19                     20                     21
                      A                      A                      A
 Frequencies --    323.9587               351.8499               392.8482
 Red. masses --      3.9670                 3.9699                 1.9641
 Frc consts  --      0.2453                 0.2896                 0.1786
 IR Inten    --      3.1075                 3.2981                 5.0358

                     22                     23                     24
                      A                      A                      A
 Frequencies --    425.3720               440.3064               443.8377
 Red. masses --      2.9186                 2.7439                 3.0527
 Frc consts  --      0.3111                 0.3134                 0.3543
 IR Inten    --      2.4450                 2.1308                 1.0610

                     25                     26                     27
                      A                      A                      A
 Frequencies --    454.6342               530.4672               540.5764
 Red. masses --      2.1786                 3.5347                 3.6013
 Frc consts  --      0.2653                 0.5860                 0.6200
 IR Inten    --      1.0008                 2.6183                 0.8268

                     28                     29                     30
                      A                      A                      A
 Frequencies --    565.5436               584.3229               614.2712
 Red. masses --      4.2522                 4.3619                 6.0594
 Frc consts  --      0.8013                 0.8775                 1.3471
 IR Inten    --      2.2389                 1.1934                 3.9004

                     31                     32                     33
                      A                      A                      A
 Frequencies --    684.1146               730.2559               748.1364
 Red. masses --      4.9230                 4.7564                 3.4741
 Frc consts  --      1.3575                 1.4944                 1.1456
 IR Inten    --      3.1366                11.2687                 5.6563

                     34                     35                     36
                      A                      A                      A
 Frequencies --    759.9176               760.8800               770.2548
 Red. masses --      1.5707                 1.5270                 1.2082
 Frc consts  --      0.5344                 0.5209                 0.4223
 IR Inten    --     34.1589                27.5944                60.2612

                     37                     38                     39
                      A                      A                      A
 Frequencies --    793.0180               811.0645               844.7357
 Red. masses --      4.0653                 1.4214                 2.0053
 Frc consts  --      1.5063                 0.5509                 0.8431
 IR Inten    --     11.6255                44.6142                11.5347

                     40                     41                     42
                      A                      A                      A
 Frequencies --    863.8184               868.7890               888.1837
 Red. masses --      1.4788                 3.3826                 3.4569
 Frc consts  --      0.6501                 1.5043                 1.6067
 IR Inten    --      1.3258                13.2050                 2.1435

                     43                     44                     45
                      A                      A                      A
 Frequencies --    901.3593               909.0584               927.9671
 Red. masses --      2.3976                 2.1475                 1.3544
 Frc consts  --      1.1477                 1.0456                 0.6871
 IR Inten    --      0.4064                 1.4132                 1.7479

                     46                     47                     48
                      A                      A                      A
 Frequencies --    934.7106               969.2085               995.8469
 Red. masses --      1.3170                 1.2268                 1.9385
 Frc consts  --      0.6780                 0.6790                 1.1326
 IR Inten    --      1.1491                 0.0460                50.8826

                     49                     50                     51
                      A                      A                      A
 Frequencies --   1018.4744              1024.9295              1039.4739
 Red. masses --      2.2070                 2.0405                 2.2136
 Frc consts  --      1.3488                 1.2629                 1.4092
 IR Inten    --     10.3619                 6.9053                15.1231

                     52                     53                     54
                      A                      A                      A
 Frequencies --   1049.3759              1086.9763              1096.9811
 Red. masses --      2.0127                 2.1380                 2.2360
 Frc consts  --      1.3059                 1.4883                 1.5853
 IR Inten    --      8.8557                34.0537                 5.5557

                     55                     56                     57
                      A                      A                      A
 Frequencies --   1106.8609              1128.1120              1130.2954
 Red. masses --      2.2801                 2.5656                 1.5450
 Frc consts  --      1.6458                 1.9237                 1.1629
 IR Inten    --     10.4460                 2.7157                 4.7036

                     58                     59                     60
                      A                      A                      A
 Frequencies --   1143.9482              1172.6583              1174.0261
 Red. masses --      2.6116                 1.7141                 1.6112
 Frc consts  --      2.0136                 1.3888                 1.3084
 IR Inten    --     32.0313                35.5498                 1.0172

                     61                     62                     63
                      A                      A                      A
 Frequencies --   1181.0808              1186.8532              1199.0680
 Red. masses --      1.7534                 1.7384                 1.6802
 Frc consts  --      1.4410                 1.4428                 1.4233
 IR Inten    --     10.7628                25.2855                22.3206

                     64                     65                     66
                      A                      A                      A
 Frequencies --   1219.2718              1258.3743              1272.1365
 Red. masses --      2.4144                 1.7400                 2.0170
 Frc consts  --      2.1148                 1.6233                 1.9232
 IR Inten    --      8.4564                 3.9241                18.7118

                     67                     68                     69
                      A                      A                      A
 Frequencies --   1283.4643              1313.0424              1314.4917
 Red. masses --      1.7967                 1.3290                 1.5780
 Frc consts  --      1.7438                 1.3500                 1.6064
 IR Inten    --      4.7443                 4.6053                11.4762

                     70                     71                     72
                      A                      A                      A
 Frequencies --   1334.0556              1348.5415              1361.5617
 Red. masses --      1.4154                 1.4131                 1.6180
 Frc consts  --      1.4841                 1.5141                 1.7673
 IR Inten    --      5.8222                10.8980                18.9717

                     73                     74                     75
                      A                      A                      A
 Frequencies --   1382.9024              1395.1587              1400.1760
 Red. masses --      2.0852                 1.3681                 1.6284
 Frc consts  --      2.3496                 1.5690                 1.8809
 IR Inten    --      9.4809                26.2031                 4.9619

                     76                     77                     78
                      A                      A                      A
 Frequencies --   1400.9616              1410.9331              1427.2518
 Red. masses --      1.3357                 2.0450                 1.3974
 Frc consts  --      1.5446                 2.3986                 1.6771
 IR Inten    --     22.6464                 9.2029                 4.6402

                     79                     80                     81
                      A                      A                      A
 Frequencies --   1434.7127              1442.7854              1443.5229
 Red. masses --      1.3455                 1.4808                 1.3688
 Frc consts  --      1.6317                 1.8162                 1.6805
 IR Inten    --      5.7480                19.7692                 4.8904

                     82                     83                     84
                      A                      A                      A
 Frequencies --   1480.5242              1497.5066              1504.7279
 Red. masses --      1.1677                 2.2110                 1.1209
 Frc consts  --      1.5081                 2.9212                 1.4953
 IR Inten    --      2.0028                22.9746                11.1513

                     85                     86                     87
                      A                      A                      A
 Frequencies --   1504.9635              1512.8111              1513.6722
 Red. masses --      1.1472                 1.1290                 1.0723
 Frc consts  --      1.5309                 1.5223                 1.4475
 IR Inten    --     29.2011                18.6485                 1.0939

                     88                     89                     90
                      A                      A                      A
 Frequencies --   1520.6512              1524.1623              1525.4411
 Red. masses --      1.0571                 2.3487                 1.1260
 Frc consts  --      1.4402                 3.2147                 1.5438
 IR Inten    --      1.0274                 2.5565                 8.7163

                     91                     92                     93
                      A                      A                      A
 Frequencies --   1529.3998              1531.0527              1532.2456
 Red. masses --      1.0759                 1.0746                 1.0872
 Frc consts  --      1.4828                 1.4842                 1.5039
 IR Inten    --      4.5754                 4.5333                10.4175

                     94                     95                     96
                      A                      A                      A
 Frequencies --   1537.1903              1541.6027              1549.2878
 Red. masses --      1.0742                 1.0743                 1.0590
 Frc consts  --      1.4955                 1.5042                 1.4976
 IR Inten    --     12.2147                12.2077                 4.9121

                     97                     98                     99
                      A                      A                      A
 Frequencies --   1642.0561              1654.0571              1674.5858
 Red. masses --      6.3843                 8.6083                 7.1304
 Frc consts  --     10.1423                13.8762                11.7808
 IR Inten    --      0.8939                14.1450                 0.1870

                    100                    101                    102
                      A                      A                      A
 Frequencies --   2944.6449              2950.3832              2985.0751
 Red. masses --      1.0680                 1.0647                 1.0681
 Frc consts  --      5.4562                 5.4607                 5.6073
 IR Inten    --     25.7891                93.6525                48.5655

                    103                    104                    105
                      A                      A                      A
 Frequencies --   3037.6104              3043.1930              3043.2806
 Red. masses --      1.0893                 1.0609                 1.0596
 Frc consts  --      5.9220                 5.7887                 5.7820
 IR Inten    --     16.4441                34.1906                26.4246

                    106                    107                    108
                      A                      A                      A
 Frequencies --   3045.8339              3047.6701              3052.9244
 Red. masses --      1.0400                 1.0403                 1.0765
 Frc consts  --      5.6846                 5.6929                 5.9114
 IR Inten    --     37.9601                23.5601                 5.7789

                    109                    110                    111
                      A                      A                      A
 Frequencies --   3058.1720              3075.9722              3080.7244
 Red. masses --      1.0810                 1.0962                 1.1027
 Frc consts  --      5.9569                 6.1110                 6.1664
 IR Inten    --     38.4786                40.2462                17.3821

                    112                    113                    114
                      A                      A                      A
 Frequencies --   3090.8860              3109.0083              3111.6319
 Red. masses --      1.0711                 1.1011                 1.1021
 Frc consts  --      6.0292                 6.2710                 6.2869
 IR Inten    --     36.0314                56.0130                43.3935

                    115                    116                    117
                      A                      A                      A
 Frequencies --   3123.1223              3132.5412              3135.5044
 Red. masses --      1.1022                 1.0994                 1.1006
 Frc consts  --      6.3343                 6.3563                 6.3755
 IR Inten    --     51.2984                 9.0233                44.1709

                    118                    119                    120
                      A                      A                      A
 Frequencies --   3136.2865              3188.0601              3201.6460
 Red. masses --      1.1014                 1.0857                 1.0895
 Frc consts  --      6.3831                 6.5012                 6.5799
 IR Inten    --     13.2490                 2.4192                16.6009

                    121                    122                    123
                      A                      A                      A
 Frequencies --   3212.1593              3222.6598              3487.7629
 Red. masses --      1.0943                 1.0954                 1.0739
 Frc consts  --      6.6522                 6.7025                 7.6971
 IR Inten    --     25.6739                13.0183                 0.0504

 - Thermochemistry -
 -------------------
 Temperature   298.150 Kelvin.  Pressure   1.00000 Atm.
 Atom     1 has atomic number  6 and mass  12.00000

 Molecular mass:   260.18886 amu.
 Principal axes and moments of inertia in atomic units:
                           1         2         3
     Eigenvalues --  5062.249885968.29564**********
           X            0.99535   0.09629   0.00093
           Y           -0.09629   0.99535  -0.00300
           Z           -0.00121   0.00290   1.00000
 This molecule is an asymmetric top.
 Rotational symmetry number  1.
 Warning -- assumption of classical behavior for rotation
           may cause significant error
 Rotational temperatures (Kelvin)      0.01711     0.01451     0.00842
 Rotational constants (GHZ):           0.35651     0.30239     0.17554
 Zero-point vibrational energy     999607.4 (Joules/Mol)
                                  238.91189 (Kcal/Mol)
 Warning -- explicit consideration of  30 degrees of freedom as
           vibrations may cause significant error
 Vibrational temperatures:     44.88    59.43    69.39    74.49    78.70
          (Kelvin)            108.47   150.49   194.72   213.64   237.04
                              255.33   266.56   301.82   329.95   372.15
                              408.17   434.91   452.67   466.10   506.23
                              565.22   612.02   633.50   638.58   654.12
                              763.22   777.77   813.69   840.71   883.80
                              984.29  1050.68  1076.40  1093.35  1094.74
                             1108.22  1140.98  1166.94  1215.39  1242.84
                             1249.99  1277.90  1296.86  1307.93  1335.14
                             1344.84  1394.47  1432.80  1465.36  1474.65
                             1495.57  1509.82  1563.92  1578.31  1592.53
                             1623.10  1626.24  1645.89  1687.19  1689.16
                             1699.31  1707.62  1725.19  1754.26  1810.52
                             1830.32  1846.62  1889.18  1891.26  1919.41
                             1940.25  1958.98  1989.69  2007.32  2014.54
                             2015.67  2030.02  2053.50  2064.23  2075.85
                             2076.91  2130.14  2154.58  2164.97  2165.31
                             2176.60  2177.84  2187.88  2192.93  2194.77
                             2200.47  2202.84  2204.56  2211.67  2218.02
                             2229.08  2362.55  2379.82  2409.36  4236.69
                             4244.94  4294.86  4370.44  4378.48  4378.60
                             4382.28  4384.92  4392.48  4400.03  4425.64
                             4432.48  4447.10  4473.17  4476.94  4493.48
                             4507.03  4511.29  4512.42  4586.91  4606.45
                             4621.58  4636.69  5018.11

 Zero-point correction=                           0.380730 (Hartree/Particle)
 Thermal correction to Energy=                    0.400125
 Thermal correction to Enthalpy=                  0.401069
 Thermal correction to Gibbs Free Energy=         0.331735
 Sum of electronic and zero-point Energies=           -808.563009
 Sum of electronic and thermal Energies=              -808.543614
 Sum of electronic and thermal Enthalpies=            -808.542670
 Sum of electronic and thermal Free Energies=         -808.612004

                     E (Thermal)             CV                S
                      KCal/Mol        Cal/Mol-Kelvin    Cal/Mol-Kelvin
 Total                  251.082             73.497            145.925
 Electronic               0.000              0.000              0.000
 Translational            0.889              2.981             42.568
 Rotational               0.889              2.981             34.095
 Vibrational            249.305             67.535             69.262
 Vibration     1          0.594              1.983              5.752
 Vibration     2          0.594              1.981              5.195
 Vibration     3          0.595              1.978              4.889
 Vibration     4          0.596              1.977              4.748
 Vibration     5          0.596              1.976              4.640
 Vibration     6          0.599              1.965              4.007
 Vibration     7          0.605              1.946              3.367
 Vibration     8          0.613              1.918              2.869
 Vibration     9          0.618              1.904              2.692
 Vibration    10          0.623              1.886              2.495
 Vibration    11          0.628              1.870              2.355
 Vibration    12          0.631              1.860              2.275
 Vibration    13          0.642              1.826              2.046
 Vibration    14          0.652              1.796              1.884
 Vibration    15          0.667              1.748              1.671
 Vibration    16          0.682              1.704              1.511
 Vibration    17          0.694              1.669              1.404
 Vibration    18          0.702              1.646              1.338
 Vibration    19          0.709              1.628              1.290
 Vibration    20          0.728              1.571              1.158
 Vibration    21          0.760              1.485              0.989
 Vibration    22          0.787              1.415              0.874
 Vibration    23          0.800              1.382              0.826
 Vibration    24          0.803              1.374              0.815
 Vibration    25          0.813              1.351              0.782
 Vibration    26          0.885              1.183              0.586
 Vibration    27          0.896              1.160              0.564
 Vibration    28          0.921              1.106              0.513
 Vibration    29          0.941              1.065              0.477
 Vibration    30          0.974              1.002              0.426

 Optimization completed.
    -- Stationary point found.
 Normal termination of Gaussian 16 at Sat Dec 12 10:19:42 2020.

 ----------------------------------------------------------------------
 # B3LYP/6-311++G(d,p) empiricaldispersion=gd3bj scf=xqc pop=npa geom=c
 heck
 ----------------------------------------------------------------------

 --------------------------------------
 CID_55074340_JID_9431_Energie_neutraal
 --------------------------------------
 Structure from the checkpoint file:  "JID_9431.chk"
 Charge =  0 Multiplicity = 1

 SCF Done:  E(RB3LYP) =  -809.160578830     A.U. after   16 cycles
 Normal termination of Gaussian 16 at Sat Dec 12 10:30:56 2020.

 ----------------------------------------------------------------------
 # B3LYP/6-311++G(d,p) empiricaldispersion=gd3bj scf=xqc pop=npa geom=c
 heck
 ----------------------------------------------------------------------

 ------------------------------------
 CID_55074340_JID_9431_Energie_kation
 ------------------------------------
 Structure from the checkpoint file:  "JID_9431.chk"
 Charge =  1 Multiplicity = 2

 SCF Done:  E(UB3LYP) =  -808.893757731     A.U. after   23 cycles
 Normal termination of Gaussian 16 at Sat Dec 12 10:53:55 2020.
 Gaussian 16:  ES64L-G16RevA.03 25-Dec-2016

 ----------------------------------------------------------------------
 # B3LYP/6-311++G(d,p) empiricaldispersion=gd3bj scf=xqc pop=npa geom=c
 heck
 ----------------------------------------------------------------------

 -----------------------------------
 CID_55074340_JID_9431_Energie_anion
 -----------------------------------
 Structure from the checkpoint file:  "JID_9431.chk"
 Charge = -1 Multiplicity = 2

                         Standard orientation:
 ---------------------------------------------------------------------
 Center     Atomic      Atomic             Coordinates (Angstroms)
 Number     Number       Type             X           Y           Z
 ---------------------------------------------------------------------
      1          6           0        2.299104    4.497037    0.173890
      2          6           0        2.401227    3.328699   -0.808106
      3          6           0        1.864379    2.012724   -0.233768
      4          7           0        0.481698    2.108808    0.229834
      5          6           0       -0.464352    2.321108   -0.855758
      6          6           0        0.081168    0.996577    1.101506
      7          6           0        0.060957   -0.374640    0.462850
      8          6           0       -0.966364   -0.979435   -0.205017
      9          8           0       -0.595647   -2.217869   -0.704732
     10          6           0        0.710864   -2.409989   -0.346683
     11          6           0        1.485645   -3.524434   -0.638038
     12          6           0        2.795315   -3.512964   -0.158340
     13          6           0        3.290118   -2.423670    0.581640
     14          6           0        2.494145   -1.315677    0.859547
     15          6           0        1.175031   -1.301347    0.383707
     16          6           0       -2.383060   -0.604303   -0.509557
     17          7           0       -2.988127    0.134722    0.595283
     18          6           0       -4.332907    0.643204    0.322642
     19          6           0       -5.414741   -0.410413    0.049906
     20          1           0        1.259959    4.660262    0.473883
     21          1           0        2.687241    5.422854   -0.265372
     22          1           0        2.873293    4.290432    1.085641
     23          1           0        1.875649    3.575689   -1.739301
     24          1           0        3.448860    3.163683   -1.092127
     25          1           0        1.995796    1.206237   -0.979805
     26          1           0        2.477492    1.740762    0.634804
     27          1           0       -0.408990    1.543051   -1.640745
     28          1           0       -1.479561    2.324042   -0.448566
     29          1           0       -0.282954    3.290371   -1.329841
     30          1           0        0.773570    0.982397    1.951849
     31          1           0       -0.916828    1.224444    1.481201
     32          1           0        1.085722   -4.356632   -1.207528
     33          1           0        3.442990   -4.361233   -0.358952
     34          1           0        4.314671   -2.449384    0.941413
     35          1           0        2.888743   -0.481381    1.430942
     36          1           0       -2.417636    0.048152   -1.393608
     37          1           0       -2.914952   -1.529127   -0.788394
     38          1           0       -2.999487   -0.456404    1.425060
     39          1           0       -4.626912    1.256364    1.182778
     40          1           0       -4.255507    1.325799   -0.533857
     41          1           0       -5.507817   -1.102352    0.896261
     42          1           0       -6.389741    0.067031   -0.101313
     43          1           0       -5.192586   -1.001670   -0.844909
 ---------------------------------------------------------------------

 SCF Done:  E(UB3LYP) =  -809.149347601     A.U. after   33 cycles
 SCF Done:  E(UB3LYP) =  -809.149347601     a.u. after    1 cycles

 The electronic state is 2-A.
 Alpha  occ. eigenvalues --  -19.07938 -14.20326 -14.20188 -10.12549 -10.12266
 Alpha  occ. eigenvalues --  -10.10552 -10.09489 -10.09311 -10.09179 -10.08302
 Alpha  occ. eigenvalues --  -10.07648 -10.07578 -10.07497 -10.07469 -10.07410
 Alpha  occ. eigenvalues --  -10.07148 -10.06820 -10.06713 -10.06162  -1.00380
 Alpha  occ. eigenvalues --   -0.82423  -0.81259  -0.75627  -0.70714  -0.68372
 Alpha  occ. eigenvalues --   -0.66636  -0.64632  -0.62992  -0.60832  -0.59834
 Alpha  occ. eigenvalues --   -0.57666  -0.53252  -0.52143  -0.50442  -0.49240
 Alpha  occ. eigenvalues --   -0.48056  -0.45487  -0.41006  -0.40730  -0.39638
 Alpha  occ. eigenvalues --   -0.38736  -0.36952  -0.36438  -0.36277  -0.35915
 Alpha  occ. eigenvalues --   -0.34893  -0.33964  -0.33374  -0.33112  -0.32390
 Alpha  occ. eigenvalues --   -0.31247  -0.30943  -0.29789  -0.29176  -0.28706
 Alpha  occ. eigenvalues --   -0.28364  -0.27379  -0.27172  -0.26364  -0.26033
 Alpha  occ. eigenvalues --   -0.25488  -0.25165  -0.24604  -0.24426  -0.23968
 Alpha  occ. eigenvalues --   -0.23339  -0.18835  -0.14346  -0.13384  -0.12427
 Alpha  occ. eigenvalues --   -0.11205   0.04261
 Alpha virt. eigenvalues --    0.05947   0.06226   0.06768   0.07426   0.08002
 Alpha virt. eigenvalues --    0.08121   0.08458   0.08555   0.09245   0.09712
 Alpha virt. eigenvalues --    0.10249   0.10483   0.10865   0.11097   0.11456

  Beta  occ. eigenvalues --  -19.07913 -14.20327 -14.20158 -10.12573 -10.12129
  Beta  occ. eigenvalues --  -10.10551 -10.09459 -10.09307 -10.09172 -10.08287
  Beta  occ. eigenvalues --  -10.07641 -10.07497 -10.07452 -10.07442 -10.07409
  Beta  occ. eigenvalues --  -10.07040 -10.06819 -10.06699 -10.06124  -1.00312
  Beta  occ. eigenvalues --   -0.82417  -0.81199  -0.75519  -0.70607  -0.68340
  Beta  occ. eigenvalues --   -0.66531  -0.64506  -0.62881  -0.60781  -0.59803
  Beta  occ. eigenvalues --   -0.57584  -0.53215  -0.52032  -0.50339  -0.49137
  Beta  occ. eigenvalues --   -0.47994  -0.45435  -0.40955  -0.40651  -0.39576
  Beta  occ. eigenvalues --   -0.38689  -0.36878  -0.36350  -0.36232  -0.35849
  Beta  occ. eigenvalues --   -0.34809  -0.33872  -0.33318  -0.33085  -0.32364
  Beta  occ. eigenvalues --   -0.31193  -0.30899  -0.29741  -0.29118  -0.28660
  Beta  occ. eigenvalues --   -0.28298  -0.27349  -0.27149  -0.26292  -0.25988
  Beta  occ. eigenvalues --   -0.25423  -0.24900  -0.24561  -0.24394  -0.23951
  Beta  occ. eigenvalues --   -0.23300  -0.18464  -0.14070  -0.13322  -0.12167
  Beta  occ. eigenvalues --   -0.10943
  Beta virt. eigenvalues --    0.06017   0.06719   0.06757   0.07386   0.07719
  Beta virt. eigenvalues --    0.08167   0.08339   0.08755   0.08813   0.09387
  Beta virt. eigenvalues --    0.09884   0.10432   0.10541   0.11011   0.11222

 Mulliken charges and spin densities:
               1          2
     1  C   -0.033315  -0.467785
     2  C   -0.389000   0.046447
     3  C   -0.361742   0.075579
     4  N    0.314892   0.005128
     5  C    0.028296  -0.505724
     6  C   -1.232469   0.274423
     7  C    0.949591  -0.329072
     8  C    0.304465  -0.515610
     9  O   -0.045236   0.013128
    10  C   -0.082264  -0.205737
    11  C   -0.670887   0.233627
    12  C   -0.076551  -0.236871
    13  C   -0.145036  -0.131408
    14  C   -0.271586   0.301403
    15  C    0.614415   0.075915
    16  C   -0.001776  -0.366807
    17  N   -0.190306   0.081249
    18  C   -0.397334   0.303423
    19  C    1.090537  -1.625924
    20  H    0.073601   0.087991
    21  H   -0.018518   0.144620
    22  H   -0.033397   0.154022
    23  H    0.036837   0.095272
    24  H    0.027090   0.105831
    25  H    0.144469  -0.009217
    26  H    0.184497  -0.066782
    27  H    0.027832   0.103254
    28  H   -0.046180   0.220177
    29  H    0.032858   0.097392
    30  H   -0.040230   0.235658
    31  H    0.102073   0.112895
    32  H    0.066556   0.078743
    33  H    0.113208   0.012874
    34  H    0.043117   0.105298
    35  H   -0.083427   0.185852
    36  H   -0.137607   0.322639
    37  H    0.344319  -0.163575
    38  H    0.057318   0.163299
    39  H   -0.466043   0.638443
    40  H    0.103060  -0.003695
    41  H   -0.179802   0.314595
    42  H   -0.446878   0.595092
    43  H   -0.309447   0.443939
 Sum of Mulliken charges =  -1.00000   1.00000

 Dipole moment (field-independent basis, Debye):
    X=              6.3319    Y=             -1.3675    Z=             -1.4669  Tot=              6.6419
 Quadrupole moment (field-independent basis, Debye-Ang):
   XX=           -211.4088   YY=           -168.8315   ZZ=           -146.7388
   XY=             -0.0409   XZ=              2.5244   YZ=              0.0143

 Summary of Natural Population Analysis:

                                       Natural Population
                Natural  -----------------------------------------------
    Atom  No    Charge         Core      Valence    Rydberg      Total
 -----------------------------------------------------------------------
      C    1   -0.28738      0.99967     2.28303    0.00468     3.28738
      C    2   -0.19379      0.99964     2.18727    0.00687     3.19379
      C    3   -0.08350      0.99961     2.07411    0.00978     3.08350
      N    4   -0.27974      0.99973     2.76774    0.01227     3.77974
      C    5   -0.18426      0.99964     2.17524    0.00938     3.18426
      C    6   -0.09354      0.99958     2.08139    0.01257     3.09354
      C    7   -0.06938      0.99941     2.06094    0.00904     3.06938
      C    8    0.19059      0.99939     1.79529    0.01473     2.80941
      O    9   -0.24322      0.99985     3.23621    0.00716     4.24322
      C   10    0.15153      0.99935     1.83674    0.01238     2.84847
      C   11   -0.11074      0.99952     2.10186    0.00936     3.11074
      C   12   -0.10265      0.99959     2.09268    0.01039     3.10265
      C   13   -0.11771      0.99958     2.10835    0.00978     3.11771
      C   14   -0.07992      0.99954     2.07256    0.00782     3.07992
      C   15   -0.04511      0.99946     2.03660    0.00905     3.04511
      C   16   -0.11202      0.99957     2.10154    0.01091     3.11202
      N   17   -0.33644      0.99975     2.82517    0.01152     3.83644
      C   18   -0.08544      0.99964     2.07423    0.01156     3.08544
      C   19   -0.29716      0.99967     2.29278    0.00471     3.29716
      H   20    0.10434      0.00000     0.39430    0.00136     0.39566
      H   21    0.09358      0.00000     0.40545    0.00097     0.40642
      H   22    0.09422      0.00000     0.40457    0.00121     0.40578
      H   23    0.09302      0.00000     0.40571    0.00127     0.40698
      H   24    0.09437      0.00000     0.40452    0.00111     0.40563
      H   25    0.08545      0.00000     0.41229    0.00226     0.41455
      H   26    0.09192      0.00000     0.40653    0.00154     0.40808
      H   27    0.08169      0.00000     0.41704    0.00127     0.41831
      H   28    0.10275      0.00000     0.39579    0.00146     0.39725
      H   29    0.09160      0.00000     0.40738    0.00102     0.40840
      H   30    0.09574      0.00000     0.40298    0.00128     0.40426
      H   31    0.11375      0.00000     0.38435    0.00189     0.38625
      H   32    0.10267      0.00000     0.39638    0.00095     0.39733
      H   33    0.09557      0.00000     0.40369    0.00075     0.40443
      H   34    0.09665      0.00000     0.40255    0.00081     0.40335
      H   35    0.09817      0.00000     0.40006    0.00177     0.40183
      H   36    0.10276      0.00000     0.39575    0.00149     0.39724
      H   37    0.09210      0.00000     0.40598    0.00191     0.40790
      H   38    0.17299      0.00000     0.32440    0.00261     0.32701
      H   39    0.09327      0.00000     0.40548    0.00125     0.40673
      H   40    0.08923      0.00000     0.40932    0.00145     0.41077
      H   41    0.09652      0.00000     0.40211    0.00137     0.40348
      H   42    0.10154      0.00000     0.39685    0.00161     0.39846
      H   43    0.09597      0.00000     0.40291    0.00112     0.40403
 =======================================================================
   * Total *    0.00000     18.99217    51.79011    0.21771    71.00000

 Normal termination of Gaussian 16 at Sat Dec 12 11:27:10 2020.
