 Gaussian 16, Revision A.03,

 -----------------------------------------------------------
 # opt freq B3LYP/6-31G(d) empiricaldispersion=gd3bj scf=xqc
 -----------------------------------------------------------

 -------------------------------
 CID_145690485_JID_1923_neutraal
 -------------------------------
 Symbolic Z-matrix:
 Charge =  0 Multiplicity = 1

 SCF Done:  E(RB3LYP) =  -448.510918994     A.U. after   12 cycles
 SCF Done:  E(RB3LYP) =  -448.514209883     A.U. after   11 cycles
 SCF Done:  E(RB3LYP) =  -448.513956322     A.U. after   10 cycles
 SCF Done:  E(RB3LYP) =  -448.514584478     A.U. after   10 cycles
 SCF Done:  E(RB3LYP) =  -448.514846301     A.U. after   10 cycles
 SCF Done:  E(RB3LYP) =  -448.515055853     A.U. after   10 cycles
 SCF Done:  E(RB3LYP) =  -448.515156774     A.U. after   10 cycles
 SCF Done:  E(RB3LYP) =  -448.515227123     A.U. after    9 cycles
 SCF Done:  E(RB3LYP) =  -448.515273024     A.U. after    9 cycles
 SCF Done:  E(RB3LYP) =  -448.515324988     A.U. after    9 cycles
 SCF Done:  E(RB3LYP) =  -448.515364995     A.U. after    9 cycles
 SCF Done:  E(RB3LYP) =  -448.515363929     A.U. after    9 cycles
 SCF Done:  E(RB3LYP) =  -448.515366303     A.U. after    8 cycles
 SCF Done:  E(RB3LYP) =  -448.515366370     A.U. after    6 cycles
 SCF Done:  E(RB3LYP) =  -448.515366357     A.U. after    6 cycles
 SCF Done:  E(RB3LYP) =  -448.515366380     A.U. after    6 cycles
 Optimization completed.
    -- Stationary point found.
 Normal termination of Gaussian 16 at Tue Dec  8 21:42:25 2020.

 --------------------------------------------------------------------
 #N Geom=AllCheck Guess=TCheck SCRF=Check GenChk RB3LYP/6-31G(d) Freq
 --------------------------------------------------------------------

 Structure from the checkpoint file:  "JID_1923.chk"
 -------------------------------
 CID_145690485_JID_1923_neutraal
 -------------------------------
 Charge =  0 Multiplicity = 1

 SCF Done:  E(RB3LYP) =  -448.515366379     A.U. after    1 cycles

  Exact polarizability: 118.776   0.544 111.852   1.215   1.321  98.001
 Approx polarizability: 150.139   1.395 150.612   2.257  -0.695 147.750

                      1                      2                      3
                      A                      A                      A
 Frequencies --     30.0798                82.3071               130.2485
 Red. masses --      2.6397                 2.7888                 2.9437
 Frc consts  --      0.0014                 0.0111                 0.0294
 IR Inten    --      0.1051                 0.2800                 4.2995

                      4                      5                      6
                      A                      A                      A
 Frequencies --    148.6649               160.4430               178.3756
 Red. masses --      2.4341                 2.0758                 1.9263
 Frc consts  --      0.0317                 0.0315                 0.0361
 IR Inten    --      0.4737                 0.8929                 4.7340

                      7                      8                      9
                      A                      A                      A
 Frequencies --    221.3990               244.1221               256.2832
 Red. masses --      1.6648                 2.5286                 1.3914
 Frc consts  --      0.0481                 0.0888                 0.0538
 IR Inten    --      2.7327                 0.8840                19.0550

                     10                     11                     12
                      A                      A                      A
 Frequencies --    274.0653               288.9519               316.5776
 Red. masses --      1.4930                 1.4001                 1.2166
 Frc consts  --      0.0661                 0.0689                 0.0718
 IR Inten    --      0.9359                42.7422                 2.7825

                     13                     14                     15
                      A                      A                      A
 Frequencies --    333.7552               400.5569               425.1795
 Red. masses --      2.4322                 2.4220                 3.2306
 Frc consts  --      0.1596                 0.2290                 0.3441
 IR Inten    --      2.8429                 0.1203                 3.6106

                     16                     17                     18
                      A                      A                      A
 Frequencies --    483.8910               522.1543               562.8453
 Red. masses --      2.0894                 2.8879                 2.3368
 Frc consts  --      0.2882                 0.4639                 0.4362
 IR Inten    --      2.0307                 0.7238                 0.9023

                     19                     20                     21
                      A                      A                      A
 Frequencies --    662.0608               772.6708               787.5034
 Red. masses --      2.6702                 1.6130                 1.6699
 Frc consts  --      0.6896                 0.5674                 0.6102
 IR Inten    --      2.1790                 3.9572                 2.3563

                     22                     23                     24
                      A                      A                      A
 Frequencies --    832.7316               871.6765               875.8823
 Red. masses --      1.7238                 2.4780                 1.3218
 Frc consts  --      0.7043                 1.1093                 0.5975
 IR Inten    --      1.8808                 0.9891               100.0817

                     25                     26                     27
                      A                      A                      A
 Frequencies --    889.6838               923.0091               929.9297
 Red. masses --      2.1982                 1.4572                 1.7897
 Frc consts  --      1.0252                 0.7315                 0.9119
 IR Inten    --      1.2216                 0.7829                 7.6495

                     28                     29                     30
                      A                      A                      A
 Frequencies --    946.7366               969.9937               984.8265
 Red. masses --      1.5725                 2.1093                 1.7743
 Frc consts  --      0.8304                 1.1693                 1.0139
 IR Inten    --     14.1034                 1.7619                 1.0661

                     31                     32                     33
                      A                      A                      A
 Frequencies --   1027.7821              1032.3230              1051.6958
 Red. masses --      1.5392                 1.7848                 2.2580
 Frc consts  --      0.9580                 1.1207                 1.4715
 IR Inten    --      8.5365                 0.3119                 3.5385

                     34                     35                     36
                      A                      A                      A
 Frequencies --   1088.6882              1095.0226              1106.5559
 Red. masses --      1.6001                 2.2749                 1.8491
 Frc consts  --      1.1174                 1.6072                 1.3340
 IR Inten    --      6.8450                 0.4782                 3.7347

                     37                     38                     39
                      A                      A                      A
 Frequencies --   1119.5916              1129.9697              1160.6527
 Red. masses --      1.8142                 1.6881                 1.9985
 Frc consts  --      1.3399                 1.2700                 1.5862
 IR Inten    --      0.7626                 0.2787                 1.6634

                     40                     41                     42
                      A                      A                      A
 Frequencies --   1181.0877              1216.3061              1221.5123
 Red. masses --      2.1979                 1.4730                 1.6996
 Frc consts  --      1.8064                 1.2839                 1.4942
 IR Inten    --      2.6412                 2.1005                 0.6917

                     43                     44                     45
                      A                      A                      A
 Frequencies --   1242.8598              1262.6036              1291.7804
 Red. masses --      1.3328                 1.3132                 1.3478
 Frc consts  --      1.2130                 1.2335                 1.3251
 IR Inten    --      2.1289                 2.3395                 0.6684

                     46                     47                     48
                      A                      A                      A
 Frequencies --   1311.3795              1327.3727              1334.6521
 Red. masses --      1.3121                 1.2977                 1.2142
 Frc consts  --      1.3294                 1.3471                 1.2743
 IR Inten    --      3.4404                 1.1821                 0.8781

                     49                     50                     51
                      A                      A                      A
 Frequencies --   1346.9250              1353.1732              1364.5601
 Red. masses --      1.2467                 1.2898                 1.2273
 Frc consts  --      1.3326                 1.3915                 1.3464
 IR Inten    --      1.3868                 1.4845                 1.0088

                     52                     53                     54
                      A                      A                      A
 Frequencies --   1374.9193              1391.9668              1405.9392
 Red. masses --      1.3194                 1.3576                 1.4060
 Frc consts  --      1.4696                 1.5499                 1.6375
 IR Inten    --      4.8028                 1.4714                 4.2019

                     55                     56                     57
                      A                      A                      A
 Frequencies --   1411.2362              1416.6059              1440.9714
 Red. masses --      1.5067                 1.4168                 1.2682
 Frc consts  --      1.7679                 1.6751                 1.5515
 IR Inten    --      0.6507                 1.8282                 1.9179

                     58                     59                     60
                      A                      A                      A
 Frequencies --   1447.3939              1454.8969              1515.8475
 Red. masses --      1.4485                 1.2459                 1.0798
 Frc consts  --      1.7878                 1.5538                 1.4619
 IR Inten    --     12.4524                 4.1017                 3.0623

                     61                     62                     63
                      A                      A                      A
 Frequencies --   1520.4104              1520.6652              1528.2072
 Red. masses --      1.0828                 1.0786                 1.0514
 Frc consts  --      1.4748                 1.4696                 1.4467
 IR Inten    --      1.2667                 0.1539                 5.0110

                     64                     65                     66
                      A                      A                      A
 Frequencies --   1535.1573              1536.0627              1538.6372
 Red. masses --      1.0763                 1.0792                 1.0532
 Frc consts  --      1.4945                 1.5003                 1.4690
 IR Inten    --      5.0176                 1.1867                 3.0805

                     67                     68                     69
                      A                      A                      A
 Frequencies --   1538.8312              1558.6940              1694.2561
 Red. masses --      1.0752                 1.0512                 1.0883
 Frc consts  --      1.5002                 1.5047                 1.8405
 IR Inten    --      1.8417                 6.8015                38.3839

                     70                     71                     72
                      A                      A                      A
 Frequencies --   2932.7681              2995.1729              3011.1232
 Red. masses --      1.0734                 1.0822                 1.0812
 Frc consts  --      5.4395                 5.7202                 5.7759
 IR Inten    --     74.9709                16.7394                31.3413

                     73                     74                     75
                      A                      A                      A
 Frequencies --   3016.4294              3027.7049              3037.4639
 Red. masses --      1.0657                 1.0680                 1.0426
 Frc consts  --      5.7131                 5.7683                 5.6673
 IR Inten    --     34.0466                19.9227                24.0408

                     76                     77                     78
                      A                      A                      A
 Frequencies --   3040.0138              3042.1312              3045.9372
 Red. masses --      1.0691                 1.0459                 1.0564
 Frc consts  --      5.8215                 5.7031                 5.7746
 IR Inten    --     25.3751                10.8167                43.6222

                     79                     80                     81
                      A                      A                      A
 Frequencies --   3054.2781              3062.2526              3080.1676
 Red. masses --      1.0912                 1.0867                 1.0958
 Frc consts  --      5.9977                 6.0042                 6.1256
 IR Inten    --     85.2220                48.3388                47.8355

                     82                     83                     84
                      A                      A                      A
 Frequencies --   3088.7986              3096.1742              3097.7792
 Red. masses --      1.0950                 1.1008                 1.1005
 Frc consts  --      6.1550                 6.2177                 6.2220
 IR Inten    --     41.8207                46.8245                19.2686

                     85                     86                     87
                      A                      A                      A
 Frequencies --   3104.2570              3115.2906              3116.9407
 Red. masses --      1.1018                 1.0997                 1.0899
 Frc consts  --      6.2555                 6.2882                 6.2388
 IR Inten    --     39.5053                23.2059                73.5084

                     88                     89                     90
                      A                      A                      A
 Frequencies --   3134.4457              3468.0132              3550.2040
 Red. masses --      1.1001                 1.0497                 1.0920
 Frc consts  --      6.3681                 7.4384                 8.1092
 IR Inten    --      1.1143                 2.3931                 0.7956

 - Thermochemistry -
 -------------------
 Temperature   298.150 Kelvin.  Pressure   1.00000 Atm.
 Atom     1 has atomic number  6 and mass  12.00000

 Molecular mass:   155.16740 amu.
 Principal axes and moments of inertia in atomic units:
                           1         2         3
     Eigenvalues --  1524.924352046.149812837.24988
           X            0.99994   0.00948  -0.00584
           Y           -0.00948   0.99995   0.00058
           Z            0.00584  -0.00053   0.99998
 This molecule is an asymmetric top.
 Rotational symmetry number  1.
 Warning -- assumption of classical behavior for rotation
           may cause significant error
 Rotational temperatures (Kelvin)      0.05680     0.04233     0.03053
 Rotational constants (GHZ):           1.18350     0.88202     0.63609
 Zero-point vibrational energy     793848.7 (Joules/Mol)
                                  189.73440 (Kcal/Mol)
 Warning -- explicit consideration of  18 degrees of freedom as
           vibrations may cause significant error
 Vibrational temperatures:     43.28   118.42   187.40   213.90   230.84
          (Kelvin)            256.64   318.54   351.24   368.73   394.32
                              415.74   455.48   480.20   576.31   611.74
                              696.21   751.26   809.81   952.56  1111.70
                             1133.04  1198.12  1254.15  1260.20  1280.06
                             1328.00  1337.96  1362.14  1395.60  1416.95
                             1478.75  1485.28  1513.16  1566.38  1575.49
                             1592.09  1610.84  1625.77  1669.92  1699.32
                             1749.99  1757.48  1788.20  1816.60  1858.58
                             1886.78  1909.79  1920.27  1937.92  1946.91
                             1963.30  1978.20  2002.73  2022.83  2030.45
                             2038.18  2073.24  2082.48  2093.27  2180.97
                             2187.53  2187.90  2198.75  2208.75  2210.05
                             2213.76  2214.03  2242.61  2437.66  4219.60
                             4309.39  4332.33  4339.97  4356.19  4370.23
                             4373.90  4376.95  4382.42  4394.42  4405.90
                             4431.67  4444.09  4454.70  4457.01  4466.33
                             4482.21  4484.58  4509.77  4989.70  5107.95

 Zero-point correction=                           0.302361 (Hartree/Particle)
 Thermal correction to Energy=                    0.315017
 Thermal correction to Enthalpy=                  0.315961
 Thermal correction to Gibbs Free Energy=         0.263864
 Sum of electronic and zero-point Energies=           -448.213005
 Sum of electronic and thermal Energies=              -448.200350
 Sum of electronic and thermal Enthalpies=            -448.199406
 Sum of electronic and thermal Free Energies=         -448.251502

                     E (Thermal)             CV                S
                      KCal/Mol        Cal/Mol-Kelvin    Cal/Mol-Kelvin
 Total                  197.676             48.544            109.646
 Electronic               0.000              0.000              0.000
 Translational            0.889              2.981             41.028
 Rotational               0.889              2.981             30.560
 Vibrational            195.898             42.583             38.058
 Vibration     1          0.594              1.984              5.824
 Vibration     2          0.600              1.961              3.835
 Vibration     3          0.612              1.923              2.942
 Vibration     4          0.618              1.904              2.689
 Vibration     5          0.622              1.891              2.545
 Vibration     6          0.629              1.869              2.345
 Vibration     7          0.648              1.808              1.948
 Vibration     8          0.659              1.772              1.773
 Vibration     9          0.666              1.752              1.687
 Vibration    10          0.676              1.721              1.570
 Vibration    11          0.686              1.694              1.480
 Vibration    12          0.703              1.642              1.328
 Vibration    13          0.715              1.608              1.242
 Vibration    14          0.766              1.469              0.961
 Vibration    15          0.787              1.415              0.875
 Vibration    16          0.840              1.286              0.700
 Vibration    17          0.877              1.201              0.605
 Vibration    18          0.919              1.112              0.518

 Optimization completed.
    -- Stationary point found.
 Normal termination of Gaussian 16 at Tue Dec  8 21:51:02 2020.

 ----------------------------------------------------------------------
 # B3LYP/6-311++G(d,p) empiricaldispersion=gd3bj scf=xqc pop=npa geom=c
 heck
 ----------------------------------------------------------------------

 ---------------------------------------
 CID_145690485_JID_1923_Energie_neutraal
 ---------------------------------------
 Structure from the checkpoint file:  "JID_1923.chk"
 Charge =  0 Multiplicity = 1

 SCF Done:  E(RB3LYP) =  -448.646329782     A.U. after   13 cycles
 Normal termination of Gaussian 16 at Tue Dec  8 21:54:51 2020.

 ----------------------------------------------------------------------
 # B3LYP/6-311++G(d,p) empiricaldispersion=gd3bj scf=xqc pop=npa geom=c
 heck
 ----------------------------------------------------------------------

 -------------------------------------
 CID_145690485_JID_1923_Energie_kation
 -------------------------------------
 Structure from the checkpoint file:  "JID_1923.chk"
 Charge =  1 Multiplicity = 2

 SCF Done:  E(UB3LYP) =  -448.320964792     A.U. after   22 cycles
 Normal termination of Gaussian 16 at Tue Dec  8 22:03:31 2020.
 Gaussian 16:  ES64L-G16RevA.03 25-Dec-2016

 ----------------------------------------------------------------------
 # B3LYP/6-311++G(d,p) empiricaldispersion=gd3bj scf=xqc pop=npa geom=c
 heck
 ----------------------------------------------------------------------

 ------------------------------------
 CID_145690485_JID_1923_Energie_anion
 ------------------------------------
 Structure from the checkpoint file:  "JID_1923.chk"
 Charge = -1 Multiplicity = 2

                         Standard orientation:
 ---------------------------------------------------------------------
 Center     Atomic      Atomic             Coordinates (Angstroms)
 Number     Number       Type             X           Y           Z
 ---------------------------------------------------------------------
      1          6           0       -2.757104   -1.197820    0.665932
      2          6           0       -1.664939   -2.022540   -0.024842
      3          6           0       -0.207523   -1.609482    0.250026
      4          6           0        0.240344   -0.276098   -0.380386
      5          6           0        1.782214   -0.124408   -0.503029
      6          6           0        2.194597    0.356408    0.894429
      7          6           0        1.115964    1.395050    1.245143
      8          6           0       -0.168433    0.971152    0.466640
      9          6           0       -0.694990    2.130488   -0.384949
     10          7           0       -1.997188    1.820279   -0.985520
     11          6           0        2.565564   -1.324644   -1.030373
     12          1           0       -2.586972   -1.155354    1.749532
     13          1           0       -3.739236   -1.659140    0.506593
     14          1           0       -2.805757   -0.171486    0.290919
     15          1           0       -1.774487   -3.072198    0.280185
     16          1           0       -1.832035   -2.010028   -1.112297
     17          1           0        0.426692   -2.414699   -0.137902
     18          1           0       -0.035919   -1.584767    1.335603
     19          1           0       -0.199876   -0.230201   -1.387719
     20          1           0        1.953694    0.713389   -1.196762
     21          1           0        3.210135    0.767150    0.922262
     22          1           0        2.168303   -0.487921    1.595923
     23          1           0        1.440069    2.389363    0.910847
     24          1           0        0.935421    1.470619    2.322039
     25          1           0       -0.961097    0.701899    1.167812
     26          1           0       -0.833959    3.005549    0.262318
     27          1           0        0.081238    2.408932   -1.123702
     28          1           0       -2.338474    2.626933   -1.505749
     29          1           0       -1.889735    1.071161   -1.667490
     30          1           0        2.157855   -1.685492   -1.982610
     31          1           0        3.614093   -1.053206   -1.199443
     32          1           0        2.556207   -2.161091   -0.323263
 ---------------------------------------------------------------------

 SCF Done:  E(UB3LYP) =  -448.629484235     A.U. after   27 cycles

 The electronic state is 2-A.
 Alpha  occ. eigenvalues --  -14.18159 -10.08012 -10.06180 -10.06162 -10.06080
 Alpha  occ. eigenvalues --  -10.05978 -10.05904 -10.05741 -10.05620 -10.05141
 Alpha  occ. eigenvalues --  -10.04917  -0.77587  -0.73713  -0.67914  -0.64529
 Alpha  occ. eigenvalues --   -0.61572  -0.58523  -0.54731  -0.51775  -0.47963
 Alpha  occ. eigenvalues --   -0.45684  -0.42865  -0.38835  -0.37336  -0.36030
 Alpha  occ. eigenvalues --   -0.34427  -0.33485  -0.32917  -0.31380  -0.30733
 Alpha  occ. eigenvalues --   -0.29793  -0.28370  -0.27457  -0.26511  -0.25124
 Alpha  occ. eigenvalues --   -0.24048  -0.23334  -0.22554  -0.21963  -0.21762
 Alpha  occ. eigenvalues --   -0.20567  -0.19358  -0.19257  -0.13397   0.04762
 Alpha virt. eigenvalues --    0.06927   0.07129   0.07596   0.09044   0.09449
 Alpha virt. eigenvalues --    0.09538   0.09895   0.10146   0.11643   0.12117
 Alpha virt. eigenvalues --    0.12422   0.12731   0.13087   0.13248   0.13475

  Beta  occ. eigenvalues --  -14.18115 -10.07989 -10.06169 -10.06145 -10.06064
  Beta  occ. eigenvalues --  -10.05978 -10.05897 -10.05733 -10.05605 -10.05111
  Beta  occ. eigenvalues --  -10.04909  -0.77520  -0.73678  -0.67889  -0.64491
  Beta  occ. eigenvalues --   -0.61542  -0.58474  -0.54687  -0.51709  -0.47914
  Beta  occ. eigenvalues --   -0.45643  -0.42817  -0.38790  -0.37302  -0.35980
  Beta  occ. eigenvalues --   -0.34389  -0.33451  -0.32858  -0.31347  -0.30708
  Beta  occ. eigenvalues --   -0.29766  -0.28335  -0.27423  -0.26470  -0.25094
  Beta  occ. eigenvalues --   -0.24025  -0.23303  -0.22528  -0.21930  -0.21732
  Beta  occ. eigenvalues --   -0.20534  -0.19333  -0.19229  -0.13351
  Beta virt. eigenvalues --    0.06907   0.07717   0.07952   0.08000   0.09547
  Beta virt. eigenvalues --    0.09776   0.10089   0.10254   0.10646   0.11995
  Beta virt. eigenvalues --    0.12420   0.12836   0.13127   0.13308   0.13663

 Mulliken charges and spin densities:
               1          2
     1  C   -0.292996  -0.366580
     2  C    0.746038  -1.042546
     3  C   -1.401259   1.139021
     4  C    0.259577   0.022619
     5  C   -0.721945   0.754989
     6  C    0.240739  -0.605107
     7  C   -0.246053  -0.401618
     8  C   -0.075587   0.439600
     9  C    1.295562  -2.091816
    10  N   -0.491815   0.120295
    11  C    1.539519  -2.216152
    12  H    0.120831  -0.001079
    13  H   -0.087952   0.214809
    14  H    0.168097   0.045387
    15  H   -0.156566   0.300432
    16  H   -0.113796   0.243463
    17  H    0.080372   0.063634
    18  H   -0.033938   0.170176
    19  H   -0.171273   0.356349
    20  H   -0.189058   0.385152
    21  H   -0.326951   0.496974
    22  H    0.091978   0.034042
    23  H    0.066476   0.080556
    24  H   -0.053595   0.194114
    25  H    0.304427  -0.125869
    26  H   -0.162965   0.328918
    27  H   -0.423503   0.574908
    28  H   -0.246187   0.512452
    29  H    0.003752   0.215331
    30  H   -0.278854   0.424171
    31  H   -0.265092   0.418040
    32  H   -0.177985   0.315334
 Sum of Mulliken charges =  -1.00000   1.00000

 Dipole moment (field-independent basis, Debye):
    X=             -0.6553    Y=             -2.0761    Z=              5.0171  Tot=              5.4691
 Quadrupole moment (field-independent basis, Debye-Ang):
   XX=           -132.8323   YY=           -121.3120   ZZ=           -109.9225
   XY=              4.6356   XZ=             -0.9217   YZ=              4.2049

 Summary of Natural Population Analysis:

                                       Natural Population
                Natural  -----------------------------------------------
    Atom  No    Charge         Core      Valence    Rydberg      Total
 -----------------------------------------------------------------------
      C    1   -0.29395      0.99966     2.28979    0.00451     3.29395
      C    2   -0.18561      0.99964     2.17804    0.00793     3.18561
      C    3   -0.18934      0.99960     2.18054    0.00919     3.18934
      C    4   -0.10620      0.99956     2.09363    0.01301     3.10620
      C    5   -0.11070      0.99958     2.09948    0.01164     3.11070
      C    6   -0.18809      0.99961     2.18033    0.00816     3.18809
      C    7   -0.18759      0.99962     2.17966    0.00831     3.18759
      C    8   -0.11543      0.99958     2.10490    0.01095     3.11543
      C    9   -0.08192      0.99959     2.07021    0.01212     3.08192
      N   10   -0.42472      0.99977     2.91418    0.01077     3.92472
      C   11   -0.28508      0.99964     2.27915    0.00628     3.28508
      H   12    0.09004      0.00000     0.40894    0.00102     0.40996
      H   13    0.09417      0.00000     0.40495    0.00088     0.40583
      H   14    0.11276      0.00000     0.38543    0.00181     0.38724
      H   15    0.09069      0.00000     0.40832    0.00099     0.40931
      H   16    0.09354      0.00000     0.40511    0.00135     0.40646
      H   17    0.09928      0.00000     0.39930    0.00142     0.40072
      H   18    0.09104      0.00000     0.40774    0.00123     0.40896
      H   19    0.09741      0.00000     0.39993    0.00266     0.40259
      H   20    0.09661      0.00000     0.40097    0.00242     0.40339
      H   21    0.10009      0.00000     0.39890    0.00101     0.39991
      H   22    0.09128      0.00000     0.40751    0.00120     0.40872
      H   23    0.09609      0.00000     0.40250    0.00141     0.40391
      H   24    0.09626      0.00000     0.40298    0.00076     0.40374
      H   25    0.10041      0.00000     0.39719    0.00240     0.39959
      H   26    0.08858      0.00000     0.41032    0.00110     0.41142
      H   27    0.07989      0.00000     0.41754    0.00257     0.42011
      H   28    0.17820      0.00000     0.31879    0.00301     0.32180
      H   29    0.17471      0.00000     0.32259    0.00270     0.32529
      H   30    0.10129      0.00000     0.39759    0.00112     0.39871
      H   31    0.10146      0.00000     0.39740    0.00114     0.39854
      H   32    0.09482      0.00000     0.40408    0.00110     0.40518
 =======================================================================
   * Total *    0.00000     10.99587    32.86798    0.13615    44.00000

 Normal termination of Gaussian 16 at Tue Dec  8 22:14:11 2020.
