 Gaussian 16, Revision A.03,

 -----------------------------------------------------------
 # opt freq B3LYP/6-31G(d) empiricaldispersion=gd3bj scf=xqc
 -----------------------------------------------------------

 --------------------------------
 CID_139506051_JID_10669_neutraal
 --------------------------------
 Symbolic Z-matrix:
 Charge =  0 Multiplicity = 1

 SCF Done:  E(RB3LYP) =  -936.153209364     A.U. after   14 cycles
 SCF Done:  E(RB3LYP) =  -936.160342552     A.U. after   13 cycles
 SCF Done:  E(RB3LYP) =  -936.159674605     A.U. after   13 cycles
 SCF Done:  E(RB3LYP) =  -936.162136724     A.U. after   13 cycles
 SCF Done:  E(RB3LYP) =  -936.163947147     A.U. after   13 cycles
 SCF Done:  E(RB3LYP) =  -936.164465420     A.U. after   12 cycles
 SCF Done:  E(RB3LYP) =  -936.164737609     A.U. after   12 cycles
 SCF Done:  E(RB3LYP) =  -936.165807144     A.U. after   12 cycles
 SCF Done:  E(RB3LYP) =  -936.166077588     A.U. after   13 cycles
 SCF Done:  E(RB3LYP) =  -936.166276387     A.U. after   12 cycles
 SCF Done:  E(RB3LYP) =  -936.169655495     A.U. after    9 cycles
 SCF Done:  E(RB3LYP) =  -936.169655754     A.U. after    7 cycles
 SCF Done:  E(RB3LYP) =  -936.169655898     A.U. after    9 cycles
 SCF Done:  E(RB3LYP) =  -936.169655902     A.U. after    5 cycles
 SCF Done:  E(RB3LYP) =  -936.169655906     A.U. after    6 cycles
 Optimization completed on the basis of negligible forces.
    -- Stationary point found.
 Normal termination of Gaussian 16 at Sat Dec 12 17:30:28 2020.

 --------------------------------------------------------------------
 #N Geom=AllCheck Guess=TCheck SCRF=Check GenChk RB3LYP/6-31G(d) Freq
 --------------------------------------------------------------------

 Structure from the checkpoint file:  "JID_10669.chk"
 --------------------------------
 CID_139506051_JID_10669_neutraal
 --------------------------------
 Charge =  0 Multiplicity = 1

 SCF Done:  E(RB3LYP) =  -936.169655906     A.U. after    1 cycles

  Exact polarizability: 186.793  -4.064 193.246  14.230   2.571 132.084
 Approx polarizability: 242.521  -9.278 306.395  27.306  12.130 208.024

                      1                      2                      3
                      A                      A                      A
 Frequencies --     16.4028                19.5247                24.7730
 Red. masses --      5.6164                 1.3472                 2.2639
 Frc consts  --      0.0009                 0.0003                 0.0008
 IR Inten    --      0.8962                 0.2127                 0.2409

                      4                      5                      6
                      A                      A                      A
 Frequencies --     30.5334                37.2682                39.4755
 Red. masses --      4.5544                 1.6730                 1.6548
 Frc consts  --      0.0025                 0.0014                 0.0015
 IR Inten    --      0.4627                 0.3259                 0.1960

                      7                      8                      9
                      A                      A                      A
 Frequencies --     54.0596                65.5922                82.9971
 Red. masses --      6.8134                 5.8747                 5.7893
 Frc consts  --      0.0117                 0.0149                 0.0235
 IR Inten    --      0.7510                 1.4483                 1.4568

                     10                     11                     12
                      A                      A                      A
 Frequencies --    119.4579               148.5483               170.0898
 Red. masses --      2.5681                 4.8690                 4.1059
 Frc consts  --      0.0216                 0.0633                 0.0700
 IR Inten    --      1.2361                 0.9041                 2.3497

                     13                     14                     15
                      A                      A                      A
 Frequencies --    193.5711               200.6376               218.6356
 Red. masses --      2.3801                 2.4615                 3.1255
 Frc consts  --      0.0525                 0.0584                 0.0880
 IR Inten    --      1.3561                 5.0915                 0.2625

                     16                     17                     18
                      A                      A                      A
 Frequencies --    226.5841               228.3416               266.7302
 Red. masses --      2.8088                 2.9737                 2.5524
 Frc consts  --      0.0850                 0.0914                 0.1070
 IR Inten    --      0.9869                 0.6210                 0.9691

                     19                     20                     21
                      A                      A                      A
 Frequencies --    283.3697               299.0434               334.2276
 Red. masses --      2.3255                 2.5202                 3.9662
 Frc consts  --      0.1100                 0.1328                 0.2610
 IR Inten    --      2.1373                 4.2110                 0.0462

                     22                     23                     24
                      A                      A                      A
 Frequencies --    361.3804               377.2333               425.5189
 Red. masses --      2.4249                 5.5859                 3.6972
 Frc consts  --      0.1866                 0.4683                 0.3944
 IR Inten    --      6.4443                 7.7020                10.5144

                     25                     26                     27
                      A                      A                      A
 Frequencies --    456.7801               489.9321               510.4527
 Red. masses --      2.8642                 3.5057                 3.3313
 Frc consts  --      0.3521                 0.4958                 0.5114
 IR Inten    --      1.8092                 8.8103                 5.9824

                     28                     29                     30
                      A                      A                      A
 Frequencies --    520.6765               530.9660               532.2592
 Red. masses --      3.9090                 2.4490                 3.0965
 Frc consts  --      0.6244                 0.4068                 0.5169
 IR Inten    --      1.0206                 4.3380                 2.2281

                     31                     32                     33
                      A                      A                      A
 Frequencies --    547.3856               564.7677               629.3517
 Red. masses --      3.4787                 3.7190                 1.5651
 Frc consts  --      0.6141                 0.6989                 0.3652
 IR Inten    --     24.8030                18.5300               190.4162

                     34                     35                     36
                      A                      A                      A
 Frequencies --    639.5623               650.0078               663.2874
 Red. masses --      1.5096                 3.1484                 2.3716
 Frc consts  --      0.3638                 0.7838                 0.6148
 IR Inten    --      0.7848                23.9264                14.7274

                     37                     38                     39
                      A                      A                      A
 Frequencies --    710.2586               740.6194               763.2413
 Red. masses --      2.6809                 2.7661                 3.1120
 Frc consts  --      0.7968                 0.8939                 1.0681
 IR Inten    --      8.3652                28.7213                51.1712

                     40                     41                     42
                      A                      A                      A
 Frequencies --    779.2563               789.6910               819.1659
 Red. masses --      7.4484                 2.2180                 2.3257
 Frc consts  --      2.6649                 0.8150                 0.9195
 IR Inten    --     50.5133                85.5122                24.1601

                     43                     44                     45
                      A                      A                      A
 Frequencies --    849.7362               870.8076               902.1645
 Red. masses --      1.7039                 1.4085                 1.3142
 Frc consts  --      0.7249                 0.6293                 0.6302
 IR Inten    --     34.1071                14.0672                 0.1075

                     46                     47                     48
                      A                      A                      A
 Frequencies --    914.9321               949.6679               974.8117
 Red. masses --      1.3238                 3.1443                 3.3352
 Frc consts  --      0.6529                 1.6708                 1.8673
 IR Inten    --      0.2292                 1.3439                 0.8527

                     49                     50                     51
                      A                      A                      A
 Frequencies --   1008.2762              1021.8468              1023.0072
 Red. masses --      1.8290                 5.8991                 1.8503
 Frc consts  --      1.0955                 3.6292                 1.1409
 IR Inten    --     26.0675                 0.6857                 3.0775

                     52                     53                     54
                      A                      A                      A
 Frequencies --   1029.9120              1043.7757              1048.1264
 Red. masses --      3.3177                 1.6969                 1.4940
 Frc consts  --      2.0734                 1.0892                 0.9670
 IR Inten    --      2.0314                 2.4698                 1.8787

                     55                     56                     57
                      A                      A                      A
 Frequencies --   1065.9434              1075.5557              1076.5199
 Red. masses --      2.2399                 1.5193                 1.5277
 Frc consts  --      1.4995                 1.0355                 1.0431
 IR Inten    --     32.9733                 7.1870                 8.2261

                     58                     59                     60
                      A                      A                      A
 Frequencies --   1132.3704              1154.3215              1165.8541
 Red. masses --      2.9261                 2.7056                 2.3466
 Frc consts  --      2.2106                 2.1240                 1.8792
 IR Inten    --     24.3337               114.0858                16.2158

                     61                     62                     63
                      A                      A                      A
 Frequencies --   1181.2992              1190.9500              1204.9466
 Red. masses --      1.7015                 1.7959                 1.6995
 Frc consts  --      1.3990                 1.5008                 1.4538
 IR Inten    --     17.4700                88.5109                26.8522

                     64                     65                     66
                      A                      A                      A
 Frequencies --   1208.5379              1233.7154              1261.3574
 Red. masses --      1.6059                 2.1709                 1.4361
 Frc consts  --      1.3820                 1.9468                 1.3462
 IR Inten    --     21.9816                39.4536                13.3665

                     67                     68                     69
                      A                      A                      A
 Frequencies --   1297.1505              1314.4860              1325.4660
 Red. masses --      1.2820                 2.1224                 1.3768
 Frc consts  --      1.2709                 2.1606                 1.4252
 IR Inten    --     31.2137                15.3414                 5.1426

                     70                     71                     72
                      A                      A                      A
 Frequencies --   1336.1532              1348.5286              1366.4625
 Red. masses --      2.6336                 1.3080                 2.9806
 Frc consts  --      2.7702                 1.4015                 3.2790
 IR Inten    --     12.8171                 4.2527                 2.0994

                     73                     74                     75
                      A                      A                      A
 Frequencies --   1378.3501              1400.5947              1427.1582
 Red. masses --      1.5286                 1.6153                 1.6593
 Frc consts  --      1.7111                 1.8669                 1.9912
 IR Inten    --    118.9644                 7.0656                35.9223

                     76                     77                     78
                      A                      A                      A
 Frequencies --   1441.2289              1443.9693              1459.2671
 Red. masses --      1.2356                 1.2845                 2.2832
 Frc consts  --      1.5122                 1.5779                 2.8646
 IR Inten    --      0.0902                 0.1861               148.8312

                     79                     80                     81
                      A                      A                      A
 Frequencies --   1478.1450              1482.0240              1482.5693
 Red. masses --      1.3734                 1.2306                 1.9122
 Frc consts  --      1.7680                 1.5925                 2.4764
 IR Inten    --      7.0606                 4.5782                 1.7188

                     82                     83                     84
                      A                      A                      A
 Frequencies --   1486.2666              1505.1159              1517.3519
 Red. masses --      1.4457                 1.6452                 1.0572
 Frc consts  --      1.8816                 2.1959                 1.4341
 IR Inten    --     14.1367                 3.9436                 4.1669

                     85                     86                     87
                      A                      A                      A
 Frequencies --   1518.0281              1520.1333              1527.7831
 Red. masses --      1.0533                 1.0533                 1.1907
 Frc consts  --      1.4301                 1.4341                 1.6375
 IR Inten    --      4.8769                 5.4339                 7.8183

                     88                     89                     90
                      A                      A                      A
 Frequencies --   1531.5344              1536.1845              1538.7732
 Red. masses --      1.3130                 1.2008                 1.3325
 Frc consts  --      1.8145                 1.6696                 1.8589
 IR Inten    --     12.7499                58.3070                15.9090

                     91                     92                     93
                      A                      A                      A
 Frequencies --   1553.4895              1556.6993              1664.2590
 Red. masses --      1.0678                 1.0918                 5.3475
 Frc consts  --      1.5184                 1.5589                 8.7266
 IR Inten    --     12.2585                 1.1213                16.9132

                     94                     95                     96
                      A                      A                      A
 Frequencies --   1667.4140              1795.7225              1834.0326
 Red. masses --      5.5394                 5.7322                 9.6956
 Frc consts  --      9.0740                10.8906                19.2150
 IR Inten    --     20.0723               425.3857               247.2028

                     97                     98                     99
                      A                      A                      A
 Frequencies --   3008.3540              3041.7942              3043.4511
 Red. masses --      1.0487                 1.0400                 1.0398
 Frc consts  --      5.5917                 5.6697                 5.6744
 IR Inten    --     68.7155                35.9648                28.1559

                    100                    101                    102
                      A                      A                      A
 Frequencies --   3054.1686              3081.1265              3084.7842
 Red. masses --      1.0610                 1.0721                 1.1030
 Frc consts  --      5.8310                 5.9968                 6.1842
 IR Inten    --     24.2858                10.1114                15.2942

                    103                    104                    105
                      A                      A                      A
 Frequencies --   3087.7458              3098.3168              3100.0084
 Red. masses --      1.0869                 1.0962                 1.0831
 Frc consts  --      6.1056                 6.2001                 6.1323
 IR Inten    --     31.6050                18.4005                 4.1125

                    106                    107                    108
                      A                      A                      A
 Frequencies --   3100.1252              3125.3864              3127.5134
 Red. masses --      1.0960                 1.1026                 1.1026
 Frc consts  --      6.2063                 6.3455                 6.3543
 IR Inten    --     22.1123                14.9570                15.9414

                    109                    110                    111
                      A                      A                      A
 Frequencies --   3127.9430              3147.6494              3165.3649
 Red. masses --      1.1026                 1.0963                 1.0895
 Frc consts  --      6.3562                 6.3994                 6.4320
 IR Inten    --     30.7236                 5.2734                17.5425

                    112                    113                    114
                      A                      A                      A
 Frequencies --   3170.1991              3190.1471              3483.2852
 Red. masses --      1.0899                 1.0900                 1.0729
 Frc consts  --      6.4538                 6.5356                 7.6698
 IR Inten    --     19.6091                 5.0735                 2.0446

                    115                    116                    117
                      A                      A                      A
 Frequencies --   3604.8556              3623.3190              3668.9452
 Red. masses --      1.0758                 1.0761                 1.0640
 Frc consts  --      8.2368                 8.3238                 8.4386
 IR Inten    --     30.1631                28.8291                43.2339

 - Thermochemistry -
 -------------------
 Temperature   298.150 Kelvin.  Pressure   1.00000 Atm.
 Atom     1 has atomic number  6 and mass  12.00000

 Molecular mass:   279.15829 amu.
 Principal axes and moments of inertia in atomic units:
                           1         2         3
     Eigenvalues --  3480.923319082.14004**********
           X            0.99988  -0.00795   0.01348
           Y            0.00812   0.99989  -0.01243
           Z           -0.01338   0.01253   0.99983
 This molecule is an asymmetric top.
 Rotational symmetry number  1.
 Warning -- assumption of classical behavior for rotation
           may cause significant error
 Rotational temperatures (Kelvin)      0.02488     0.00954     0.00792
 Rotational constants (GHZ):           0.51847     0.19871     0.16505
 Zero-point vibrational energy     915256.4 (Joules/Mol)
                                  218.75153 (Kcal/Mol)
 Warning -- explicit consideration of  32 degrees of freedom as
           vibrations may cause significant error
 Vibrational temperatures:     23.60    28.09    35.64    43.93    53.62
          (Kelvin)             56.80    77.78    94.37   119.41   171.87
                              213.73   244.72   278.51   288.67   314.57
                              326.00   328.53   383.77   407.71   430.26
                              480.88   519.95   542.75   612.23   657.20
                              704.90   734.43   749.14   763.94   765.80
                              787.57   812.57   905.50   920.19   935.22
                              954.32  1021.90  1065.59  1098.13  1121.18
                             1136.19  1178.60  1222.58  1252.90  1298.01
                             1316.38  1366.36  1402.54  1450.68  1470.21
                             1471.88  1481.81  1501.76  1508.02  1533.65
                             1547.48  1548.87  1629.23  1660.81  1677.40
                             1699.63  1713.51  1733.65  1738.82  1775.04
                             1814.81  1866.31  1891.25  1907.05  1922.43
                             1940.23  1966.03  1983.14  2015.14  2053.36
                             2073.61  2077.55  2099.56  2126.72  2132.30
                             2133.09  2138.41  2165.53  2183.13  2184.10
                             2187.13  2198.14  2203.54  2210.23  2213.95
                             2235.12  2239.74  2394.50  2399.04  2583.64
                             2638.76  4328.35  4376.46  4378.85  4394.27
                             4433.05  4438.32  4442.58  4457.79  4460.22
                             4460.39  4496.73  4499.79  4500.41  4528.77
                             4554.25  4561.21  4589.91  5011.67  5186.58
                             5213.15  5278.79

 Zero-point correction=                           0.348603 (Hartree/Particle)
 Thermal correction to Energy=                    0.370147
 Thermal correction to Enthalpy=                  0.371091
 Thermal correction to Gibbs Free Energy=         0.293409
 Sum of electronic and zero-point Energies=           -935.821053
 Sum of electronic and thermal Energies=              -935.799509
 Sum of electronic and thermal Enthalpies=            -935.798565
 Sum of electronic and thermal Free Energies=         -935.876247

                     E (Thermal)             CV                S
                      KCal/Mol        Cal/Mol-Kelvin    Cal/Mol-Kelvin
 Total                  232.270             77.792            163.494
 Electronic               0.000              0.000              0.000
 Translational            0.889              2.981             42.778
 Rotational               0.889              2.981             34.202
 Vibrational            230.493             71.830             86.515
 Vibration     1          0.593              1.986              7.028
 Vibration     2          0.593              1.986              6.682
 Vibration     3          0.593              1.985              6.209
 Vibration     4          0.594              1.984              5.794
 Vibration     5          0.594              1.982              5.399
 Vibration     6          0.594              1.981              5.285
 Vibration     7          0.596              1.976              4.663
 Vibration     8          0.597              1.971              4.281
 Vibration     9          0.600              1.961              3.819
 Vibration    10          0.609              1.933              3.109
 Vibration    11          0.618              1.904              2.691
 Vibration    12          0.625              1.879              2.434
 Vibration    13          0.635              1.849              2.193
 Vibration    14          0.638              1.839              2.127
 Vibration    15          0.646              1.813              1.970
 Vibration    16          0.650              1.801              1.906
 Vibration    17          0.651              1.798              1.892
 Vibration    18          0.672              1.734              1.617
 Vibration    19          0.682              1.704              1.513
 Vibration    20          0.692              1.675              1.422
 Vibration    21          0.716              1.607              1.240
 Vibration    22          0.736              1.552              1.116
 Vibration    23          0.748              1.519              1.050
 Vibration    24          0.787              1.415              0.873
 Vibration    25          0.815              1.346              0.776
 Vibration    26          0.846              1.272              0.684
 Vibration    27          0.866              1.227              0.632
 Vibration    28          0.876              1.204              0.608
 Vibration    29          0.886              1.181              0.585
 Vibration    30          0.887              1.179              0.582
 Vibration    31          0.903              1.145              0.550
 Vibration    32          0.921              1.107              0.514

 Optimization completed on the basis of negligible forces.
    -- Stationary point found.
 Normal termination of Gaussian 16 at Sat Dec 12 17:54:15 2020.

 ----------------------------------------------------------------------
 # B3LYP/6-311++G(d,p) empiricaldispersion=gd3bj scf=xqc pop=npa geom=c
 heck
 ----------------------------------------------------------------------

 ----------------------------------------
 CID_139506051_JID_10669_Energie_neutraal
 ----------------------------------------
 Structure from the checkpoint file:  "JID_10669.chk"
 Charge =  0 Multiplicity = 1

 SCF Done:  E(RB3LYP) =  -936.451350489     A.U. after   15 cycles
 Normal termination of Gaussian 16 at Sat Dec 12 18:05:09 2020.

 ----------------------------------------------------------------------
 # B3LYP/6-311++G(d,p) empiricaldispersion=gd3bj scf=xqc pop=npa geom=c
 heck
 ----------------------------------------------------------------------

 --------------------------------------
 CID_139506051_JID_10669_Energie_kation
 --------------------------------------
 Structure from the checkpoint file:  "JID_10669.chk"
 Charge =  1 Multiplicity = 2

 SCF Done:  E(UB3LYP) =  -936.155284368     A.U. after   31 cycles
 Normal termination of Gaussian 16 at Sat Dec 12 18:36:59 2020.
 Gaussian 16:  ES64L-G16RevA.03 25-Dec-2016

 ----------------------------------------------------------------------
 # B3LYP/6-311++G(d,p) empiricaldispersion=gd3bj scf=xqc pop=npa geom=c
 heck
 ----------------------------------------------------------------------

 -------------------------------------
 CID_139506051_JID_10669_Energie_anion
 -------------------------------------
 Structure from the checkpoint file:  "JID_10669.chk"
 Charge = -1 Multiplicity = 2

                         Standard orientation:
 ---------------------------------------------------------------------
 Center     Atomic      Atomic             Coordinates (Angstroms)
 Number     Number       Type             X           Y           Z
 ---------------------------------------------------------------------
      1          6           0        3.590363    3.095235    0.672603
      2          6           0        3.194763    1.692554    0.279124
      3          6           0        3.981187    0.596648    0.653346
      4          6           0        3.641181   -0.708076    0.286715
      5          6           0        2.483678   -0.912842   -0.473227
      6          6           0        1.682287    0.161230   -0.858905
      7          6           0        2.041623    1.456888   -0.473320
      8          6           0        0.433607   -0.038964   -1.699658
      9          7           0       -0.249898   -1.323239   -1.534671
     10          6           0       -0.514644   -1.999568   -0.346786
     11          8           0       -0.536758   -3.226798   -0.324268
     12          7           0       -0.769210   -1.265374    0.795087
     13          6           0       -1.208238    0.113630    0.874221
     14          6           0       -2.466866    0.456627    0.027354
     15          6           0       -3.711017   -0.031657    0.760030
     16          8           0       -4.471169    0.681181    1.381058
     17          8           0       -3.849710   -1.375471    0.695740
     18          7           0       -2.494951    1.882688   -0.247521
     19          6           0       -3.469479    2.255092   -1.274973
     20          6           0        4.503489   -1.879194    0.691509
     21          1           0        4.032137    3.120484    1.674626
     22          1           0        4.336348    3.506108   -0.020434
     23          1           0        2.728997    3.770842    0.663459
     24          1           0        4.872981    0.763824    1.254284
     25          1           0        2.194577   -1.925373   -0.741899
     26          1           0        1.403583    2.293104   -0.754189
     27          1           0       -0.259221    0.792290   -1.527417
     28          1           0        0.695867    0.014732   -2.762946
     29          1           0       -0.024784   -2.015159   -2.237562
     30          1           0       -1.096215   -1.885028    1.523389
     31          1           0       -1.398212    0.330449    1.930491
     32          1           0       -0.415255    0.794547    0.561880
     33          1           0       -2.385199   -0.081637   -0.921966
     34          1           0       -4.640172   -1.600179    1.223444
     35          1           0       -2.740746    2.364921    0.616808
     36          1           0       -4.504779    1.962386   -1.039860
     37          1           0       -3.441715    3.339985   -1.414519
     38          1           0       -3.183925    1.787221   -2.223741
     39          1           0        5.115581   -2.230327   -0.149475
     40          1           0        5.185038   -1.611917    1.505150
     41          1           0        3.893026   -2.726705    1.021764
 ---------------------------------------------------------------------

 SCF Done:  E(UB3LYP) =  -936.441817675     A.U. after   33 cycles
 SCF Done:  E(UB3LYP) =  -936.441817675     a.u. after    1 cycles

 The electronic state is 2-A.
 Alpha  occ. eigenvalues --  -19.08710 -19.03493 -18.98512 -14.24100 -14.23857
 Alpha  occ. eigenvalues --  -14.22278 -10.22105 -10.20074 -10.13066 -10.12770
 Alpha  occ. eigenvalues --  -10.12137 -10.10454 -10.09443 -10.09414 -10.09041
 Alpha  occ. eigenvalues --  -10.08380 -10.08292 -10.07858 -10.07743 -10.07578
 Alpha  occ. eigenvalues --   -1.02803  -0.95329  -0.93998  -0.84587  -0.83007
 Alpha  occ. eigenvalues --   -0.81561  -0.77231  -0.69603  -0.68918  -0.67859
 Alpha  occ. eigenvalues --   -0.61775  -0.60043  -0.59491  -0.59062  -0.58138
 Alpha  occ. eigenvalues --   -0.52619  -0.50622  -0.49048  -0.48508  -0.44356
 Alpha  occ. eigenvalues --   -0.42310  -0.41793  -0.41176  -0.40717  -0.39527
 Alpha  occ. eigenvalues --   -0.38807  -0.38422  -0.36689  -0.35760  -0.35145
 Alpha  occ. eigenvalues --   -0.34450  -0.34004  -0.33662  -0.33099  -0.32870
 Alpha  occ. eigenvalues --   -0.31934  -0.31897  -0.31527  -0.31177  -0.30741
 Alpha  occ. eigenvalues --   -0.29219  -0.28870  -0.28425  -0.27876  -0.25649
 Alpha  occ. eigenvalues --   -0.25273  -0.24977  -0.24569  -0.20601  -0.18220
 Alpha  occ. eigenvalues --   -0.17064  -0.16421  -0.15696  -0.15311  -0.14925
 Alpha  occ. eigenvalues --    0.03806
 Alpha virt. eigenvalues --    0.05405   0.05867   0.06275   0.06953   0.07085
 Alpha virt. eigenvalues --    0.07418   0.07565   0.08016   0.08608   0.09342
 Alpha virt. eigenvalues --    0.09542   0.09659   0.10182   0.10667   0.11163

  Beta  occ. eigenvalues --  -19.08660 -19.03476 -18.98508 -14.24089 -14.23841
  Beta  occ. eigenvalues --  -14.22266 -10.22099 -10.20074 -10.13056 -10.12756
  Beta  occ. eigenvalues --  -10.12118 -10.10433 -10.09447 -10.09406 -10.09008
  Beta  occ. eigenvalues --  -10.08369 -10.08272 -10.07855 -10.07714 -10.07561
  Beta  occ. eigenvalues --   -1.02736  -0.95321  -0.93941  -0.84568  -0.82983
  Beta  occ. eigenvalues --   -0.81531  -0.77197  -0.69579  -0.68862  -0.67823
  Beta  occ. eigenvalues --   -0.61739  -0.59993  -0.59458  -0.59009  -0.58080
  Beta  occ. eigenvalues --   -0.52568  -0.50555  -0.49016  -0.48459  -0.44321
  Beta  occ. eigenvalues --   -0.42279  -0.41760  -0.41137  -0.40680  -0.39483
  Beta  occ. eigenvalues --   -0.38769  -0.38381  -0.36652  -0.35723  -0.35104
  Beta  occ. eigenvalues --   -0.34412  -0.33969  -0.33638  -0.33076  -0.32830
  Beta  occ. eigenvalues --   -0.31910  -0.31870  -0.31506  -0.31148  -0.30700
  Beta  occ. eigenvalues --   -0.29194  -0.28841  -0.28397  -0.27849  -0.25606
  Beta  occ. eigenvalues --   -0.25238  -0.24930  -0.24513  -0.20566  -0.18201
  Beta  occ. eigenvalues --   -0.17044  -0.16397  -0.15634  -0.15220  -0.14849
  Beta virt. eigenvalues --    0.05659   0.06274   0.06567   0.06765   0.07157
  Beta virt. eigenvalues --    0.07202   0.07672   0.07807   0.08238   0.08976
  Beta virt. eigenvalues --    0.09504   0.09695   0.09881   0.10370   0.10807

 Mulliken charges and spin densities:
               1          2
     1  C    0.359374  -0.947230
     2  C   -0.332295   0.524963
     3  C   -0.155600  -0.077176
     4  C   -0.099033   0.436949
     5  C   -0.509096   0.186424
     6  C    0.987325  -0.320013
     7  C   -0.800665   0.135447
     8  C    0.132965  -0.675753
     9  N   -0.239862   0.004860
    10  C    0.093505  -0.156654
    11  O   -0.349159   0.025590
    12  N   -0.120657   0.042521
    13  C   -0.619431   0.022887
    14  C   -0.365703  -0.180256
    15  C    0.359625  -0.458816
    16  O   -0.259832   0.012889
    17  O   -0.132067   0.008060
    18  N   -0.029687   0.098781
    19  C    0.158103  -0.515114
    20  C    0.187043  -0.784633
    21  H   -0.164039   0.310405
    22  H    0.052736   0.106761
    23  H   -0.116135   0.261149
    24  H   -0.070229   0.206233
    25  H    0.199939   0.007553
    26  H    0.105936   0.069515
    27  H    0.436686  -0.162811
    28  H   -0.641716   0.856577
    29  H    0.143915   0.199470
    30  H    0.225086   0.111092
    31  H   -0.120989   0.303966
    32  H    0.377884  -0.153223
    33  H    0.465663  -0.127583
    34  H   -0.193288   0.504960
    35  H    0.191109   0.073274
    36  H   -0.012847   0.160384
    37  H   -0.108453   0.249965
    38  H   -0.130043   0.267747
    39  H    0.070212   0.093127
    40  H   -0.089219   0.234866
    41  H    0.112937   0.042846
 Sum of Mulliken charges =  -1.00000   1.00000

 Dipole moment (field-independent basis, Debye):
    X=              2.2069    Y=              1.4333    Z=              0.5043  Tot=              2.6793
 Quadrupole moment (field-independent basis, Debye-Ang):
   XX=           -202.9226   YY=           -175.2236   ZZ=           -160.8264
   XY=             -8.2308   XZ=              2.8742   YZ=             -0.7472

 Summary of Natural Population Analysis:

                                       Natural Population
                Natural  -----------------------------------------------
    Atom  No    Charge         Core      Valence    Rydberg      Total
 -----------------------------------------------------------------------
      C    1   -0.29099      0.99964     2.28638    0.00497     3.29099
      C    2   -0.00877      0.99952     2.00044    0.00881     3.00877
      C    3   -0.10237      0.99947     2.09439    0.00852     3.10237
      C    4   -0.00883      0.99952     2.00087    0.00844     3.00883
      C    5   -0.10425      0.99946     2.09559    0.00921     3.10425
      C    6   -0.01246      0.99950     2.00309    0.00987     3.01246
      C    7   -0.10954      0.99946     2.10072    0.00936     3.10954
      C    8   -0.10245      0.99957     2.09016    0.01273     3.10245
      N    9   -0.33673      0.99969     2.82677    0.01028     3.83673
      C   10    0.40931      0.99969     1.56799    0.02301     2.59069
      O   11   -0.33911      0.99988     3.33417    0.00506     4.33911
      N   12   -0.32602      0.99967     2.81682    0.00953     3.82602
      C   13   -0.09066      0.99958     2.07926    0.01181     3.09066
      C   14   -0.06788      0.99954     2.05517    0.01317     3.06788
      C   15    0.40165      0.99969     1.57186    0.02680     2.59835
      O   16   -0.31143      0.99987     3.30490    0.00666     4.31143
      O   17   -0.33937      0.99987     3.33256    0.00694     4.33937
      N   18   -0.33564      0.99975     2.82486    0.01103     3.83564
      C   19   -0.17860      0.99966     2.17223    0.00671     3.17860
      C   20   -0.29150      0.99964     2.28707    0.00480     3.29150
      H   21    0.10301      0.00000     0.39563    0.00136     0.39699
      H   22    0.10264      0.00000     0.39611    0.00124     0.39736
      H   23    0.10272      0.00000     0.39611    0.00117     0.39728
      H   24    0.09640      0.00000     0.40263    0.00097     0.40360
      H   25    0.10431      0.00000     0.39420    0.00149     0.39569
      H   26    0.10092      0.00000     0.39771    0.00137     0.39908
      H   27    0.10139      0.00000     0.39597    0.00264     0.39861
      H   28    0.11090      0.00000     0.38650    0.00260     0.38910
      H   29    0.19698      0.00000     0.30081    0.00222     0.30302
      H   30    0.19869      0.00000     0.29920    0.00211     0.30131
      H   31    0.10216      0.00000     0.39679    0.00105     0.39784
      H   32    0.10988      0.00000     0.38741    0.00271     0.39012
      H   33    0.11460      0.00000     0.38263    0.00277     0.38540
      H   34    0.24249      0.00000     0.24701    0.01050     0.25751
      H   35    0.17715      0.00000     0.31989    0.00296     0.32285
      H   36    0.08520      0.00000     0.41316    0.00163     0.41480
      H   37    0.09519      0.00000     0.40380    0.00101     0.40481
      H   38    0.09275      0.00000     0.40599    0.00127     0.40725
      H   39    0.10277      0.00000     0.39603    0.00120     0.39723
      H   40    0.10066      0.00000     0.39836    0.00098     0.39934
      H   41    0.10483      0.00000     0.39416    0.00101     0.39517
 =======================================================================
   * Total *   -0.00000     19.99265    54.75539    0.25196    75.00000

 Normal termination of Gaussian 16 at Sat Dec 12 19:10:53 2020.
