 Gaussian 16, Revision A.03,

 -----------------------------------------------------------
 # opt freq B3LYP/6-31G(d) empiricaldispersion=gd3bj scf=xqc
 -----------------------------------------------------------

 -------------------------------
 CID_116039998_JID_1605_neutraal
 -------------------------------
 Symbolic Z-matrix:
 Charge =  0 Multiplicity = 1

 SCF Done:  E(RB3LYP) =  -859.335373594     A.U. after   14 cycles
 SCF Done:  E(RB3LYP) =  -859.339974185     A.U. after   12 cycles
 SCF Done:  E(RB3LYP) =  -859.341402890     A.U. after   12 cycles
 SCF Done:  E(RB3LYP) =  -859.341748459     A.U. after   12 cycles
 SCF Done:  E(RB3LYP) =  -859.341826054     A.U. after   12 cycles
 SCF Done:  E(RB3LYP) =  -859.341896614     A.U. after   12 cycles
 SCF Done:  E(RB3LYP) =  -859.342153989     A.U. after   11 cycles
 SCF Done:  E(RB3LYP) =  -859.342166957     A.U. after   10 cycles
 SCF Done:  E(RB3LYP) =  -859.342169304     A.U. after    9 cycles
 SCF Done:  E(RB3LYP) =  -859.342170239     A.U. after    8 cycles
 SCF Done:  E(RB3LYP) =  -859.342174086     A.U. after    7 cycles
 SCF Done:  E(RB3LYP) =  -859.342175436     A.U. after    9 cycles
 SCF Done:  E(RB3LYP) =  -859.342176785     A.U. after    8 cycles
 SCF Done:  E(RB3LYP) =  -859.342177572     A.U. after    8 cycles
 SCF Done:  E(RB3LYP) =  -859.342177960     A.U. after    8 cycles
 SCF Done:  E(RB3LYP) =  -859.342178072     A.U. after    7 cycles
 Optimization completed.
    -- Stationary point found.
 Normal termination of Gaussian 16 at Tue Dec  8 20:39:07 2020.

 --------------------------------------------------------------------
 #N Geom=AllCheck Guess=TCheck SCRF=Check GenChk RB3LYP/6-31G(d) Freq
 --------------------------------------------------------------------

 Structure from the checkpoint file:  "JID_1605.chk"
 -------------------------------
 CID_116039998_JID_1605_neutraal
 -------------------------------
 Charge =  0 Multiplicity = 1

 SCF Done:  E(RB3LYP) =  -859.342178072     A.U. after    1 cycles

  Exact polarizability: 127.634   0.065 103.944  -4.991  -1.526  89.103
 Approx polarizability: 153.794   0.262 158.626  -6.912  -0.809 136.801

                      1                      2                      3
                      A                      A                      A
 Frequencies --     26.5122                42.3872                57.3064
 Red. masses --      4.2748                 3.9718                 3.1934
 Frc consts  --      0.0018                 0.0042                 0.0062
 IR Inten    --      1.9503                 3.7311                 0.7758

                      4                      5                      6
                      A                      A                      A
 Frequencies --     84.8930                93.5210               126.3952
 Red. masses --      1.4890                 3.0145                 4.4580
 Frc consts  --      0.0063                 0.0155                 0.0420
 IR Inten    --      1.4341                 3.1030                 2.2058

                      7                      8                      9
                      A                      A                      A
 Frequencies --    149.9057               167.1823               178.6637
 Red. masses --      2.4027                 1.7576                 1.4930
 Frc consts  --      0.0318                 0.0289                 0.0281
 IR Inten    --      1.3145                 0.9802                 4.4028

                     10                     11                     12
                      A                      A                      A
 Frequencies --    226.8188               241.8378               268.4199
 Red. masses --      2.3746                 3.0253                 1.0821
 Frc consts  --      0.0720                 0.1042                 0.0459
 IR Inten    --      1.2075                 0.2521                 0.8831

                     13                     14                     15
                      A                      A                      A
 Frequencies --    284.1074               338.7273               358.1083
 Red. masses --      2.3875                 3.5770                 2.5380
 Frc consts  --      0.1135                 0.2418                 0.1918
 IR Inten    --     11.5099                10.7501                 4.3995

                     16                     17                     18
                      A                      A                      A
 Frequencies --    401.2552               471.0000               541.7252
 Red. masses --      3.2133                 1.3090                 3.7717
 Frc consts  --      0.3048                 0.1711                 0.6522
 IR Inten    --      2.7680                43.4652                 6.0083

                     19                     20                     21
                      A                      A                      A
 Frequencies --    575.9100               612.9250               616.2839
 Red. masses --      4.2072                 2.9993                 2.6231
 Frc consts  --      0.8222                 0.6639                 0.5870
 IR Inten    --      8.4469                27.2796                36.0527

                     22                     23                     24
                      A                      A                      A
 Frequencies --    660.4061               716.5990               795.0510
 Red. masses --      2.8283                 5.9321                 2.5114
 Frc consts  --      0.7268                 1.7948                 0.9353
 IR Inten    --      5.7160                 1.1942                60.6511

                     25                     26                     27
                      A                      A                      A
 Frequencies --    856.6216               906.9518               946.1497
 Red. masses --      2.2390                 2.0727                 2.0097
 Frc consts  --      0.9680                 1.0045                 1.0600
 IR Inten    --     42.5823                28.3045                11.1001

                     28                     29                     30
                      A                      A                      A
 Frequencies --    986.5248               988.4927              1000.9625
 Red. masses --      1.3228                 1.6442                 1.1824
 Frc consts  --      0.7585                 0.9465                 0.6980
 IR Inten    --     28.9556                 5.7531                12.8252

                     31                     32                     33
                      A                      A                      A
 Frequencies --   1048.0519              1062.4782              1069.6424
 Red. masses --      1.6061                 1.7535                 1.7443
 Frc consts  --      1.0394                 1.1662                 1.1758
 IR Inten    --      2.6547                22.8684                26.0950

                     34                     35                     36
                      A                      A                      A
 Frequencies --   1132.6157              1160.2946              1165.7609
 Red. masses --      2.4760                 1.2773                 1.7784
 Frc consts  --      1.8714                 1.0132                 1.4240
 IR Inten    --     26.0445                 4.7487                 5.8449

                     37                     38                     39
                      A                      A                      A
 Frequencies --   1192.7891              1210.7231              1264.1814
 Red. masses --      2.8966                 2.2778                 1.2053
 Frc consts  --      2.4281                 1.9673                 1.1349
 IR Inten    --     20.6643                 3.9077                 5.0771

                     40                     41                     42
                      A                      A                      A
 Frequencies --   1291.8671              1320.2037              1343.1895
 Red. masses --      1.2747                 1.5830                 1.2498
 Frc consts  --      1.2534                 1.6256                 1.3285
 IR Inten    --      7.5980               136.8040                31.1763

                     43                     44                     45
                      A                      A                      A
 Frequencies --   1354.4663              1377.0983              1404.5412
 Red. masses --      1.4387                 1.1674                 1.5683
 Frc consts  --      1.5551                 1.3043                 1.8228
 IR Inten    --      0.4350                 9.6360                22.5774

                     46                     47                     48
                      A                      A                      A
 Frequencies --   1424.6082              1443.0524              1474.1938
 Red. masses --      1.3985                 1.2656                 1.6302
 Frc consts  --      1.6722                 1.5527                 2.0874
 IR Inten    --     21.1142                12.2928                18.5797

                     49                     50                     51
                      A                      A                      A
 Frequencies --   1495.5191              1496.9484              1502.3739
 Red. masses --      1.0778                 1.0964                 1.2957
 Frc consts  --      1.4203                 1.4475                 1.7231
 IR Inten    --     16.3082                 2.5425                21.7785

                     52                     53                     54
                      A                      A                      A
 Frequencies --   1517.1370              1522.8977              1525.8441
 Red. masses --      1.0561                 1.0622                 1.1053
 Frc consts  --      1.4321                 1.4515                 1.5162
 IR Inten    --      3.5149                 8.4065                 6.1691

                     55                     56                     57
                      A                      A                      A
 Frequencies --   1535.2851              1537.5081              1548.0940
 Red. masses --      1.0564                 1.0968                 1.0786
 Frc consts  --      1.4671                 1.5276                 1.5230
 IR Inten    --     12.8798                11.6820                31.2751

                     58                     59                     60
                      A                      A                      A
 Frequencies --   1553.7084              1784.1104              2966.4158
 Red. masses --      1.1031                 8.1999                 1.0710
 Frc consts  --      1.5690                15.3781                 5.5526
 IR Inten    --     15.6724               301.9007                51.2925

                     61                     62                     63
                      A                      A                      A
 Frequencies --   3028.0833              3037.6134              3051.6028
 Red. masses --      1.0676                 1.0437                 1.0396
 Frc consts  --      5.7676                 5.6739                 5.7041
 IR Inten    --     34.1056                42.1694                19.3343

                     64                     65                     66
                      A                      A                      A
 Frequencies --   3058.4344              3064.5537              3085.8265
 Red. masses --      1.0837                 1.0312                 1.0911
 Frc consts  --      5.9723                 5.7058                 6.1214
 IR Inten    --     13.4952                32.0653                10.8108

                     67                     68                     69
                      A                      A                      A
 Frequencies --   3091.8097              3101.5163              3117.7516
 Red. masses --      1.0939                 1.0961                 1.0982
 Frc consts  --      6.1612                 6.2120                 6.2894
 IR Inten    --     29.3434                24.0764                24.1897

                     70                     71                     72
                      A                      A                      A
 Frequencies --   3138.5534              3143.0098              3150.1993
 Red. masses --      1.1026                 1.1042                 1.1010
 Frc consts  --      6.3994                 6.4269                 6.4376
 IR Inten    --     23.5570                15.3661                18.4332

                     73                     74                     75
                      A                      A                      A
 Frequencies --   3178.3110              3482.5200              3605.1528
 Red. masses --      1.1062                 1.0718                 1.0766
 Frc consts  --      6.5837                 7.6589                 8.2439
 IR Inten    --      0.2686                 4.6454                21.8694

 - Thermochemistry -
 -------------------
 Temperature   298.150 Kelvin.  Pressure   1.00000 Atm.
 Atom     1 has atomic number  6 and mass  12.00000

 Molecular mass:   176.09834 amu.
 Principal axes and moments of inertia in atomic units:
                           1         2         3
     Eigenvalues --   914.721694650.797585025.26092
           X            0.99961  -0.02351  -0.01480
           Y            0.02303   0.99923  -0.03176
           Z            0.01554   0.03141   0.99939
 This molecule is an asymmetric top.
 Rotational symmetry number  1.
 Warning -- assumption of classical behavior for rotation
           may cause significant error
 Rotational temperatures (Kelvin)      0.09469     0.01862     0.01724
 Rotational constants (GHZ):           1.97299     0.38805     0.35913
 Zero-point vibrational energy     620755.3 (Joules/Mol)
                                  148.36408 (Kcal/Mol)
 Warning -- explicit consideration of  21 degrees of freedom as
           vibrations may cause significant error
 Vibrational temperatures:     38.15    60.99    82.45   122.14   134.56
          (Kelvin)            181.85   215.68   240.54   257.06   326.34
                              347.95   386.20   408.77   487.35   515.24
                              577.32   677.66   779.42   828.61   881.86
                              886.70   950.18  1031.03  1143.90  1232.49
                             1304.90  1361.30  1419.39  1422.22  1440.16
                             1507.91  1528.67  1538.98  1629.58  1669.41
                             1677.27  1716.16  1741.96  1818.88  1858.71
                             1899.48  1932.55  1948.77  1981.34  2020.82
                             2049.69  2076.23  2121.04  2151.72  2153.77
                             2161.58  2182.82  2191.11  2195.35  2208.93
                             2212.13  2227.36  2235.44  2566.94  4268.01
                             4356.74  4370.45  4390.58  4400.40  4409.21
                             4439.82  4448.42  4462.39  4485.75  4515.68
                             4522.09  4532.43  4572.88  5010.57  5187.01

 Zero-point correction=                           0.236433 (Hartree/Particle)
 Thermal correction to Energy=                    0.250650
 Thermal correction to Enthalpy=                  0.251594
 Thermal correction to Gibbs Free Energy=         0.193845
 Sum of electronic and zero-point Energies=           -859.105745
 Sum of electronic and thermal Energies=              -859.091529
 Sum of electronic and thermal Enthalpies=            -859.090584
 Sum of electronic and thermal Free Energies=         -859.148333

                     E (Thermal)             CV                S
                      KCal/Mol        Cal/Mol-Kelvin    Cal/Mol-Kelvin
 Total                  157.285             49.590            121.543
 Electronic               0.000              0.000              0.000
 Translational            0.889              2.981             41.405
 Rotational               0.889              2.981             31.436
 Vibrational            155.508             43.628             48.702
 Vibration     1          0.593              1.984              6.075
 Vibration     2          0.595              1.980              5.144
 Vibration     3          0.596              1.975              4.548
 Vibration     4          0.601              1.960              3.774
 Vibration     5          0.603              1.954              3.585
 Vibration     6          0.611              1.927              3.000
 Vibration     7          0.618              1.903              2.673
 Vibration     8          0.624              1.883              2.467
 Vibration     9          0.629              1.869              2.342
 Vibration    10          0.650              1.800              1.904
 Vibration    11          0.658              1.776              1.789
 Vibration    12          0.673              1.731              1.606
 Vibration    13          0.683              1.703              1.509
 Vibration    14          0.719              1.598              1.218
 Vibration    15          0.733              1.559              1.130
 Vibration    16          0.767              1.467              0.958
 Vibration    17          0.828              1.314              0.735
 Vibration    18          0.897              1.158              0.562
 Vibration    19          0.932              1.083              0.493
 Vibration    20          0.972              1.004              0.428
 Vibration    21          0.976              0.997              0.422

                           ! Non-Optimized Parameters !
 Normal termination of Gaussian 16 at Tue Dec  8 20:45:48 2020.

 ----------------------------------------------------------------------
 # B3LYP/6-311++G(d,p) empiricaldispersion=gd3bj scf=xqc pop=npa geom=c
 heck
 ----------------------------------------------------------------------

 ---------------------------------------
 CID_116039998_JID_1605_Energie_neutraal
 ---------------------------------------
 Structure from the checkpoint file:  "JID_1605.chk"
 Charge =  0 Multiplicity = 1

 SCF Done:  E(RB3LYP) =  -859.511601983     A.U. after   13 cycles
 Normal termination of Gaussian 16 at Tue Dec  8 20:49:13 2020.

 ----------------------------------------------------------------------
 # B3LYP/6-311++G(d,p) empiricaldispersion=gd3bj scf=xqc pop=npa geom=c
 heck
 ----------------------------------------------------------------------

 -------------------------------------
 CID_116039998_JID_1605_Energie_kation
 -------------------------------------
 Structure from the checkpoint file:  "JID_1605.chk"
 Charge =  1 Multiplicity = 2

 SCF Done:  E(UB3LYP) =  -859.226472112     A.U. after   25 cycles
 Normal termination of Gaussian 16 at Tue Dec  8 20:57:27 2020.
 Gaussian 16:  ES64L-G16RevA.03 25-Dec-2016

 ----------------------------------------------------------------------
 # B3LYP/6-311++G(d,p) empiricaldispersion=gd3bj scf=xqc pop=npa geom=c
 heck
 ----------------------------------------------------------------------

 ------------------------------------
 CID_116039998_JID_1605_Energie_anion
 ------------------------------------
 Structure from the checkpoint file:  "JID_1605.chk"
 Charge = -1 Multiplicity = 2

                         Standard orientation:
 ---------------------------------------------------------------------
 Center     Atomic      Atomic             Coordinates (Angstroms)
 Number     Number       Type             X           Y           Z
 ---------------------------------------------------------------------
      1          6           0       -2.123452    1.822439    0.239558
      2          6           0       -1.912113    0.682554   -0.759794
      3          6           0       -0.454217    0.210376   -0.828062
      4          7           0        0.060210   -0.238166    0.470876
      5          6           0        1.433857   -0.699437    0.389070
      6          6           0        2.441109    0.456374    0.256255
      7          8           0        2.105219    1.615748    0.478388
      8          7           0        3.723177    0.125788   -0.068062
      9          6           0        4.215811   -1.197153   -0.412697
     10         16           0       -3.135035   -0.689334   -0.562518
     11          6           0       -2.958745   -1.156952    1.197155
     12          1           0       -1.983668    1.486522    1.271858
     13          1           0       -3.135480    2.228122    0.156162
     14          1           0       -1.403748    2.629021    0.052026
     15          1           0       -2.162049    1.053927   -1.761378
     16          1           0       -0.389429   -0.633269   -1.523525
     17          1           0        0.149110    1.036623   -1.245144
     18          1           0        0.068443    0.570741    1.092355
     19          1           0        1.688532   -1.263029    1.298647
     20          1           0        1.529831   -1.402035   -0.446385
     21          1           0        4.348318    0.916981   -0.152281
     22          1           0        3.853958   -1.540102   -1.391231
     23          1           0        5.306885   -1.164069   -0.446169
     24          1           0        3.928172   -1.936712    0.341655
     25          1           0       -1.912951   -1.368575    1.422458
     26          1           0       -3.339991   -0.376192    1.861488
     27          1           0       -3.564341   -2.057149    1.334033
 ---------------------------------------------------------------------

 SCF Done:  E(UB3LYP) =  -859.501739758     A.U. after   32 cycles

 The electronic state is 2-A.
 Alpha  occ. eigenvalues --  -88.74363 -18.98857 -14.23432 -14.20444 -10.16926
 Alpha  occ. eigenvalues --  -10.11845 -10.10347 -10.10064 -10.09577 -10.09521
 Alpha  occ. eigenvalues --  -10.08212  -7.82971  -5.79378  -5.79001  -5.78330
 Alpha  occ. eigenvalues --   -0.93909  -0.81947  -0.81767  -0.72424  -0.65748
 Alpha  occ. eigenvalues --   -0.62142  -0.60113  -0.58130  -0.54353  -0.47693
 Alpha  occ. eigenvalues --   -0.46938  -0.40857  -0.39164  -0.38726  -0.37556
 Alpha  occ. eigenvalues --   -0.36286  -0.34396  -0.34148  -0.32421  -0.32249
 Alpha  occ. eigenvalues --   -0.31389  -0.30921  -0.29977  -0.28992  -0.27922
 Alpha  occ. eigenvalues --   -0.26477  -0.25890  -0.24768  -0.21331  -0.16791
 Alpha  occ. eigenvalues --   -0.15423  -0.14313  -0.12811   0.04342
 Alpha virt. eigenvalues --    0.06042   0.07073   0.07947   0.08441   0.09186
 Alpha virt. eigenvalues --    0.09445   0.10451   0.10600   0.10967   0.11593
 Alpha virt. eigenvalues --    0.11745   0.12718   0.13104   0.13284   0.14047

  Beta  occ. eigenvalues --  -88.74361 -18.98853 -14.23409 -14.20437 -10.16926
  Beta  occ. eigenvalues --  -10.11842 -10.10313 -10.10056 -10.09504 -10.09490
  Beta  occ. eigenvalues --  -10.08202  -7.82969  -5.79374  -5.78998  -5.78329
  Beta  occ. eigenvalues --   -0.93898  -0.81904  -0.81754  -0.72409  -0.65727
  Beta  occ. eigenvalues --   -0.62092  -0.59999  -0.58081  -0.54320  -0.47642
  Beta  occ. eigenvalues --   -0.46920  -0.40822  -0.39117  -0.38622  -0.37530
  Beta  occ. eigenvalues --   -0.36255  -0.34362  -0.34123  -0.32392  -0.32221
  Beta  occ. eigenvalues --   -0.31366  -0.30895  -0.29930  -0.28916  -0.27896
  Beta  occ. eigenvalues --   -0.26449  -0.25875  -0.24747  -0.21317  -0.16777
  Beta  occ. eigenvalues --   -0.15387  -0.14293  -0.12798
  Beta virt. eigenvalues --    0.06121   0.07095   0.07636   0.08292   0.09313
  Beta virt. eigenvalues --    0.09716   0.10170   0.10456   0.10869   0.11262
  Beta virt. eigenvalues --    0.11695   0.12004   0.12991   0.13292   0.13712

 Mulliken charges and spin densities:
               1          2
     1  C   -0.310520  -0.438007
     2  C    0.096382   0.476336
     3  C   -0.319696  -0.456891
     4  N   -0.116572   0.072514
     5  C    0.886570  -1.334526
     6  C   -0.403913   0.538104
     7  O   -0.368031   0.002123
     8  N   -0.580451   0.360803
     9  C    2.256225  -2.614606
    10  S   -0.040634   0.020964
    11  C   -0.360262  -0.363705
    12  H    0.072254   0.075288
    13  H    0.054670   0.099842
    14  H    0.148441   0.008975
    15  H    0.169901   0.088909
    16  H   -0.016936   0.136844
    17  H    0.082283   0.080789
    18  H    0.236385  -0.003254
    19  H   -0.286136   0.504989
    20  H    0.197212  -0.009907
    21  H   -0.145291   0.452029
    22  H   -0.621991   0.793154
    23  H   -1.170028   1.340456
    24  H   -0.590281   0.758627
    25  H    0.142076   0.096662
    26  H    0.012640   0.149199
    27  H   -0.024297   0.164292
 Sum of Mulliken charges =  -1.00000   1.00000

 Dipole moment (field-independent basis, Debye):
    X=            -11.2137    Y=              3.7256    Z=              0.4109  Tot=             11.8235
 Quadrupole moment (field-independent basis, Debye-Ang):
   XX=           -188.6982   YY=           -115.4377   ZZ=           -104.8592
   XY=             11.8165   XZ=              4.4993   YZ=             -3.1715

 Summary of Natural Population Analysis:

                                       Natural Population
                Natural  -----------------------------------------------
    Atom  No    Charge         Core      Valence    Rydberg      Total
 -----------------------------------------------------------------------
      C    1   -0.29492      0.99963     2.28956    0.00573     3.29492
      C    2   -0.16649      0.99957     2.15461    0.01231     3.16649
      C    3   -0.09332      0.99958     2.08087    0.01287     3.09332
      N    4   -0.34470      0.99975     2.83264    0.01231     3.84470
      C    5   -0.13181      0.99959     2.12119    0.01103     3.13181
      C    6    0.33598      0.99967     1.64184    0.02251     2.66402
      O    7   -0.33696      0.99988     3.33098    0.00610     4.33696
      N    8   -0.31411      0.99968     2.80304    0.01139     3.81411
      C    9   -0.18300      0.99965     2.17469    0.00867     3.18300
      S   10    0.07824      4.99963     2.90341    0.01873     7.92176
      C   11   -0.35578      0.99962     2.35034    0.00582     3.35578
      H   12    0.09960      0.00000     0.39925    0.00115     0.40040
      H   13    0.10214      0.00000     0.39658    0.00128     0.39786
      H   14    0.10480      0.00000     0.39414    0.00105     0.39520
      H   15    0.10419      0.00000     0.39475    0.00106     0.39581
      H   16    0.09712      0.00000     0.40112    0.00177     0.40288
      H   17    0.08935      0.00000     0.40917    0.00148     0.41065
      H   18    0.17875      0.00000     0.31770    0.00355     0.32125
      H   19    0.10921      0.00000     0.38937    0.00142     0.39079
      H   20    0.10476      0.00000     0.39344    0.00180     0.39524
      H   21    0.19630      0.00000     0.30060    0.00311     0.30370
      H   22    0.09569      0.00000     0.40052    0.00379     0.40431
      H   23    0.10876      0.00000     0.38393    0.00732     0.39124
      H   24    0.09883      0.00000     0.39760    0.00356     0.40117
      H   25    0.11888      0.00000     0.37914    0.00199     0.38112
      H   26    0.09538      0.00000     0.40267    0.00195     0.40462
      H   27    0.10311      0.00000     0.39566    0.00123     0.39689
 =======================================================================
   * Total *   -0.00000     14.99624    32.83878    0.16497    48.00000

 Normal termination of Gaussian 16 at Tue Dec  8 21:08:38 2020.
