 Gaussian 16, Revision A.03,

 -----------------------------------------------------------
 # opt freq B3LYP/6-31G(d) empiricaldispersion=gd3bj scf=xqc
 -----------------------------------------------------------

 -------------------------------
 CID_90432381_JID_10939_neutraal
 -------------------------------
 Symbolic Z-matrix:
 Charge =  0 Multiplicity = 1

 SCF Done:  E(RB3LYP) =  -844.641178464     A.U. after   15 cycles
 SCF Done:  E(RB3LYP) =  -844.623376107     A.U. after   14 cycles
 SCF Done:  E(RB3LYP) =  -844.647574649     A.U. after   13 cycles
 SCF Done:  E(RB3LYP) =  -844.647304546     A.U. after   14 cycles
 SCF Done:  E(RB3LYP) =  -844.649662569     A.U. after   13 cycles
 SCF Done:  E(RB3LYP) =  -844.649849161     A.U. after   13 cycles
 SCF Done:  E(RB3LYP) =  -844.650258901     A.U. after   12 cycles
 SCF Done:  E(RB3LYP) =  -844.650507766     A.U. after   12 cycles
 SCF Done:  E(RB3LYP) =  -844.650646858     A.U. after   12 cycles
 SCF Done:  E(RB3LYP) =  -844.650729240     A.U. after   11 cycles
 SCF Done:  E(RB3LYP) =  -844.650930385     A.U. after    9 cycles
 SCF Done:  E(RB3LYP) =  -844.650933623     A.U. after    9 cycles
 SCF Done:  E(RB3LYP) =  -844.650934850     A.U. after    9 cycles
 SCF Done:  E(RB3LYP) =  -844.650935512     A.U. after    7 cycles
 SCF Done:  E(RB3LYP) =  -844.650935879     A.U. after    7 cycles
 SCF Done:  E(RB3LYP) =  -844.650935902     A.U. after    6 cycles
 Optimization completed.
    -- Stationary point found.
 Normal termination of Gaussian 16 at Mon Dec 14 14:08:59 2020.

 --------------------------------------------------------------------
 #N Geom=AllCheck Guess=TCheck SCRF=Check GenChk RB3LYP/6-31G(d) Freq
 --------------------------------------------------------------------

 Structure from the checkpoint file:  "JID_10939.chk"
 -------------------------------
 CID_90432381_JID_10939_neutraal
 -------------------------------
 Charge =  0 Multiplicity = 1

 SCF Done:  E(RB3LYP) =  -844.650935902     A.U. after    1 cycles

  Exact polarizability: 214.753 -27.110 183.115   2.359   0.808 142.301
 Approx polarizability: 304.894 -49.470 300.545   3.636   0.459 245.674

                      1                      2                      3
                      A                      A                      A
 Frequencies --     34.0989                41.0343                51.7202
 Red. masses --      4.3751                 3.8760                 5.3732
 Frc consts  --      0.0030                 0.0038                 0.0085
 IR Inten    --      1.3927                 0.0875                 0.7278

                      4                      5                      6
                      A                      A                      A
 Frequencies --     58.8547                83.2604                87.1319
 Red. masses --      4.7618                 4.4171                 4.9196
 Frc consts  --      0.0097                 0.0180                 0.0220
 IR Inten    --      1.7100                 0.3523                 3.9832

                      7                      8                      9
                      A                      A                      A
 Frequencies --     93.6935               108.9195               122.9894
 Red. masses --      3.2726                 1.1149                 3.0226
 Frc consts  --      0.0169                 0.0078                 0.0269
 IR Inten    --      0.9621                 0.3006                 0.5397

                     10                     11                     12
                      A                      A                      A
 Frequencies --    140.1396               174.2176               187.6844
 Red. masses --      1.3308                 3.0496                 2.7159
 Frc consts  --      0.0154                 0.0545                 0.0564
 IR Inten    --      1.4505                 4.1093                 0.0677

                     13                     14                     15
                      A                      A                      A
 Frequencies --    194.4914               202.4042               241.8178
 Red. masses --      2.5962                 1.2785                 5.2455
 Frc consts  --      0.0579                 0.0309                 0.1807
 IR Inten    --      1.0206                 0.4114                 1.4656

                     16                     17                     18
                      A                      A                      A
 Frequencies --    287.1617               307.5290               341.3834
 Red. masses --      2.7524                 3.9312                 2.9538
 Frc consts  --      0.1337                 0.2191                 0.2028
 IR Inten    --      5.5406                 1.7462                 0.9389

                     19                     20                     21
                      A                      A                      A
 Frequencies --    358.2454               365.4947               383.0897
 Red. masses --      2.4689                 2.5625                 2.9421
 Frc consts  --      0.1867                 0.2017                 0.2544
 IR Inten    --      1.1287                 2.2622                 1.7408

                     22                     23                     24
                      A                      A                      A
 Frequencies --    433.4962               455.7907               472.8144
 Red. masses --      3.1059                 3.4627                 3.1094
 Frc consts  --      0.3439                 0.4238                 0.4096
 IR Inten    --      2.1427                 4.0961                 3.3789

                     25                     26                     27
                      A                      A                      A
 Frequencies --    515.5535               560.3244               564.2510
 Red. masses --      4.1464                 4.7009                 3.5572
 Frc consts  --      0.6493                 0.8696                 0.6673
 IR Inten    --      6.3260                 4.8831                 1.3095

                     28                     29                     30
                      A                      A                      A
 Frequencies --    609.2375               628.0960               641.5785
 Red. masses --      4.1026                 3.7525                 4.1041
 Frc consts  --      0.8972                 0.8722                 0.9953
 IR Inten    --      2.9519                 1.0793                 4.3878

                     31                     32                     33
                      A                      A                      A
 Frequencies --    656.7270               677.4629               679.6979
 Red. masses --      3.5600                 3.9840                 4.0916
 Frc consts  --      0.9046                 1.0773                 1.1137
 IR Inten    --      2.9271                26.7448                 2.1771

                     34                     35                     36
                      A                      A                      A
 Frequencies --    718.8800               751.2390               758.2016
 Red. masses --      1.2282                 3.0653                 3.1237
 Frc consts  --      0.3740                 1.0192                 1.0580
 IR Inten    --     22.1782                 5.8092                 4.3629

                     37                     38                     39
                      A                      A                      A
 Frequencies --    767.4309               781.9628               811.7917
 Red. masses --      2.4167                 1.6056                 1.3316
 Frc consts  --      0.8386                 0.5785                 0.5170
 IR Inten    --      4.0013                25.5431                31.9438

                     40                     41                     42
                      A                      A                      A
 Frequencies --    828.5353               846.1820               895.2486
 Red. masses --      4.3818                 1.3274                 1.2923
 Frc consts  --      1.7722                 0.5600                 0.6102
 IR Inten    --      0.4032                 1.7885                 0.4061

                     43                     44                     45
                      A                      A                      A
 Frequencies --    921.4616               926.0873               959.0953
 Red. masses --      2.4351                 6.0743                 2.0530
 Frc consts  --      1.2182                 3.0694                 1.1126
 IR Inten    --     19.2286                10.6647                 6.2820

                     46                     47                     48
                      A                      A                      A
 Frequencies --    963.8974               982.0949              1002.8566
 Red. masses --      1.4843                 1.7181                 1.2660
 Frc consts  --      0.8125                 0.9763                 0.7502
 IR Inten    --      1.1706                 4.7505                 2.2248

                     49                     50                     51
                      A                      A                      A
 Frequencies --   1020.1596              1033.1187              1056.6807
 Red. masses --      1.5593                 1.8809                 1.7959
 Frc consts  --      0.9561                 1.1828                 1.1815
 IR Inten    --      1.5086                28.7168                 2.3239

                     52                     53                     54
                      A                      A                      A
 Frequencies --   1061.3663              1074.0163              1076.2680
 Red. masses --      2.7901                 2.5171                 1.5149
 Frc consts  --      1.8518                 1.7107                 1.0339
 IR Inten    --      3.0243                28.3117                 2.2787

                     55                     56                     57
                      A                      A                      A
 Frequencies --   1078.8502              1086.0931              1104.3802
 Red. masses --      1.5512                 2.0643                 1.4114
 Frc consts  --      1.0638                 1.4347                 1.0142
 IR Inten    --     15.6923                 1.0634                12.0752

                     58                     59                     60
                      A                      A                      A
 Frequencies --   1107.2664              1134.1122              1149.2452
 Red. masses --      2.3225                 2.8315                 2.0118
 Frc consts  --      1.6777                 2.1458                 1.5655
 IR Inten    --     49.9844                 6.3442                15.0100

                     61                     62                     63
                      A                      A                      A
 Frequencies --   1158.5366              1187.2534              1198.6944
 Red. masses --      1.6309                 1.4608                 1.1131
 Frc consts  --      1.2897                 1.2132                 0.9423
 IR Inten    --      6.0868                 1.1893                 0.1899

                     64                     65                     66
                      A                      A                      A
 Frequencies --   1229.7509              1242.1921              1271.4690
 Red. masses --      1.8862                 1.9710                 1.8411
 Frc consts  --      1.6806                 1.7919                 1.7537
 IR Inten    --     25.8832                 3.1012                37.2565

                     67                     68                     69
                      A                      A                      A
 Frequencies --   1281.9744              1314.3205              1319.1952
 Red. masses --      2.1791                 2.3066                 2.0746
 Frc consts  --      2.1100                 2.3476                 2.1271
 IR Inten    --     28.6747                16.7548                12.7385

                     70                     71                     72
                      A                      A                      A
 Frequencies --   1323.8069              1347.8418              1362.2471
 Red. masses --      2.5562                 3.6317                 1.6355
 Frc consts  --      2.6393                 3.8872                 1.7882
 IR Inten    --      4.2106                 2.2253                25.5207

                     73                     74                     75
                      A                      A                      A
 Frequencies --   1398.0275              1402.3286              1427.2887
 Red. masses --      1.7394                 3.1670                 2.3849
 Frc consts  --      2.0030                 3.6695                 2.8625
 IR Inten    --     12.8459                13.6452                 3.8785

                     76                     77                     78
                      A                      A                      A
 Frequencies --   1429.9870              1441.7017              1448.7449
 Red. masses --      1.2313                 1.2298                 1.2365
 Frc consts  --      1.4835                 1.5060                 1.5291
 IR Inten    --     15.6941                 1.5189                 2.0255

                     79                     80                     81
                      A                      A                      A
 Frequencies --   1486.8724              1493.9942              1504.4353
 Red. masses --      1.8341                 1.1244                 1.1121
 Frc consts  --      2.3891                 1.4787                 1.4830
 IR Inten    --      5.6190                14.4812                13.2947

                     82                     83                     84
                      A                      A                      A
 Frequencies --   1513.6813              1514.5852              1518.8068
 Red. masses --      1.2590                 1.0801                 1.0979
 Frc consts  --      1.6997                 1.4599                 1.4922
 IR Inten    --     23.2724                 5.9984                 8.8727

                     85                     86                     87
                      A                      A                      A
 Frequencies --   1519.7491              1523.9173              1532.6206
 Red. masses --      1.1623                 1.1284                 1.0626
 Frc consts  --      1.5817                 1.5439                 1.4705
 IR Inten    --      1.0946                 7.3454                 4.3050

                     88                     89                     90
                      A                      A                      A
 Frequencies --   1542.3150              1547.0548              1555.5933
 Red. masses --      2.0734                 2.3516                 3.4016
 Frc consts  --      2.9059                 3.3161                 4.8498
 IR Inten    --     19.7276                27.5081                20.3632

                     91                     92                     93
                      A                      A                      A
 Frequencies --   1632.0044              1659.1274              1671.1780
 Red. masses --      5.7209                 5.6070                 6.1155
 Frc consts  --      8.9775                 9.0936                10.0630
 IR Inten    --      0.5622                62.3175                98.3280

                     94                     95                     96
                      A                      A                      A
 Frequencies --   1759.7482              3042.3443              3046.9476
 Red. masses --     10.8996                 1.0444                 1.0412
 Frc consts  --     19.8867                 5.6956                 5.6954
 IR Inten    --    107.9166                14.8419                21.1507

                     97                     98                     99
                      A                      A                      A
 Frequencies --   3048.4474              3080.3091              3087.5934
 Red. masses --      1.0374                 1.0614                 1.0968
 Frc consts  --      5.6803                 5.9335                 6.1605
 IR Inten    --     22.4152                25.5865                12.6001

                    100                    101                    102
                      A                      A                      A
 Frequencies --   3091.2919              3099.0256              3100.8632
 Red. masses --      1.0611                 1.1014                 1.0994
 Frc consts  --      5.9746                 6.2321                 6.2284
 IR Inten    --     24.6581                11.2613                15.8632

                    103                    104                    105
                      A                      A                      A
 Frequencies --   3128.2627              3132.7816              3152.2443
 Red. masses --      1.1019                 1.1057                 1.1025
 Frc consts  --      6.3535                 6.3936                 6.4546
 IR Inten    --     25.0789                 4.6731                18.4589

                    106                    107                    108
                      A                      A                      A
 Frequencies --   3161.0116              3175.4501              3186.2023
 Red. masses --      1.0959                 1.0863                 1.0887
 Frc consts  --      6.4517                 6.4539                 6.5117
 IR Inten    --      6.9486                 5.3909                25.8691

                    109                    110                    111
                      A                      A                      A
 Frequencies --   3195.6179              3203.3847              3207.1567
 Red. masses --      1.0930                 1.0951                 1.0976
 Frc consts  --      6.5763                 6.6210                 6.6517
 IR Inten    --      3.3720                 4.1853                38.1230

                    112                    113                    114
                      A                      A                      A
 Frequencies --   3260.9992              3267.7966              3286.3869
 Red. masses --      1.0910                 1.0963                 1.1050
 Frc consts  --      6.8353                 6.8974                 7.0316
 IR Inten    --      4.7626                 0.5452                 2.4855

 - Thermochemistry -
 -------------------
 Temperature   298.150 Kelvin.  Pressure   1.00000 Atm.
 Atom     1 has atomic number  6 and mass  12.00000

 Molecular mass:   268.15756 amu.
 Principal axes and moments of inertia in atomic units:
                           1         2         3
     Eigenvalues --  3189.594596671.142958278.26141
           X            0.99999   0.00295   0.00411
           Y           -0.00294   0.99999  -0.00180
           Z           -0.00412   0.00179   0.99999
 This molecule is an asymmetric top.
 Rotational symmetry number  1.
 Warning -- assumption of classical behavior for rotation
           may cause significant error
 Rotational temperatures (Kelvin)      0.02716     0.01298     0.01046
 Rotational constants (GHZ):           0.56582     0.27053     0.21801
 Zero-point vibrational energy     887462.1 (Joules/Mol)
                                  212.10853 (Kcal/Mol)
 Warning -- explicit consideration of  28 degrees of freedom as
           vibrations may cause significant error
 Vibrational temperatures:     49.06    59.04    74.41    84.68   119.79
          (Kelvin)            125.36   134.80   156.71   176.95   201.63
                              250.66   270.04   279.83   291.21   347.92
                              413.16   442.47   491.17   515.44   525.87
                              551.18   623.70   655.78   680.27   741.77
                              806.18   811.83   876.56   903.69   923.09
                              944.88   974.72   977.93  1034.31  1080.87
                             1090.88  1104.16  1125.07  1167.99  1192.08
                             1217.47  1288.06  1325.78  1332.43  1379.92
                             1386.83  1413.02  1442.89  1467.78  1486.43
                             1520.33  1527.07  1545.27  1548.51  1552.22
                             1562.65  1588.96  1593.11  1631.73  1653.51
                             1666.88  1708.19  1724.65  1769.34  1787.24
                             1829.36  1844.48  1891.01  1898.03  1904.66
                             1939.24  1959.97  2011.45  2017.64  2053.55
                             2057.43  2074.29  2084.42  2139.28  2149.52
                             2164.55  2177.85  2179.15  2185.22  2186.58
                             2192.58  2205.10  2219.05  2225.87  2238.15
                             2348.09  2387.11  2404.45  2531.89  4377.25
                             4383.88  4386.04  4431.88  4442.36  4447.68
                             4458.81  4461.45  4500.87  4507.37  4535.38
                             4547.99  4568.76  4584.23  4597.78  4608.96
                             4614.38  4691.85  4701.63  4728.38

 Zero-point correction=                           0.338016 (Hartree/Particle)
 Thermal correction to Energy=                    0.357357
 Thermal correction to Enthalpy=                  0.358301
 Thermal correction to Gibbs Free Energy=         0.289481
 Sum of electronic and zero-point Energies=           -844.312919
 Sum of electronic and thermal Energies=              -844.293579
 Sum of electronic and thermal Enthalpies=            -844.292635
 Sum of electronic and thermal Free Energies=         -844.361455

                     E (Thermal)             CV                S
                      KCal/Mol        Cal/Mol-Kelvin    Cal/Mol-Kelvin
 Total                  224.245             73.026            144.845
 Electronic               0.000              0.000              0.000
 Translational            0.889              2.981             42.658
 Rotational               0.889              2.981             33.532
 Vibrational            222.467             67.065             68.654
 Vibration     1          0.594              1.983              5.575
 Vibration     2          0.594              1.981              5.209
 Vibration     3          0.596              1.977              4.751
 Vibration     4          0.596              1.974              4.495
 Vibration     5          0.600              1.961              3.813
 Vibration     6          0.601              1.958              3.723
 Vibration     7          0.603              1.954              3.581
 Vibration     8          0.606              1.942              3.288
 Vibration     9          0.610              1.930              3.053
 Vibration    10          0.615              1.913              2.802
 Vibration    11          0.627              1.874              2.389
 Vibration    12          0.632              1.857              2.251
 Vibration    13          0.635              1.848              2.185
 Vibration    14          0.639              1.836              2.111
 Vibration    15          0.658              1.776              1.789
 Vibration    16          0.684              1.698              1.491
 Vibration    17          0.697              1.659              1.376
 Vibration    18          0.721              1.593              1.206
 Vibration    19          0.733              1.558              1.130
 Vibration    20          0.739              1.543              1.099
 Vibration    21          0.752              1.506              1.027
 Vibration    22          0.794              1.397              0.847
 Vibration    23          0.814              1.348              0.778
 Vibration    24          0.830              1.310              0.730
 Vibration    25          0.871              1.216              0.620
 Vibration    26          0.916              1.117              0.523
 Vibration    27          0.920              1.109              0.515
 Vibration    28          0.968              1.012              0.434

                           ! Non-Optimized Parameters !
 Normal termination of Gaussian 16 at Mon Dec 14 14:32:55 2020.

 ----------------------------------------------------------------------
 # B3LYP/6-311++G(d,p) empiricaldispersion=gd3bj scf=xqc pop=npa geom=c
 heck
 ----------------------------------------------------------------------

 ---------------------------------------
 CID_90432381_JID_10939_Energie_neutraal
 ---------------------------------------
 Structure from the checkpoint file:  "JID_10939.chk"
 Charge =  0 Multiplicity = 1

 SCF Done:  E(RB3LYP) =  -844.874051243     A.U. after   16 cycles
 Normal termination of Gaussian 16 at Mon Dec 14 14:42:30 2020.

 ----------------------------------------------------------------------
 # B3LYP/6-311++G(d,p) empiricaldispersion=gd3bj scf=xqc pop=npa geom=c
 heck
 ----------------------------------------------------------------------

 -------------------------------------
 CID_90432381_JID_10939_Energie_kation
 -------------------------------------
 Structure from the checkpoint file:  "JID_10939.chk"
 Charge =  1 Multiplicity = 2

 SCF Done:  E(UB3LYP) =  -844.581079585     A.U. after   32 cycles
 Normal termination of Gaussian 16 at Mon Dec 14 15:08:20 2020.
 Gaussian 16:  ES64L-G16RevA.03 25-Dec-2016

 ----------------------------------------------------------------------
 # B3LYP/6-311++G(d,p) empiricaldispersion=gd3bj scf=xqc pop=npa geom=c
 heck
 ----------------------------------------------------------------------

 ------------------------------------
 CID_90432381_JID_10939_Energie_anion
 ------------------------------------
 Structure from the checkpoint file:  "JID_10939.chk"
 Charge = -1 Multiplicity = 2

                         Standard orientation:
 ---------------------------------------------------------------------
 Center     Atomic      Atomic             Coordinates (Angstroms)
 Number     Number       Type             X           Y           Z
 ---------------------------------------------------------------------
      1          6           0       -2.978768   -2.226778    0.301453
      2          6           0       -2.982876   -0.723876    0.154303
      3          6           0       -4.138749    0.014941    0.429566
      4          6           0       -4.158489    1.404097    0.307028
      5          6           0       -3.009862    2.079456   -0.103079
      6          6           0       -1.848371    1.361705   -0.386251
      7          6           0       -1.824847   -0.031766   -0.251128
      8          6           0       -0.568797   -0.768929   -0.593752
      9          6           0        0.298759   -1.140854    0.380231
     10          6           0        0.039188   -0.817748    1.838521
     11          6           0        1.602820   -1.779596    0.051650
     12          8           0        1.791666   -2.499967   -0.921440
     13          6           0        2.820207   -1.436463    0.920679
     14          6           0        3.647912   -0.355013    0.201785
     15          7           0        2.898356    0.881810    0.023047
     16          6           0        2.570999    1.791811    1.012670
     17          6           0        1.712545    2.686765    0.423519
     18          7           0        1.495433    2.350271   -0.896900
     19          6           0        2.215243    1.264858   -1.098483
     20          6           0       -0.380385   -0.950426   -2.076553
     21          1           0       -3.989267   -2.603567    0.485816
     22          1           0       -2.590558   -2.721769   -0.595813
     23          1           0       -2.343810   -2.548895    1.135786
     24          1           0       -5.037444   -0.511876    0.741606
     25          1           0       -5.069646    1.953771    0.526752
     26          1           0       -3.015116    3.161034   -0.205518
     27          1           0       -0.946641    1.875548   -0.709499
     28          1           0        0.337184   -1.644911    2.493365
     29          1           0        0.592879    0.074911    2.153670
     30          1           0       -1.018423   -0.614968    2.011246
     31          1           0        2.553455   -1.090025    1.920821
     32          1           0        3.435225   -2.337160    1.011987
     33          1           0        4.562410   -0.135546    0.761396
     34          1           0        3.934737   -0.717285   -0.788805
     35          1           0        2.985842    1.719691    2.007089
     36          1           0        1.245241    3.555439    0.866464
     37          1           0        2.278079    0.703903   -2.020955
     38          1           0       -1.167976   -1.609037   -2.467085
     39          1           0       -0.515449    0.018594   -2.572420
     40          1           0        0.580258   -1.385788   -2.340372
 ---------------------------------------------------------------------

 SCF Done:  E(UB3LYP) =  -844.881024031     A.U. after   29 cycles

 The electronic state is 2-A.
 Alpha  occ. eigenvalues --  -18.92560 -14.25989 -14.18536 -10.11202 -10.10193
 Alpha  occ. eigenvalues --  -10.09075 -10.07838 -10.07241 -10.06940 -10.06865
 Alpha  occ. eigenvalues --  -10.06761 -10.06561 -10.06277 -10.06073 -10.05485
 Alpha  occ. eigenvalues --  -10.04401 -10.03858 -10.02869 -10.02704 -10.02696
 Alpha  occ. eigenvalues --   -0.90900  -0.86750  -0.77840  -0.75341  -0.68673
 Alpha  occ. eigenvalues --   -0.66333  -0.65673  -0.63560  -0.62603  -0.60006
 Alpha  occ. eigenvalues --   -0.57778  -0.54652  -0.52082  -0.50078  -0.49165
 Alpha  occ. eigenvalues --   -0.48036  -0.46807  -0.44314  -0.41726  -0.39357
 Alpha  occ. eigenvalues --   -0.36685  -0.36027  -0.35734  -0.34498  -0.33239
 Alpha  occ. eigenvalues --   -0.33068  -0.32017  -0.31599  -0.31192  -0.30538
 Alpha  occ. eigenvalues --   -0.30395  -0.29365  -0.29115  -0.28512  -0.28126
 Alpha  occ. eigenvalues --   -0.27415  -0.26699  -0.25622  -0.25003  -0.24791
 Alpha  occ. eigenvalues --   -0.24195  -0.23547  -0.22323  -0.21000  -0.20708
 Alpha  occ. eigenvalues --   -0.16850  -0.16213  -0.14370  -0.13557  -0.12843
 Alpha  occ. eigenvalues --   -0.10629  -0.08642   0.04334
 Alpha virt. eigenvalues --    0.07001   0.07244   0.08355   0.08926   0.09197
 Alpha virt. eigenvalues --    0.09483   0.09699   0.09975   0.10726   0.10842
 Alpha virt. eigenvalues --    0.11385   0.11765   0.11967   0.12437   0.12819

  Beta  occ. eigenvalues --  -18.92035 -14.25991 -14.18536 -10.11198 -10.10125
  Beta  occ. eigenvalues --  -10.09072 -10.07832 -10.07205 -10.06846 -10.06762
  Beta  occ. eigenvalues --  -10.06557 -10.06544 -10.06279 -10.06087 -10.05458
  Beta  occ. eigenvalues --  -10.04435 -10.03843 -10.02770 -10.02726 -10.02433
  Beta  occ. eigenvalues --   -0.90890  -0.85782  -0.77820  -0.75250  -0.68328
  Beta  occ. eigenvalues --   -0.66249  -0.65549  -0.63457  -0.62543  -0.59827
  Beta  occ. eigenvalues --   -0.57747  -0.54421  -0.51924  -0.49906  -0.49147
  Beta  occ. eigenvalues --   -0.47932  -0.46767  -0.43890  -0.41640  -0.39144
  Beta  occ. eigenvalues --   -0.36495  -0.35897  -0.35501  -0.34421  -0.33153
  Beta  occ. eigenvalues --   -0.32932  -0.31940  -0.31456  -0.31114  -0.30505
  Beta  occ. eigenvalues --   -0.30350  -0.29162  -0.28835  -0.28445  -0.27912
  Beta  occ. eigenvalues --   -0.27154  -0.26639  -0.25378  -0.24922  -0.24631
  Beta  occ. eigenvalues --   -0.24019  -0.23484  -0.22111  -0.20510  -0.18769
  Beta  occ. eigenvalues --   -0.16839  -0.16101  -0.14293  -0.13393  -0.12741
  Beta  occ. eigenvalues --   -0.09292  -0.08164
  Beta virt. eigenvalues --    0.07044   0.07593   0.08313   0.08985   0.09214
  Beta virt. eigenvalues --    0.09374   0.09687   0.09896   0.10542   0.10903
  Beta virt. eigenvalues --    0.11433   0.11602   0.11992   0.12144   0.12443

 Mulliken charges and spin densities:
               1          2
     1  C   -0.496502   0.007620
     2  C    0.460328   0.069365
     3  C   -0.238536  -0.038306
     4  C   -0.167597  -0.005035
     5  C   -0.328777  -0.000933
     6  C   -0.404672  -0.002373
     7  C    0.262059   0.026577
     8  C    0.161386   0.264422
     9  C    0.500651  -0.049720
    10  C   -0.658998  -0.008100
    11  C   -0.971889   0.137351
    12  O   -0.330986   0.182714
    13  C   -0.079436   0.094478
    14  C    0.314068  -0.696089
    15  N    0.152503   0.091371
    16  C   -0.175772  -0.058794
    17  C   -0.074329  -0.040333
    18  N   -0.058520   0.010641
    19  C   -0.330260  -0.137256
    20  C   -0.475741   0.007679
    21  H    0.118435  -0.000032
    22  H    0.165453  -0.000191
    23  H    0.173451   0.006962
    24  H    0.106879   0.009125
    25  H    0.131153  -0.000364
    26  H    0.139532   0.001754
    27  H    0.218217  -0.000529
    28  H    0.158994  -0.002599
    29  H    0.185735  -0.002058
    30  H    0.075455  -0.000168
    31  H    0.118841  -0.012694
    32  H   -0.057438   0.252207
    33  H   -0.572686   0.774289
    34  H    0.220068  -0.053362
    35  H    0.001855   0.141680
    36  H    0.132089   0.000475
    37  H    0.175831  -0.003456
    38  H    0.105994   0.024822
    39  H    0.160929   0.010591
    40  H    0.182235  -0.001727
 Sum of Mulliken charges =  -1.00000   1.00000

 Dipole moment (field-independent basis, Debye):
    X=             -5.0241    Y=              2.4894    Z=              1.8964  Tot=              5.9190
 Quadrupole moment (field-independent basis, Debye-Ang):
   XX=           -171.7258   YY=           -154.7282   ZZ=           -136.6754
   XY=              8.4544   XZ=             -3.9414   YZ=             -0.0557

 Summary of Natural Population Analysis:

                                       Natural Population
                Natural  -----------------------------------------------
    Atom  No    Charge         Core      Valence    Rydberg      Total
 -----------------------------------------------------------------------
      C    1   -0.29275      0.99964     2.28878    0.00433     3.29275
      C    2   -0.01158      0.99946     2.00407    0.00805     3.01158
      C    3   -0.10894      0.99952     2.10065    0.00877     3.10894
      C    4   -0.10965      0.99957     2.10074    0.00934     3.10965
      C    5   -0.10878      0.99957     2.10008    0.00913     3.10878
      C    6   -0.09340      0.99950     2.08569    0.00821     3.09340
      C    7   -0.01303      0.99945     2.00176    0.01182     3.01303
      C    8    0.08181      0.99943     1.90705    0.01171     2.91819
      C    9   -0.07878      0.99938     2.06862    0.01077     3.07878
      C   10   -0.29243      0.99964     2.28849    0.00431     3.29243
      C   11    0.31828      0.99960     1.65958    0.02254     2.68172
      O   12   -0.26378      0.99988     3.25810    0.00580     4.26378
      C   13   -0.23479      0.99960     2.22523    0.00996     3.23479
      C   14   -0.07397      0.99960     2.06265    0.01172     3.07397
      N   15   -0.20569      0.99965     2.69474    0.01130     3.70569
      C   16   -0.04059      0.99955     2.02867    0.01236     3.04059
      C   17   -0.03709      0.99959     2.02521    0.01229     3.03709
      N   18   -0.26688      0.99973     2.75623    0.01093     3.76688
      C   19    0.11437      0.99964     1.86872    0.01728     2.88563
      C   20   -0.29947      0.99962     2.29542    0.00443     3.29947
      H   21    0.09300      0.00000     0.40613    0.00087     0.40700
      H   22    0.10862      0.00000     0.39053    0.00085     0.39138
      H   23    0.10727      0.00000     0.39182    0.00091     0.39273
      H   24    0.09236      0.00000     0.40631    0.00132     0.40764
      H   25    0.09301      0.00000     0.40596    0.00103     0.40699
      H   26    0.09605      0.00000     0.40329    0.00066     0.40395
      H   27    0.11583      0.00000     0.38241    0.00175     0.38417
      H   28    0.09400      0.00000     0.40511    0.00089     0.40600
      H   29    0.10030      0.00000     0.39860    0.00111     0.39970
      H   30    0.10158      0.00000     0.39755    0.00087     0.39842
      H   31    0.09581      0.00000     0.40297    0.00121     0.40419
      H   32    0.10932      0.00000     0.38911    0.00157     0.39068
      H   33    0.09746      0.00000     0.39979    0.00275     0.40254
      H   34    0.10331      0.00000     0.39539    0.00130     0.39669
      H   35    0.10245      0.00000     0.39657    0.00098     0.39755
      H   36    0.09320      0.00000     0.40599    0.00081     0.40680
      H   37    0.09743      0.00000     0.40123    0.00134     0.40257
      H   38    0.09895      0.00000     0.40008    0.00096     0.40105
      H   39    0.09747      0.00000     0.40159    0.00094     0.40253
      H   40    0.11973      0.00000     0.37939    0.00087     0.38027
 =======================================================================
   * Total *    0.00001     19.99162    51.78031    0.22807    71.99999

 Normal termination of Gaussian 16 at Mon Dec 14 15:31:55 2020.
