 Gaussian 16, Revision A.03,

 -----------------------------------------------------------
 # opt freq B3LYP/6-31G(d) empiricaldispersion=gd3bj scf=xqc
 -----------------------------------------------------------

 -------------------------------
 CID_142189456_JID_3885_neutraal
 -------------------------------
 Symbolic Z-matrix:
 Charge =  0 Multiplicity = 1

 SCF Done:  E(RB3LYP) =  -895.965751602     A.U. after   15 cycles
 SCF Done:  E(RB3LYP) =  -895.968479924     A.U. after   14 cycles
 SCF Done:  E(RB3LYP) =  -895.969676970     A.U. after   13 cycles
 SCF Done:  E(RB3LYP) =  -895.970825937     A.U. after   12 cycles
 SCF Done:  E(RB3LYP) =  -895.971339028     A.U. after   12 cycles
 SCF Done:  E(RB3LYP) =  -895.971758984     A.U. after   13 cycles
 SCF Done:  E(RB3LYP) =  -895.971943703     A.U. after   12 cycles
 SCF Done:  E(RB3LYP) =  -895.972103935     A.U. after   13 cycles
 SCF Done:  E(RB3LYP) =  -895.972146992     A.U. after   11 cycles
 SCF Done:  E(RB3LYP) =  -895.972172462     A.U. after   11 cycles
 SCF Done:  E(RB3LYP) =  -895.972185527     A.U. after    7 cycles
 SCF Done:  E(RB3LYP) =  -895.972185711     A.U. after    8 cycles
 SCF Done:  E(RB3LYP) =  -895.972185762     A.U. after    7 cycles
 SCF Done:  E(RB3LYP) =  -895.972185829     A.U. after    7 cycles
 SCF Done:  E(RB3LYP) =  -895.972185843     A.U. after    7 cycles
 SCF Done:  E(RB3LYP) =  -895.972185845     A.U. after    7 cycles
 Optimization completed.
    -- Stationary point found.
 Normal termination of Gaussian 16 at Mon Dec 14 13:17:48 2020.

 --------------------------------------------------------------------
 #N Geom=AllCheck Guess=TCheck SCRF=Check GenChk RB3LYP/6-31G(d) Freq
 --------------------------------------------------------------------

 Structure from the checkpoint file:  "JID_3885.chk"
 -------------------------------
 CID_142189456_JID_3885_neutraal
 -------------------------------
 Charge =  0 Multiplicity = 1

 SCF Done:  E(RB3LYP) =  -895.972185844     A.U. after    1 cycles

  Exact polarizability: 223.113 -32.987 155.078   0.847  -9.064  79.164
 Approx polarizability: 340.256 -86.570 283.843  10.267 -30.875 127.321

                      1                      2                      3
                      A                      A                      A
 Frequencies --     19.6742                59.7750                70.5934
 Red. masses --      3.9267                 3.3606                 4.4115
 Frc consts  --      0.0009                 0.0071                 0.0130
 IR Inten    --      0.0537                 0.2135                 0.0248

                      4                      5                      6
                      A                      A                      A
 Frequencies --     77.1583                97.2115               131.2770
 Red. masses --      1.1404                 4.1142                 1.6912
 Frc consts  --      0.0040                 0.0229                 0.0172
 IR Inten    --      0.2141                 0.4328                 1.2611

                      7                      8                      9
                      A                      A                      A
 Frequencies --    150.4590               179.9213               188.8046
 Red. masses --      1.6875                 2.8338                 2.4234
 Frc consts  --      0.0225                 0.0540                 0.0509
 IR Inten    --      0.1801                 2.0923                 0.6937

                     10                     11                     12
                      A                      A                      A
 Frequencies --    214.3200               264.4499               316.1300
 Red. masses --      2.6003                 3.6146                 3.9257
 Frc consts  --      0.0704                 0.1489                 0.2312
 IR Inten    --      1.0680                 1.4078                 0.6968

                     13                     14                     15
                      A                      A                      A
 Frequencies --    327.7120               362.1905               423.6395
 Red. masses --      4.4276                 3.9015                 3.9201
 Frc consts  --      0.2802                 0.3015                 0.4145
 IR Inten    --      3.4230                 0.4438                 1.5751

                     16                     17                     18
                      A                      A                      A
 Frequencies --    440.7637               493.4297               552.7936
 Red. masses --      3.5602                 3.5401                 4.0852
 Frc consts  --      0.4075                 0.5078                 0.7355
 IR Inten    --     10.6470                 6.9595                 2.4776

                     19                     20                     21
                      A                      A                      A
 Frequencies --    596.2674               613.1410               636.3458
 Red. masses --      5.4059                 4.0284                 5.9121
 Frc consts  --      1.1324                 0.8923                 1.4105
 IR Inten    --      0.4171                 3.9508                 4.5977

                     22                     23                     24
                      A                      A                      A
 Frequencies --    674.8487               714.0580               736.6150
 Red. masses --      1.5236                 3.5106                 3.8156
 Frc consts  --      0.4088                 1.0546                 1.2198
 IR Inten    --      9.3932                 1.9908                18.1197

                     25                     26                     27
                      A                      A                      A
 Frequencies --    786.6510               877.8031               912.4662
 Red. masses --      5.6229                 1.4103                 1.4176
 Frc consts  --      2.0501                 0.6403                 0.6954
 IR Inten    --      3.7903                10.2726                 3.5884

                     28                     29                     30
                      A                      A                      A
 Frequencies --    922.5422               932.1744               962.0835
 Red. masses --      2.1853                 1.5062                 2.7809
 Frc consts  --      1.0958                 0.7711                 1.5166
 IR Inten    --      1.4632                36.1414                 7.9610

                     31                     32                     33
                      A                      A                      A
 Frequencies --    973.2771               994.1917              1016.9839
 Red. masses --      2.2275                 1.8488                 2.4029
 Frc consts  --      1.2432                 1.0767                 1.4642
 IR Inten    --     10.8539                16.8767                 8.4802

                     34                     35                     36
                      A                      A                      A
 Frequencies --   1037.9305              1062.9571              1148.4005
 Red. masses --      1.1049                 1.4130                 1.3724
 Frc consts  --      0.7013                 0.9406                 1.0664
 IR Inten    --     14.6190                 1.0693                 1.4577

                     37                     38                     39
                      A                      A                      A
 Frequencies --   1178.5746              1183.7498              1206.4031
 Red. masses --      1.4600                 2.5292                 3.0857
 Frc consts  --      1.1949                 2.0881                 2.6460
 IR Inten    --      0.6374                35.9702                 6.7572

                     40                     41                     42
                      A                      A                      A
 Frequencies --   1230.5489              1277.3328              1320.9450
 Red. masses --      2.7513                 2.3367                 2.3040
 Frc consts  --      2.4546                 2.2463                 2.3687
 IR Inten    --     16.8755                 3.9707                 2.5316

                     43                     44                     45
                      A                      A                      A
 Frequencies --   1339.9556              1376.4212              1413.2704
 Red. masses --      1.3664                 1.7694                 1.2357
 Frc consts  --      1.4455                 1.9750                 1.4541
 IR Inten    --      0.6802                 1.8649                16.2657

                     46                     47                     48
                      A                      A                      A
 Frequencies --   1433.4355              1459.5319              1470.2496
 Red. masses --      1.2621                 1.1718                 1.4390
 Frc consts  --      1.5279                 1.4708                 1.8327
 IR Inten    --      1.2487                 1.9133                 1.8480

                     49                     50                     51
                      A                      A                      A
 Frequencies --   1498.6931              1505.4092              1506.0709
 Red. masses --      1.4408                 1.0489                 1.0432
 Frc consts  --      1.9066                 1.4006                 1.3941
 IR Inten    --     17.0853                 5.7636                 9.6149

                     52                     53                     54
                      A                      A                      A
 Frequencies --   1524.7231              1528.5993              1584.4297
 Red. masses --      2.2020                 1.1095                 4.8688
 Frc consts  --      3.0161                 1.5275                 7.2015
 IR Inten    --     18.6279                 3.7046                35.7733

                     55                     56                     57
                      A                      A                      A
 Frequencies --   1644.9582              1700.8974              1738.9017
 Red. masses --      5.9836                 4.1179                 9.5689
 Frc consts  --      9.5394                 7.0191                17.0475
 IR Inten    --      0.8699                 3.2982                55.1461

                     58                     59                     60
                      A                      A                      A
 Frequencies --   3032.9518              3055.3306              3095.2540
 Red. masses --      1.0338                 1.0372                 1.0866
 Frc consts  --      5.6029                 5.7048                 6.1333
 IR Inten    --     32.0202                22.3627                24.9083

                     61                     62                     63
                      A                      A                      A
 Frequencies --   3103.1038              3109.6781              3111.1814
 Red. masses --      1.1024                 1.1015                 1.1018
 Frc consts  --      6.2542                 6.2756                 6.2834
 IR Inten    --     21.5983                10.3165                25.2296

                     64                     65                     66
                      A                      A                      A
 Frequencies --   3153.4588              3159.9996              3165.5914
 Red. masses --      1.0872                 1.1007                 1.0598
 Frc consts  --      6.3699                 6.4757                 6.2572
 IR Inten    --      6.8301                 3.7462                11.0763

                     67                     68                     69
                      A                      A                      A
 Frequencies --   3174.3428              3241.2393              3252.5165
 Red. masses --      1.0910                 1.0930                 1.1156
 Frc consts  --      6.4774                 6.7657                 6.9536
 IR Inten    --     13.5884                 6.1055                12.5219

 - Thermochemistry -
 -------------------
 Temperature   298.150 Kelvin.  Pressure   1.00000 Atm.
 Atom     1 has atomic number  6 and mass  12.00000

 Molecular mass:   192.07212 amu.
 Principal axes and moments of inertia in atomic units:
                           1         2         3
     Eigenvalues --  1634.489954031.106835290.11894
           X            0.99998  -0.00562  -0.00015
           Y            0.00562   0.99989   0.01372
           Z            0.00008  -0.01372   0.99991
 This molecule is an asymmetric top.
 Rotational symmetry number  1.
 Warning -- assumption of classical behavior for rotation
           may cause significant error
 Rotational temperatures (Kelvin)      0.05299     0.02149     0.01637
 Rotational constants (GHZ):           1.10416     0.44770     0.34115
 Zero-point vibrational energy     524842.4 (Joules/Mol)
                                  125.44033 (Kcal/Mol)
 Warning -- explicit consideration of  20 degrees of freedom as
           vibrations may cause significant error
 Vibrational temperatures:     28.31    86.00   101.57   111.01   139.87
          (Kelvin)            188.88   216.48   258.87   271.65   308.36
                              380.48   454.84   471.50   521.11   609.52
                              634.16   709.94   795.35   857.90   882.17
                              915.56   970.96  1027.37  1059.82  1131.82
                             1262.96  1312.84  1327.33  1341.19  1384.22
                             1400.33  1430.42  1463.21  1493.35  1529.36
                             1652.29  1695.71  1703.15  1735.74  1770.49
                             1837.80  1900.55  1927.90  1980.36  2033.38
                             2062.39  2099.94  2115.36  2156.29  2165.95
                             2166.90  2193.74  2199.31  2279.64  2366.73
                             2447.21  2501.89  4363.74  4395.94  4453.38
                             4464.67  4474.13  4476.30  4537.12  4546.53
                             4554.58  4567.17  4663.42  4679.65

 Zero-point correction=                           0.199902 (Hartree/Particle)
 Thermal correction to Energy=                    0.213845
 Thermal correction to Enthalpy=                  0.214789
 Thermal correction to Gibbs Free Energy=         0.157448
 Sum of electronic and zero-point Energies=           -895.772284
 Sum of electronic and thermal Energies=              -895.758341
 Sum of electronic and thermal Enthalpies=            -895.757397
 Sum of electronic and thermal Free Energies=         -895.814737

                     E (Thermal)             CV                S
                      KCal/Mol        Cal/Mol-Kelvin    Cal/Mol-Kelvin
 Total                  134.190             49.695            120.683
 Electronic               0.000              0.000              0.000
 Translational            0.889              2.981             41.664
 Rotational               0.889              2.981             31.922
 Vibrational            132.412             43.733             47.098
 Vibration     1          0.593              1.986              6.667
 Vibration     2          0.597              1.973              4.465
 Vibration     3          0.598              1.968              4.137
 Vibration     4          0.599              1.964              3.962
 Vibration     5          0.603              1.951              3.509
 Vibration     6          0.612              1.922              2.927
 Vibration     7          0.618              1.902              2.666
 Vibration     8          0.629              1.867              2.329
 Vibration     9          0.633              1.855              2.240
 Vibration    10          0.644              1.819              2.007
 Vibration    11          0.671              1.738              1.632
 Vibration    12          0.703              1.643              1.330
 Vibration    13          0.711              1.620              1.271
 Vibration    14          0.736              1.550              1.113
 Vibration    15          0.786              1.419              0.880
 Vibration    16          0.801              1.381              0.824
 Vibration    17          0.849              1.265              0.675
 Vibration    18          0.908              1.134              0.538
 Vibration    19          0.954              1.040              0.456
 Vibration    20          0.972              1.004              0.428

 Optimization completed.
    -- Stationary point found.
 Normal termination of Gaussian 16 at Mon Dec 14 13:23:27 2020.

 ----------------------------------------------------------------------
 # B3LYP/6-311++G(d,p) empiricaldispersion=gd3bj scf=xqc pop=npa geom=c
 heck
 ----------------------------------------------------------------------

 ---------------------------------------
 CID_142189456_JID_3885_Energie_neutraal
 ---------------------------------------
 Structure from the checkpoint file:  "JID_3885.chk"
 Charge =  0 Multiplicity = 1

 SCF Done:  E(RB3LYP) =  -896.131946529     A.U. after   15 cycles
 Normal termination of Gaussian 16 at Mon Dec 14 13:26:04 2020.

 ----------------------------------------------------------------------
 # B3LYP/6-311++G(d,p) empiricaldispersion=gd3bj scf=xqc pop=npa geom=c
 heck
 ----------------------------------------------------------------------

 -------------------------------------
 CID_142189456_JID_3885_Energie_kation
 -------------------------------------
 Structure from the checkpoint file:  "JID_3885.chk"
 Charge =  1 Multiplicity = 2

 SCF Done:  E(UB3LYP) =  -895.849370035     A.U. after   24 cycles
 Normal termination of Gaussian 16 at Mon Dec 14 13:31:58 2020.
 Gaussian 16:  ES64L-G16RevA.03 25-Dec-2016

 ----------------------------------------------------------------------
 # B3LYP/6-311++G(d,p) empiricaldispersion=gd3bj scf=xqc pop=npa geom=c
 heck
 ----------------------------------------------------------------------

 ------------------------------------
 CID_142189456_JID_3885_Energie_anion
 ------------------------------------
 Structure from the checkpoint file:  "JID_3885.chk"
 Charge = -1 Multiplicity = 2

                         Standard orientation:
 ---------------------------------------------------------------------
 Center     Atomic      Atomic             Coordinates (Angstroms)
 Number     Number       Type             X           Y           Z
 ---------------------------------------------------------------------
      1          6           0       -4.241838   -0.788738    0.247090
      2          6           0       -2.865632   -0.266883   -0.016975
      3          7           0       -2.603964    0.926705   -0.469412
      4          6           0       -1.253886    1.124665   -0.614021
      5          6           0       -0.428695    0.075556   -0.274489
      6         16           0       -1.434227   -1.258317    0.272533
      7          6           0        1.021084    0.026020   -0.336937
      8          6           0        1.747139   -1.089102   -0.069411
      9          6           0        3.191764   -1.165771   -0.105391
     10          6           0        3.882954   -2.288700    0.151984
     11          6           0        1.704687    1.293611   -0.772745
     12          7           0        1.818438    2.385722   -0.130827
     13          6           0        1.282585    2.490835    1.217780
     14          1           0       -4.461375   -1.670326   -0.366091
     15          1           0       -4.368585   -1.074855    1.297518
     16          1           0       -4.960697   -0.002782    0.005542
     17          1           0       -0.896694    2.078318   -0.983432
     18          1           0        1.225090   -2.006344    0.201892
     19          1           0        3.731995   -0.252189   -0.347509
     20          1           0        4.967343   -2.311897    0.116378
     21          1           0        3.380510   -3.218556    0.408451
     22          1           0        2.146770    1.268175   -1.774260
     23          1           0        0.434883    3.186186    1.204111
     24          1           0        0.952982    1.543015    1.662278
     25          1           0        2.053118    2.938374    1.854958
 ---------------------------------------------------------------------

 SCF Done:  E(UB3LYP) =  -896.157427309     A.U. after   22 cycles

 The electronic state is 2-A.
 Alpha  occ. eigenvalues --  -88.73240 -14.17897 -14.17293 -10.08702 -10.08224
 Alpha  occ. eigenvalues --  -10.06592 -10.06511 -10.06070 -10.04516 -10.03323
 Alpha  occ. eigenvalues --  -10.03164 -10.01723 -10.01365  -7.81925  -5.78202
 Alpha  occ. eigenvalues --   -5.77873  -5.77517  -0.82008  -0.79314  -0.68592
 Alpha  occ. eigenvalues --   -0.64761  -0.64654  -0.60750  -0.57883  -0.55871
 Alpha  occ. eigenvalues --   -0.49050  -0.45417  -0.42757  -0.40096  -0.38855
 Alpha  occ. eigenvalues --   -0.35693  -0.34379  -0.33361  -0.32291  -0.32196
 Alpha  occ. eigenvalues --   -0.30997  -0.28058  -0.27613  -0.27044  -0.25746
 Alpha  occ. eigenvalues --   -0.25479  -0.24648  -0.21849  -0.21514  -0.19450
 Alpha  occ. eigenvalues --   -0.17268  -0.15153  -0.13840  -0.12843  -0.12323
 Alpha  occ. eigenvalues --   -0.07410   0.02959
 Alpha virt. eigenvalues --    0.07986   0.09193   0.09855   0.10496   0.11042
 Alpha virt. eigenvalues --    0.11312   0.11494   0.11862   0.12454   0.12982
 Alpha virt. eigenvalues --    0.13487   0.13895   0.14643   0.14846   0.15260

  Beta  occ. eigenvalues --  -88.73213 -14.17840 -14.17416 -10.08334 -10.08212
  Beta  occ. eigenvalues --  -10.06593 -10.06539 -10.06027 -10.04298 -10.03218
  Beta  occ. eigenvalues --  -10.03152 -10.01433 -10.00988  -7.81901  -5.78193
  Beta  occ. eigenvalues --   -5.77865  -5.77421  -0.81819  -0.79192  -0.68199
  Beta  occ. eigenvalues --   -0.64510  -0.64295  -0.60470  -0.57750  -0.55535
  Beta  occ. eigenvalues --   -0.48314  -0.45196  -0.42415  -0.39799  -0.38658
  Beta  occ. eigenvalues --   -0.35526  -0.34222  -0.33187  -0.32053  -0.31827
  Beta  occ. eigenvalues --   -0.30910  -0.27839  -0.27469  -0.26949  -0.25327
  Beta  occ. eigenvalues --   -0.25183  -0.24492  -0.21670  -0.21344  -0.18335
  Beta  occ. eigenvalues --   -0.16886  -0.14459  -0.13889  -0.12251  -0.11618
  Beta  occ. eigenvalues --   -0.05450
  Beta virt. eigenvalues --    0.07940   0.08286   0.09177   0.09837   0.10865
  Beta virt. eigenvalues --    0.11165   0.11378   0.11489   0.12126   0.12441
  Beta virt. eigenvalues --    0.13445   0.13675   0.13941   0.14609   0.14903

 Mulliken charges and spin densities:
               1          2
     1  C   -0.469543  -0.018811
     2  C   -0.088184   0.184704
     3  N   -0.023717  -0.063774
     4  C   -0.001807   0.176647
     5  C    0.449213   0.012897
     6  S   -0.488484   0.076537
     7  C    0.846314   0.060128
     8  C   -0.517694   0.261404
     9  C    0.034755  -0.079201
    10  C   -0.751981   0.363504
    11  C   -0.941765  -0.025482
    12  N   -0.027745   0.033237
    13  C   -0.434142  -0.004761
    14  H    0.118726   0.028002
    15  H    0.128674   0.018616
    16  H    0.141159   0.000539
    17  H    0.144533  -0.010385
    18  H    0.020550  -0.015720
    19  H    0.137869   0.000951
    20  H    0.102885  -0.016646
    21  H    0.076815  -0.017305
    22  H    0.147216   0.022753
    23  H    0.134868   0.004937
    24  H    0.134429   0.005728
    25  H    0.127057   0.001501
 Sum of Mulliken charges =  -1.00000   1.00000

 Dipole moment (field-independent basis, Debye):
    X=             -2.9049    Y=             -0.2063    Z=              1.1705  Tot=              3.1387
 Quadrupole moment (field-independent basis, Debye-Ang):
   XX=           -128.0265   YY=           -110.4695   ZZ=            -95.3636
   XY=              9.0198   XZ=             -2.2218   YZ=              2.1945

 Summary of Natural Population Analysis:

                                       Natural Population
                Natural  -----------------------------------------------
    Atom  No    Charge         Core      Valence    Rydberg      Total
 -----------------------------------------------------------------------
      C    1   -0.30768      0.99962     2.30337    0.00469     3.30768
      C    2    0.09572      0.99965     1.88800    0.01663     2.90428
      N    3   -0.27352      0.99965     2.76239    0.01148     3.77352
      C    4    0.01688      0.99948     1.97060    0.01304     2.98312
      C    5   -0.10961      0.99943     2.09491    0.01526     3.10961
      S    6    0.16473      4.99943     2.81700    0.01884     7.83527
      C    7   -0.05548      0.99943     2.04170    0.01435     3.05548
      C    8   -0.04015      0.99948     2.03240    0.00827     3.04015
      C    9   -0.12752      0.99957     2.11882    0.00913     3.12752
      C   10   -0.11708      0.99960     2.10890    0.00858     3.11708
      C   11    0.07784      0.99960     1.90640    0.01616     2.92216
      N   12   -0.22955      0.99968     2.71619    0.01368     3.72955
      C   13   -0.19759      0.99964     2.19014    0.00781     3.19759
      H   14    0.10242      0.00000     0.39662    0.00096     0.39758
      H   15    0.10206      0.00000     0.39699    0.00095     0.39794
      H   16    0.10774      0.00000     0.39111    0.00115     0.39226
      H   17    0.09451      0.00000     0.40407    0.00142     0.40549
      H   18    0.08831      0.00000     0.40989    0.00180     0.41169
      H   19    0.09034      0.00000     0.40817    0.00149     0.40966
      H   20    0.07951      0.00000     0.41945    0.00104     0.42049
      H   21    0.07875      0.00000     0.42006    0.00119     0.42125
      H   22    0.08171      0.00000     0.41656    0.00173     0.41829
      H   23    0.09470      0.00000     0.40410    0.00120     0.40530
      H   24    0.09441      0.00000     0.40455    0.00105     0.40559
      H   25    0.08856      0.00000     0.41036    0.00108     0.41144
 =======================================================================
   * Total *    0.00000     16.99426    33.83275    0.17300    51.00000

 Normal termination of Gaussian 16 at Mon Dec 14 13:37:26 2020.
