 Gaussian 16, Revision A.03,

 -----------------------------------------------------------
 # opt freq B3LYP/6-31G(d) empiricaldispersion=gd3bj scf=xqc
 -----------------------------------------------------------

 ------------------------------
 CID_79578314_JID_6714_neutraal
 ------------------------------
 Symbolic Z-matrix:
 Charge =  0 Multiplicity = 1

 SCF Done:  E(RB3LYP) =  -724.282131755     A.U. after   15 cycles
 SCF Done:  E(RB3LYP) =  -724.288529217     A.U. after   12 cycles
 SCF Done:  E(RB3LYP) =  -724.289392125     A.U. after   12 cycles
 SCF Done:  E(RB3LYP) =  -724.289739799     A.U. after   12 cycles
 SCF Done:  E(RB3LYP) =  -724.289943880     A.U. after   12 cycles
 SCF Done:  E(RB3LYP) =  -724.290167942     A.U. after   11 cycles
 SCF Done:  E(RB3LYP) =  -724.290305792     A.U. after   11 cycles
 SCF Done:  E(RB3LYP) =  -724.290378919     A.U. after   10 cycles
 SCF Done:  E(RB3LYP) =  -724.290426207     A.U. after   10 cycles
 SCF Done:  E(RB3LYP) =  -724.290439573     A.U. after   10 cycles
 SCF Done:  E(RB3LYP) =  -724.290463924     A.U. after    7 cycles
 SCF Done:  E(RB3LYP) =  -724.290464022     A.U. after    7 cycles
 SCF Done:  E(RB3LYP) =  -724.290464108     A.U. after    7 cycles
 SCF Done:  E(RB3LYP) =  -724.290464193     A.U. after    7 cycles
 SCF Done:  E(RB3LYP) =  -724.290464261     A.U. after    7 cycles
 Optimization completed.
    -- Stationary point found.
 Normal termination of Gaussian 16 at Thu Dec 10 23:45:54 2020.

 --------------------------------------------------------------------
 #N Geom=AllCheck Guess=TCheck SCRF=Check GenChk RB3LYP/6-31G(d) Freq
 --------------------------------------------------------------------

 Structure from the checkpoint file:  "JID_6714.chk"
 ------------------------------
 CID_79578314_JID_6714_neutraal
 ------------------------------
 Charge =  0 Multiplicity = 1

 SCF Done:  E(RB3LYP) =  -724.290464261     A.U. after    1 cycles

  Exact polarizability: 167.515   8.237 139.968  -1.025  -5.974 107.074
 Approx polarizability: 215.665  14.317 224.093   3.007 -10.305 160.313

                      1                      2                      3
                      A                      A                      A
 Frequencies --     18.2412                40.7198                47.0597
 Red. masses --      4.0314                 4.0385                 6.0145
 Frc consts  --      0.0008                 0.0039                 0.0078
 IR Inten    --      0.1850                 0.0558                 2.2166

                      4                      5                      6
                      A                      A                      A
 Frequencies --     67.4284                81.4783               106.4762
 Red. masses --      1.2730                 2.8718                 2.3955
 Frc consts  --      0.0034                 0.0112                 0.0160
 IR Inten    --      0.2362                 0.2929                 3.1516

                      7                      8                      9
                      A                      A                      A
 Frequencies --    136.2247               150.8248               162.7354
 Red. masses --      1.0966                 4.3072                 3.2375
 Frc consts  --      0.0120                 0.0577                 0.0505
 IR Inten    --      0.9650                 2.1288                 1.7773

                     10                     11                     12
                      A                      A                      A
 Frequencies --    181.7304               236.3573               251.4292
 Red. masses --      2.6047                 2.8594                 3.1577
 Frc consts  --      0.0507                 0.0941                 0.1176
 IR Inten    --      1.6182                 1.5018                 2.0415

                     13                     14                     15
                      A                      A                      A
 Frequencies --    264.3343               285.5897               346.0868
 Red. masses --      2.5803                 2.5243                 3.1789
 Frc consts  --      0.1062                 0.1213                 0.2243
 IR Inten    --      0.5732                 1.0673                 1.9369

                     16                     17                     18
                      A                      A                      A
 Frequencies --    371.3648               412.4707               462.0347
 Red. masses --      3.5408                 3.0754                 4.1313
 Frc consts  --      0.2877                 0.3083                 0.5196
 IR Inten    --     10.7976                 0.5466                11.7764

                     19                     20                     21
                      A                      A                      A
 Frequencies --    481.9499               484.1726               537.5528
 Red. masses --      2.9733                 1.9196                 2.3326
 Frc consts  --      0.4069                 0.2651                 0.3971
 IR Inten    --      2.4857                27.0562                10.3444

                     22                     23                     24
                      A                      A                      A
 Frequencies --    582.8833               636.5206               651.8987
 Red. masses --      4.7791                 4.1848                 6.3335
 Frc consts  --      0.9567                 0.9990                 1.5858
 IR Inten    --      6.6803                 2.2239                 2.6889

                     25                     26                     27
                      A                      A                      A
 Frequencies --    657.6681               684.8194               728.3178
 Red. masses --      1.6210                 3.6443                 3.7072
 Frc consts  --      0.4131                 1.0070                 1.1586
 IR Inten    --     92.1625                11.4097                 3.5348

                     28                     29                     30
                      A                      A                      A
 Frequencies --    743.7903               760.2725               782.7604
 Red. masses --      1.9732                 2.7796                 2.5219
 Frc consts  --      0.6432                 0.9466                 0.9104
 IR Inten    --     55.8852                28.5342                23.2856

                     31                     32                     33
                      A                      A                      A
 Frequencies --    826.1752               831.8729               864.0053
 Red. masses --      2.6302                 2.6932                 1.3628
 Frc consts  --      1.0577                 1.0981                 0.5994
 IR Inten    --      1.7925                 1.2657                 9.4516

                     34                     35                     36
                      A                      A                      A
 Frequencies --    919.4300               956.5130               965.0500
 Red. masses --      2.4215                 2.7804                 2.1060
 Frc consts  --      1.2061                 1.4988                 1.1556
 IR Inten    --     10.2762                16.5129                 1.0647

                     37                     38                     39
                      A                      A                      A
 Frequencies --    980.0553              1006.7463              1036.4726
 Red. masses --      2.1774                 2.0042                 1.9760
 Frc consts  --      1.2322                 1.1968                 1.2507
 IR Inten    --     31.7704                 1.6583                 1.9430

                     40                     41                     42
                      A                      A                      A
 Frequencies --   1045.2604              1068.5982              1080.5483
 Red. masses --      1.7308                 2.1408                 1.5321
 Frc consts  --      1.1142                 1.4403                 1.0539
 IR Inten    --     14.5675                14.7666                 9.2990

                     43                     44                     45
                      A                      A                      A
 Frequencies --   1096.2054              1138.7854              1154.7728
 Red. masses --      2.0279                 1.5080                 2.2729
 Frc consts  --      1.4358                 1.1522                 1.7858
 IR Inten    --      6.3922                12.7382                 6.6338

                     46                     47                     48
                      A                      A                      A
 Frequencies --   1158.0570              1167.2458              1206.0712
 Red. masses --      1.3115                 2.0103                 1.5635
 Frc consts  --      1.0363                 1.6137                 1.3400
 IR Inten    --      0.2835                17.7706                11.3096

                     49                     50                     51
                      A                      A                      A
 Frequencies --   1213.6372              1229.0343              1241.0392
 Red. masses --      1.6609                 2.4138                 1.4287
 Frc consts  --      1.4413                 2.1482                 1.2965
 IR Inten    --     16.3777                 4.0035                17.7160

                     52                     53                     54
                      A                      A                      A
 Frequencies --   1275.1196              1311.2191              1341.0178
 Red. masses --      1.2818                 1.2437                 2.1102
 Frc consts  --      1.2279                 1.2598                 2.2359
 IR Inten    --      3.8773                31.0484                52.5163

                     55                     56                     57
                      A                      A                      A
 Frequencies --   1342.4382              1352.4700              1364.3976
 Red. masses --      3.0779                 1.4117                 1.6258
 Frc consts  --      3.2681                 1.5214                 1.7832
 IR Inten    --     25.7532                 5.2494                14.5890

                     58                     59                     60
                      A                      A                      A
 Frequencies --   1381.5683              1396.0820              1418.3025
 Red. masses --      1.7770                 1.7208                 1.5928
 Frc consts  --      1.9984                 1.9761                 1.8877
 IR Inten    --     22.5514                30.2093                12.2524

                     61                     62                     63
                      A                      A                      A
 Frequencies --   1420.9532              1428.5188              1439.2955
 Red. masses --      1.3212                 2.6227                 1.2811
 Frc consts  --      1.5718                 3.1534                 1.5636
 IR Inten    --     28.8532                22.9302                 1.9456

                     64                     65                     66
                      A                      A                      A
 Frequencies --   1446.6872              1475.8317              1494.9780
 Red. masses --      2.8701                 1.3797                 1.3693
 Frc consts  --      3.5391                 1.7705                 1.8031
 IR Inten    --     46.0121                 6.9569                26.3722

                     67                     68                     69
                      A                      A                      A
 Frequencies --   1503.0929              1508.8541              1515.6089
 Red. masses --      1.3099                 1.1654                 1.1164
 Frc consts  --      1.7437                 1.5632                 1.5109
 IR Inten    --     12.9956                 5.4192                11.2368

                     70                     71                     72
                      A                      A                      A
 Frequencies --   1516.3525              1523.6074              1530.9037
 Red. masses --      1.1570                 1.2461                 1.2665
 Frc consts  --      1.5674                 1.7042                 1.7488
 IR Inten    --     14.5038                 2.8363                 6.1295

                     73                     74                     75
                      A                      A                      A
 Frequencies --   1532.0880              1541.2864              1547.5962
 Red. masses --      1.1966                 1.0962                 1.9749
 Frc consts  --      1.6548                 1.5343                 2.7868
 IR Inten    --     10.8336                10.5985                31.9937

                     76                     77                     78
                      A                      A                      A
 Frequencies --   1553.7979              1626.1479              1796.2567
 Red. masses --      1.1475                 5.7545                 8.2914
 Frc consts  --      1.6323                 8.9656                15.7620
 IR Inten    --     14.1023                15.0987               367.3981

                     79                     80                     81
                      A                      A                      A
 Frequencies --   3006.1313              3012.7714              3026.3496
 Red. masses --      1.0705                 1.0720                 1.0705
 Frc consts  --      5.6996                 5.7328                 5.7765
 IR Inten    --     53.9213                32.5262                11.9067

                     82                     83                     84
                      A                      A                      A
 Frequencies --   3035.3465              3042.1400              3055.5461
 Red. masses --      1.0418                 1.0778                 1.0366
 Frc consts  --      5.6555                 5.8766                 5.7024
 IR Inten    --     30.1784               101.1091                54.8814

                     85                     86                     87
                      A                      A                      A
 Frequencies --   3067.2722              3075.8523              3081.2751
 Red. masses --      1.0828                 1.0886                 1.0806
 Frc consts  --      6.0023                 6.0683                 6.0445
 IR Inten    --     19.4518                 8.6313                42.7736

                     88                     89                     90
                      A                      A                      A
 Frequencies --   3084.9739              3085.8255              3111.3684
 Red. masses --      1.0988                 1.0942                 1.1055
 Frc consts  --      6.1613                 6.1388                 6.3053
 IR Inten    --     20.4586                30.2503                22.8854

                     91                     92                     93
                      A                      A                      A
 Frequencies --   3115.3430              3153.6258              3186.8279
 Red. masses --      1.1003                 1.0975                 1.0997
 Frc consts  --      6.2918                 6.4307                 6.5803
 IR Inten    --     21.4577                 1.5242                 2.2860

                     94                     95                     96
                      A                      A                      A
 Frequencies --   3245.0025              3499.7214              3588.0508
 Red. masses --      1.0958                 1.0741                 1.0758
 Frc consts  --      6.7987                 7.7511                 8.1601
 IR Inten    --      8.6160                 0.2907                18.2883

 - Thermochemistry -
 -------------------
 Temperature   298.150 Kelvin.  Pressure   1.00000 Atm.
 Atom     1 has atomic number  6 and mass  12.00000

 Molecular mass:   222.14806 amu.
 Principal axes and moments of inertia in atomic units:
                           1         2         3
     Eigenvalues --  1558.543427250.895947774.94770
           X            0.99994   0.00310  -0.01080
           Y           -0.00361   0.99887  -0.04749
           Z            0.01064   0.04753   0.99881
 This molecule is an asymmetric top.
 Rotational symmetry number  1.
 Warning -- assumption of classical behavior for rotation
           may cause significant error
 Rotational temperatures (Kelvin)      0.05557     0.01195     0.01114
 Rotational constants (GHZ):           1.15797     0.24890     0.23212
 Zero-point vibrational energy     775172.2 (Joules/Mol)
                                  185.27059 (Kcal/Mol)
 Warning -- explicit consideration of  22 degrees of freedom as
           vibrations may cause significant error
 Vibrational temperatures:     26.24    58.59    67.71    97.01   117.23
          (Kelvin)            153.20   196.00   217.00   234.14   261.47
                              340.07   361.75   380.32   410.90   497.94
                              534.31   593.45   664.76   693.42   696.62
                              773.42   838.64   915.81   937.94   946.24
                              985.30  1047.89  1070.15  1093.86  1126.22
                             1188.68  1196.88  1243.11  1322.85  1376.21
                             1388.49  1410.08  1448.48  1491.25  1503.90
                             1537.47  1554.67  1577.20  1638.46  1661.46
                             1666.19  1679.41  1735.27  1746.15  1768.31
                             1785.58  1834.61  1886.55  1929.43  1931.47
                             1945.90  1963.06  1987.77  2008.65  2040.62
                             2044.43  2055.32  2070.83  2081.46  2123.39
                             2150.94  2162.62  2170.90  2180.62  2181.69
                             2192.13  2202.63  2204.33  2217.57  2226.65
                             2235.57  2339.66  2584.41  4325.15  4334.71
                             4354.24  4367.19  4376.96  4396.25  4413.12
                             4425.47  4433.27  4438.59  4439.81  4476.57
                             4482.28  4537.36  4585.13  4668.83  5035.32
                             5162.40

 Zero-point correction=                           0.295247 (Hartree/Particle)
 Thermal correction to Energy=                    0.311246
 Thermal correction to Enthalpy=                  0.312190
 Thermal correction to Gibbs Free Energy=         0.249769
 Sum of electronic and zero-point Energies=           -723.995217
 Sum of electronic and thermal Energies=              -723.979218
 Sum of electronic and thermal Enthalpies=            -723.978274
 Sum of electronic and thermal Free Energies=         -724.040695

                     E (Thermal)             CV                S
                      KCal/Mol        Cal/Mol-Kelvin    Cal/Mol-Kelvin
 Total                  195.310             59.143            131.376
 Electronic               0.000              0.000              0.000
 Translational            0.889              2.981             42.097
 Rotational               0.889              2.981             32.841
 Vibrational            193.532             53.182             56.438
 Vibration     1          0.593              1.986              6.817
 Vibration     2          0.594              1.981              5.224
 Vibration     3          0.595              1.979              4.937
 Vibration     4          0.598              1.970              4.227
 Vibration     5          0.600              1.962              3.855
 Vibration     6          0.605              1.944              3.332
 Vibration     7          0.614              1.917              2.856
 Vibration     8          0.618              1.902              2.662
 Vibration     9          0.623              1.888              2.518
 Vibration    10          0.630              1.865              2.311
 Vibration    11          0.655              1.785              1.830
 Vibration    12          0.663              1.760              1.721
 Vibration    13          0.671              1.738              1.633
 Vibration    14          0.683              1.700              1.500
 Vibration    15          0.724              1.583              1.184
 Vibration    16          0.743              1.531              1.074
 Vibration    17          0.776              1.443              0.918
 Vibration    18          0.820              1.334              0.760
 Vibration    19          0.838              1.290              0.705
 Vibration    20          0.840              1.285              0.699
 Vibration    21          0.893              1.167              0.571
 Vibration    22          0.940              1.068              0.480

                           ! Non-Optimized Parameters !
 Normal termination of Gaussian 16 at Thu Dec 10 23:58:10 2020.

 ----------------------------------------------------------------------
 # B3LYP/6-311++G(d,p) empiricaldispersion=gd3bj scf=xqc pop=npa geom=c
 heck
 ----------------------------------------------------------------------

 --------------------------------------
 CID_79578314_JID_6714_Energie_neutraal
 --------------------------------------
 Structure from the checkpoint file:  "JID_6714.chk"
 Charge =  0 Multiplicity = 1

 SCF Done:  E(RB3LYP) =  -724.496029171     A.U. after   15 cycles
 Normal termination of Gaussian 16 at Fri Dec 11 00:04:19 2020.

 ----------------------------------------------------------------------
 # B3LYP/6-311++G(d,p) empiricaldispersion=gd3bj scf=xqc pop=npa geom=c
 heck
 ----------------------------------------------------------------------

 ------------------------------------
 CID_79578314_JID_6714_Energie_kation
 ------------------------------------
 Structure from the checkpoint file:  "JID_6714.chk"
 Charge =  1 Multiplicity = 2

 SCF Done:  E(UB3LYP) =  -724.202970058     A.U. after   33 cycles
 SCF Done:  E(UB3LYP) =  -724.202970146     a.u. after    3 cycles
 Normal termination of Gaussian 16 at Fri Dec 11 00:56:31 2020.
 Gaussian 16:  ES64L-G16RevA.03 25-Dec-2016

 ----------------------------------------------------------------------
 # B3LYP/6-311++G(d,p) empiricaldispersion=gd3bj scf=xqc pop=npa geom=c
 heck
 ----------------------------------------------------------------------

 -----------------------------------
 CID_79578314_JID_6714_Energie_anion
 -----------------------------------
 Structure from the checkpoint file:  "JID_6714.chk"
 Charge = -1 Multiplicity = 2

                         Standard orientation:
 ---------------------------------------------------------------------
 Center     Atomic      Atomic             Coordinates (Angstroms)
 Number     Number       Type             X           Y           Z
 ---------------------------------------------------------------------
      1          6           0        2.524639    1.823507   -0.607549
      2          6           0        2.528253    0.375416   -0.242398
      3          6           0        1.478682   -0.519269   -0.056863
      4          6           0        2.110472   -1.741217    0.266558
      5          7           0        3.438228   -1.635636    0.279847
      6          7           0        3.672803   -0.336332   -0.034048
      7          6           0        5.036015    0.145768   -0.106091
      8          6           0        0.008422   -0.247968   -0.168799
      9          7           0       -0.366767    0.861034    0.722378
     10          6           0       -1.761367    1.305861    0.815469
     11          6           0       -2.728974    0.426951    1.633919
     12          6           0       -3.102582   -0.885452    0.935160
     13          6           0       -3.379070   -0.763366   -0.557954
     14          8           0       -3.948301   -1.648174   -1.184193
     15          7           0       -2.904952    0.360843   -1.181389
     16          6           0       -2.376307    1.572413   -0.561060
     17          1           0        2.843538    1.986988   -1.645802
     18          1           0        1.513277    2.215920   -0.482133
     19          1           0        3.195778    2.406504    0.035147
     20          1           0        1.644947   -2.694121    0.486277
     21          1           0        5.261274    0.536831   -1.104140
     22          1           0        5.213434    0.935888    0.632043
     23          1           0        5.686196   -0.702084    0.107502
     24          1           0       -0.254737    0.042749   -1.191512
     25          1           0       -0.529130   -1.189111    0.023599
     26          1           0       -0.010200    0.665229    1.655419
     27          1           0       -1.714722    2.280328    1.319573
     28          1           0       -3.640554    1.014650    1.811867
     29          1           0       -2.297212    0.221863    2.621257
     30          1           0       -3.992292   -1.337330    1.384019
     31          1           0       -2.303277   -1.627123    1.043918
     32          1           0       -3.140693    0.398485   -2.165971
     33          1           0       -3.176391    2.318446   -0.446452
     34          1           0       -1.617115    2.006059   -1.220930
 ---------------------------------------------------------------------

 SCF Done:  E(UB3LYP) =  -724.490404520     A.U. after   30 cycles

 The electronic state is 2-A.
 Alpha  occ. eigenvalues --  -18.99240 -14.29331 -14.24456 -14.23130 -14.20525
 Alpha  occ. eigenvalues --  -10.17960 -10.12181 -10.11697 -10.11469 -10.11363
 Alpha  occ. eigenvalues --  -10.10649 -10.09210 -10.08842 -10.08199 -10.07778
 Alpha  occ. eigenvalues --  -10.07185  -0.95363  -0.94452  -0.84088  -0.80816
 Alpha  occ. eigenvalues --   -0.75179  -0.71738  -0.69645  -0.66038  -0.62555
 Alpha  occ. eigenvalues --   -0.60733  -0.58103  -0.55856  -0.52152  -0.49528
 Alpha  occ. eigenvalues --   -0.46419  -0.45825  -0.42250  -0.40682  -0.39836
 Alpha  occ. eigenvalues --   -0.39034  -0.38254  -0.36901  -0.35657  -0.35227
 Alpha  occ. eigenvalues --   -0.33740  -0.33432  -0.32631  -0.32263  -0.32011
 Alpha  occ. eigenvalues --   -0.31049  -0.30768  -0.30155  -0.29086  -0.28052
 Alpha  occ. eigenvalues --   -0.27698  -0.26274  -0.25067  -0.24935  -0.19939
 Alpha  occ. eigenvalues --   -0.16569  -0.16147  -0.15696  -0.14416  -0.13011
 Alpha  occ. eigenvalues --    0.03596
 Alpha virt. eigenvalues --    0.05410   0.06774   0.07437   0.07867   0.08485
 Alpha virt. eigenvalues --    0.08746   0.09327   0.09603   0.09945   0.10487
 Alpha virt. eigenvalues --    0.10543   0.10904   0.11493   0.11819   0.12844

  Beta  occ. eigenvalues --  -18.99231 -14.29329 -14.24448 -14.23126 -14.20513
  Beta  occ. eigenvalues --  -10.17958 -10.12145 -10.11658 -10.11466 -10.11349
  Beta  occ. eigenvalues --  -10.10639 -10.09209 -10.08834 -10.08170 -10.07738
  Beta  occ. eigenvalues --  -10.07184  -0.95355  -0.94436  -0.84060  -0.80791
  Beta  occ. eigenvalues --   -0.75164  -0.71716  -0.69613  -0.65994  -0.62511
  Beta  occ. eigenvalues --   -0.60680  -0.58058  -0.55806  -0.52112  -0.49514
  Beta  occ. eigenvalues --   -0.46384  -0.45787  -0.42186  -0.40633  -0.39799
  Beta  occ. eigenvalues --   -0.39007  -0.38221  -0.36865  -0.35628  -0.35202
  Beta  occ. eigenvalues --   -0.33707  -0.33399  -0.32598  -0.32233  -0.31979
  Beta  occ. eigenvalues --   -0.31015  -0.30735  -0.30124  -0.29057  -0.28027
  Beta  occ. eigenvalues --   -0.27670  -0.26239  -0.25028  -0.24890  -0.19921
  Beta  occ. eigenvalues --   -0.16547  -0.16121  -0.15684  -0.14403  -0.12994
  Beta virt. eigenvalues --    0.05855   0.06390   0.07420   0.07898   0.08362
  Beta virt. eigenvalues --    0.08853   0.09232   0.09572   0.09860   0.10135
  Beta virt. eigenvalues --    0.10767   0.10956   0.11309   0.11688   0.12021

 Mulliken charges and spin densities:
               1          2
     1  C    0.818611  -1.393195
     2  C   -1.555227   0.920469
     3  C    1.160472  -0.819565
     4  C   -0.452689   0.379467
     5  N   -0.429064   0.082486
     6  N    0.270627   0.119876
     7  C    0.417916  -0.745221
     8  C   -0.018868  -0.448944
     9  N    0.123524  -0.132975
    10  C   -0.811831   1.105935
    11  C    0.729332  -1.503747
    12  C    0.074449  -0.120450
    13  C   -0.322517   0.300952
    14  O   -0.348725  -0.001699
    15  N   -0.350456   0.093339
    16  C    1.266175  -1.705592
    17  H   -0.188717   0.358375
    18  H    0.079588   0.137695
    19  H   -0.269133   0.405887
    20  H    0.072054   0.081241
    21  H   -0.222099   0.389519
    22  H   -0.151000   0.324410
    23  H    0.026656   0.135208
    24  H    0.070643   0.106693
    25  H    0.247112  -0.167750
    26  H    0.166864   0.046369
    27  H   -0.692405   0.939961
    28  H   -0.077332   0.239803
    29  H   -0.248541   0.403179
    30  H    0.113089   0.100889
    31  H    0.097583   0.077216
    32  H    0.178176   0.139854
    33  H   -0.587175   0.789934
    34  H   -0.187093   0.360383
 Sum of Mulliken charges =  -1.00000   1.00000

 Dipole moment (field-independent basis, Debye):
    X=              1.0463    Y=             -3.3125    Z=              0.4316  Tot=              3.5005
 Quadrupole moment (field-independent basis, Debye-Ang):
   XX=           -188.4317   YY=           -150.2679   ZZ=           -130.3220
   XY=             -1.2003   XZ=             -0.7944   YZ=             -5.3956

 Summary of Natural Population Analysis:

                                       Natural Population
                Natural  -----------------------------------------------
    Atom  No    Charge         Core      Valence    Rydberg      Total
 -----------------------------------------------------------------------
      C    1   -0.30809      0.99963     2.30283    0.00563     3.30809
      C    2    0.09830      0.99948     1.89047    0.01175     2.90170
      C    3   -0.07901      0.99946     2.06909    0.01046     3.07901
      C    4   -0.01028      0.99958     1.99702    0.01368     3.01028
      N    5   -0.16112      0.99974     2.64985    0.01154     3.66112
      N    6   -0.11014      0.99962     2.59781    0.01271     3.61014
      C    7   -0.17540      0.99964     2.16796    0.00780     3.17540
      C    8   -0.09350      0.99957     2.08420    0.00973     3.09350
      N    9   -0.34286      0.99974     2.83113    0.01200     3.84286
      C   10   -0.01129      0.99958     1.99664    0.01507     3.01129
      C   11   -0.19826      0.99961     2.18941    0.00924     3.19826
      C   12   -0.23603      0.99959     2.22738    0.00906     3.23603
      C   13    0.34506      0.99966     1.63285    0.02243     2.65494
      O   14   -0.32884      0.99988     3.32334    0.00562     4.32884
      N   15   -0.32054      0.99967     2.81127    0.00961     3.82054
      C   16   -0.08869      0.99958     2.07772    0.01138     3.08869
      H   17    0.10573      0.00000     0.39299    0.00128     0.39427
      H   18    0.12273      0.00000     0.37559    0.00167     0.37727
      H   19    0.10699      0.00000     0.39148    0.00153     0.39301
      H   20    0.09592      0.00000     0.40310    0.00097     0.40408
      H   21    0.09928      0.00000     0.39939    0.00133     0.40072
      H   22    0.09911      0.00000     0.39962    0.00127     0.40089
      H   23    0.10885      0.00000     0.38968    0.00147     0.39115
      H   24    0.09884      0.00000     0.39955    0.00161     0.40116
      H   25    0.08282      0.00000     0.41477    0.00241     0.41718
      H   26    0.17527      0.00000     0.32205    0.00268     0.32473
      H   27    0.10487      0.00000     0.39261    0.00252     0.39513
      H   28    0.10125      0.00000     0.39715    0.00160     0.39875
      H   29    0.10152      0.00000     0.39713    0.00135     0.39848
      H   30    0.11186      0.00000     0.38716    0.00098     0.38814
      H   31    0.10920      0.00000     0.38951    0.00128     0.39080
      H   32    0.19427      0.00000     0.30350    0.00223     0.30573
      H   33    0.09862      0.00000     0.39882    0.00256     0.40138
      H   34    0.10354      0.00000     0.39463    0.00183     0.39646
 =======================================================================
   * Total *   -0.00000     15.99402    43.79769    0.20829    60.00000

 Normal termination of Gaussian 16 at Fri Dec 11 01:13:56 2020.
