 Gaussian 16, Revision A.03,

 -----------------------------------------------------------
 # opt freq B3LYP/6-31G(d) empiricaldispersion=gd3bj scf=xqc
 -----------------------------------------------------------

 --------------------------------
 CID_114910932_JID_10673_neutraal
 --------------------------------
 Symbolic Z-matrix:
 Charge =  0 Multiplicity = 1

 SCF Done:  E(RB3LYP) =  -1202.32726130     A.U. after   15 cycles
 SCF Done:  E(RB3LYP) =  -1202.33589415     A.U. after   13 cycles
 SCF Done:  E(RB3LYP) =  -1202.33519064     A.U. after   13 cycles
 SCF Done:  E(RB3LYP) =  -1202.33720584     A.U. after   12 cycles
 SCF Done:  E(RB3LYP) =  -1202.33843197     A.U. after   13 cycles
 SCF Done:  E(RB3LYP) =  -1202.34020590     A.U. after   13 cycles
 SCF Done:  E(RB3LYP) =  -1202.34064317     A.U. after   12 cycles
 SCF Done:  E(RB3LYP) =  -1202.34076459     A.U. after   12 cycles
 SCF Done:  E(RB3LYP) =  -1202.34078990     A.U. after   10 cycles
 SCF Done:  E(RB3LYP) =  -1202.34079789     A.U. after    9 cycles
 SCF Done:  E(RB3LYP) =  -1202.34079992     A.U. after    9 cycles
 SCF Done:  E(RB3LYP) =  -1202.34080204     A.U. after    8 cycles
 SCF Done:  E(RB3LYP) =  -1202.34080314     A.U. after    8 cycles
 SCF Done:  E(RB3LYP) =  -1202.34080333     A.U. after    7 cycles
 SCF Done:  E(RB3LYP) =  -1202.34080334     A.U. after    7 cycles
 Optimization completed.
    -- Stationary point found.
 Normal termination of Gaussian 16 at Sun Dec 13 13:19:03 2020.

 --------------------------------------------------------------------
 #N Geom=AllCheck Guess=TCheck SCRF=Check GenChk RB3LYP/6-31G(d) Freq
 --------------------------------------------------------------------

 Structure from the checkpoint file:  "JID_10673.chk"
 --------------------------------
 CID_114910932_JID_10673_neutraal
 --------------------------------
 Charge =  0 Multiplicity = 1

 SCF Done:  E(RB3LYP) =  -1202.34080334     A.U. after    1 cycles

  Exact polarizability: 279.117  -1.299 156.833 -26.518 -12.318 161.958
 Approx polarizability: 404.447  -2.647 264.564 -62.818 -26.672 293.798

                      1                      2                      3
                      A                      A                      A
 Frequencies --     35.5013                36.1851                46.4991
 Red. masses --      4.0073                 6.3712                 5.8003
 Frc consts  --      0.0030                 0.0049                 0.0074
 IR Inten    --      0.3715                 0.0471                 0.0438

                      4                      5                      6
                      A                      A                      A
 Frequencies --     83.6104               144.1371               164.2720
 Red. masses --      4.1458                 5.3110                 5.7779
 Frc consts  --      0.0171                 0.0650                 0.0919
 IR Inten    --      0.3869                 0.5028                 0.5646

                      7                      8                      9
                      A                      A                      A
 Frequencies --    198.9565               205.3651               217.6198
 Red. masses --      4.8017                 2.8003                 4.2821
 Frc consts  --      0.1120                 0.0696                 0.1195
 IR Inten    --      0.7501                 1.3209                 3.3829

                     10                     11                     12
                      A                      A                      A
 Frequencies --    231.7637               239.2982               282.2657
 Red. masses --      2.6959                 1.2965                 1.7961
 Frc consts  --      0.0853                 0.0437                 0.0843
 IR Inten    --      2.4293                 2.5876                 1.3164

                     13                     14                     15
                      A                      A                      A
 Frequencies --    297.0077               316.6796               320.5126
 Red. masses --      2.5266                 2.4427                 2.0963
 Frc consts  --      0.1313                 0.1443                 0.1269
 IR Inten    --      3.6172                14.8878                43.4071

                     16                     17                     18
                      A                      A                      A
 Frequencies --    336.8437               363.8693               374.7800
 Red. masses --      1.5878                 3.3681                 5.4981
 Frc consts  --      0.1061                 0.2627                 0.4550
 IR Inten    --     77.7128                 5.2775                 8.9266

                     19                     20                     21
                      A                      A                      A
 Frequencies --    387.0816               423.5016               446.8091
 Red. masses --      3.1863                 3.7101                 1.5905
 Frc consts  --      0.2813                 0.3921                 0.1871
 IR Inten    --      6.8140                 5.3381                28.5033

                     22                     23                     24
                      A                      A                      A
 Frequencies --    451.8191               496.1197               501.3350
 Red. masses --      1.8705                 3.6493                 7.6241
 Frc consts  --      0.2250                 0.5292                 1.1290
 IR Inten    --     15.7127                15.1086                 1.9034

                     25                     26                     27
                      A                      A                      A
 Frequencies --    512.6197               548.1555               560.5450
 Red. masses --      4.2675                 6.1343                 3.7381
 Frc consts  --      0.6607                 1.0860                 0.6920
 IR Inten    --      3.8233                 3.1329                 0.9622

                     28                     29                     30
                      A                      A                      A
 Frequencies --    570.8110               588.2495               593.8914
 Red. masses --      4.7309                 3.4148                 4.1140
 Frc consts  --      0.9082                 0.6962                 0.8549
 IR Inten    --      3.8653                25.4247                 4.4724

                     31                     32                     33
                      A                      A                      A
 Frequencies --    613.8846               644.2023               687.3459
 Red. masses --      5.1323                 4.5144                 4.2412
 Frc consts  --      1.1396                 1.1038                 1.1806
 IR Inten    --      3.9325                14.1425                29.6445

                     34                     35                     36
                      A                      A                      A
 Frequencies --    708.5016               725.1136               736.3060
 Red. masses --      1.7836                 5.4592                 3.4353
 Frc consts  --      0.5275                 1.6912                 1.0973
 IR Inten    --    143.6148                13.1385                15.9231

                     37                     38                     39
                      A                      A                      A
 Frequencies --    753.8512               763.7289               804.1131
 Red. masses --      2.5332                 1.5398                 6.9453
 Frc consts  --      0.8482                 0.5292                 2.6459
 IR Inten    --      2.5513                36.6810                28.4203

                     40                     41                     42
                      A                      A                      A
 Frequencies --    824.5243               838.2354               853.6652
 Red. masses --      1.2083                 4.3367                 1.3507
 Frc consts  --      0.4840                 1.7953                 0.5799
 IR Inten    --     13.0996                20.8852                11.1554

                     43                     44                     45
                      A                      A                      A
 Frequencies --    878.2835               883.0256               936.3080
 Red. masses --      1.5065                 3.9351                 3.4094
 Frc consts  --      0.6847                 1.8078                 1.7610
 IR Inten    --     12.8277                 1.7612                27.3653

                     46                     47                     48
                      A                      A                      A
 Frequencies --    941.7003               970.1662               982.5933
 Red. masses --      1.3559                 1.3653                 1.2588
 Frc consts  --      0.7085                 0.7571                 0.7161
 IR Inten    --      1.3232                 0.5989                 0.0027

                     49                     50                     51
                      A                      A                      A
 Frequencies --    990.3609              1022.6512              1051.5640
 Red. masses --      3.0103                 2.7384                 2.0581
 Frc consts  --      1.7396                 1.6873                 1.3409
 IR Inten    --     14.3072                12.0155                 9.5107

                     52                     53                     54
                      A                      A                      A
 Frequencies --   1054.1436              1076.2326              1079.1051
 Red. masses --      2.2719                 1.6063                 2.2717
 Frc consts  --      1.4874                 1.0962                 1.5586
 IR Inten    --      3.1080                 3.6554                15.4302

                     55                     56                     57
                      A                      A                      A
 Frequencies --   1091.6760              1109.3211              1138.6543
 Red. masses --      2.8993                 1.6568                 3.0865
 Frc consts  --      2.0358                 1.2013                 2.3578
 IR Inten    --      2.7189                23.4555                30.6993

                     58                     59                     60
                      A                      A                      A
 Frequencies --   1162.9691              1178.6469              1194.3651
 Red. masses --      1.5143                 2.0049                 1.1747
 Frc consts  --      1.2067                 1.6410                 0.9873
 IR Inten    --      2.5798                25.4548                 8.6228

                     61                     62                     63
                      A                      A                      A
 Frequencies --   1200.1187              1207.2437              1234.8338
 Red. masses --      1.7615                 2.0535                 1.9369
 Frc consts  --      1.4948                 1.7634                 1.7401
 IR Inten    --      8.2034                67.3513                10.7794

                     64                     65                     66
                      A                      A                      A
 Frequencies --   1287.6625              1299.9144              1324.1479
 Red. masses --      1.8989                 2.0588                 4.0608
 Frc consts  --      1.8550                 2.0497                 4.1950
 IR Inten    --      3.8351                 4.6531                22.1999

                     67                     68                     69
                      A                      A                      A
 Frequencies --   1343.7503              1359.2939              1375.5764
 Red. masses --      2.9000                 2.3693                 3.0315
 Frc consts  --      3.0852                 2.5793                 3.3797
 IR Inten    --      3.0606                 4.8894                20.1183

                     70                     71                     72
                      A                      A                      A
 Frequencies --   1390.2650              1430.8784              1446.7267
 Red. masses --      2.2667                 1.2539                 1.2195
 Frc consts  --      2.5813                 1.5126                 1.5038
 IR Inten    --     36.7039                22.7175                 7.2948

                     73                     74                     75
                      A                      A                      A
 Frequencies --   1460.1200              1481.7269              1507.5801
 Red. masses --      3.0495                 2.4374                 2.6649
 Frc consts  --      3.8305                 3.1529                 3.5686
 IR Inten    --     97.5014                 9.7408                 7.2060

                     76                     77                     78
                      A                      A                      A
 Frequencies --   1512.2349              1515.1742              1523.9563
 Red. masses --      1.1920                 1.3165                 1.1066
 Frc consts  --      1.6061                 1.7807                 1.5143
 IR Inten    --     37.0362                53.4593                 0.6690

                     79                     80                     81
                      A                      A                      A
 Frequencies --   1525.0944              1535.0424              1584.5448
 Red. masses --      1.3986                 1.1483                 5.2776
 Frc consts  --      1.9166                 1.5941                 7.8072
 IR Inten    --      8.4632                 4.0099                 5.5555

                     82                     83                     84
                      A                      A                      A
 Frequencies --   1619.1523              1624.7566              1641.9824
 Red. masses --      4.8564                 6.0196                 5.6185
 Frc consts  --      7.5013                 9.3625                 8.9251
 IR Inten    --     64.3908                 8.9830                91.0864

                     85                     86                     87
                      A                      A                      A
 Frequencies --   1655.7652              1672.5122              3057.9962
 Red. masses --      5.8793                 1.2567                 1.0409
 Frc consts  --      9.4967                 2.0712                 5.7348
 IR Inten    --      2.6831                88.8970                28.9209

                     88                     89                     90
                      A                      A                      A
 Frequencies --   3074.3551              3133.8600              3144.0228
 Red. masses --      1.0380                 1.0956                 1.1009
 Frc consts  --      5.7806                 6.3395                 6.4116
 IR Inten    --     28.3240                21.6288                26.1550

                     91                     92                     93
                      A                      A                      A
 Frequencies --   3153.4745              3165.1399              3165.8378
 Red. masses --      1.1004                 1.1037                 1.0890
 Frc consts  --      6.4474                 6.5143                 6.4308
 IR Inten    --      8.0543                 4.9916                33.1764

                     94                     95                     96
                      A                      A                      A
 Frequencies --   3187.1935              3195.4824              3206.1259
 Red. masses --      1.0858                 1.0886                 1.0933
 Frc consts  --      6.4987                 6.5495                 6.6215
 IR Inten    --      1.0580                 5.0217                21.7527

                     97                     98                     99
                      A                      A                      A
 Frequencies --   3206.5531              3215.6449              3225.6046
 Red. masses --      1.0935                 1.0973                 1.0920
 Frc consts  --      6.6244                 6.6850                 6.6944
 IR Inten    --     30.2353                27.7430                 4.0506

                    100                    101                    102
                      A                      A                      A
 Frequencies --   3540.5555              3646.4717              3734.3631
 Red. masses --      1.0471                 1.0988                 1.0662
 Frc consts  --      7.7334                 8.6083                 8.7602
 IR Inten    --     49.1208                76.9534                13.2163

 - Thermochemistry -
 -------------------
 Temperature   298.150 Kelvin.  Pressure   1.00000 Atm.
 Atom     1 has atomic number  6 and mass  12.00000

 Molecular mass:   284.09834 amu.
 Principal axes and moments of inertia in atomic units:
                           1         2         3
     Eigenvalues --  2674.684349159.538639442.76905
           X            0.99993  -0.00879  -0.00850
           Y            0.00803   0.99630  -0.08554
           Z            0.00922   0.08547   0.99630
 This molecule is an asymmetric top.
 Rotational symmetry number  1.
 Warning -- assumption of classical behavior for rotation
           may cause significant error
 Rotational temperatures (Kelvin)      0.03238     0.00946     0.00917
 Rotational constants (GHZ):           0.67475     0.19703     0.19112
 Zero-point vibrational energy     762524.1 (Joules/Mol)
                                  182.24764 (Kcal/Mol)
 Warning -- explicit consideration of  31 degrees of freedom as
           vibrations may cause significant error
 Vibrational temperatures:     51.08    52.06    66.90   120.30   207.38
          (Kelvin)            236.35   286.25   295.47   313.11   333.46
                              344.30   406.12   427.33   455.63   461.15
                              484.64   523.53   539.22   556.92   609.32
                              642.86   650.07   713.81   721.31   737.55
                              788.67   806.50   821.27   846.36   854.48
                              883.24   926.86   988.94  1019.38  1043.28
                             1059.38  1084.62  1098.84  1156.94  1186.31
                             1206.03  1228.23  1263.65  1270.48  1347.14
                             1354.90  1395.85  1413.73  1424.91  1471.37
                             1512.97  1516.68  1548.46  1552.59  1570.68
                             1596.07  1638.27  1673.25  1695.81  1718.43
                             1726.70  1736.95  1776.65  1852.66  1870.29
                             1905.15  1933.36  1955.72  1979.15  2000.28
                             2058.71  2081.52  2100.79  2131.87  2169.07
                             2175.77  2180.00  2192.63  2194.27  2208.58
                             2279.81  2329.60  2337.66  2362.45  2382.28
                             2406.37  4399.77  4423.31  4508.93  4523.55
                             4537.15  4553.93  4554.93  4585.66  4597.59
                             4612.90  4613.51  4626.60  4640.93  5094.07
                             5246.46  5372.92

 Zero-point correction=                           0.290430 (Hartree/Particle)
 Thermal correction to Energy=                    0.307906
 Thermal correction to Enthalpy=                  0.308850
 Thermal correction to Gibbs Free Energy=         0.245388
 Sum of electronic and zero-point Energies=          -1202.050373
 Sum of electronic and thermal Energies=             -1202.032897
 Sum of electronic and thermal Enthalpies=           -1202.031953
 Sum of electronic and thermal Free Energies=        -1202.095415

                     E (Thermal)             CV                S
                      KCal/Mol        Cal/Mol-Kelvin    Cal/Mol-Kelvin
 Total                  193.214             70.653            133.568
 Electronic               0.000              0.000              0.000
 Translational            0.889              2.981             42.830
 Rotational               0.889              2.981             33.803
 Vibrational            191.436             64.691             56.935
 Vibration     1          0.594              1.982              5.496
 Vibration     2          0.594              1.982              5.458
 Vibration     3          0.595              1.979              4.961
 Vibration     4          0.601              1.960              3.804
 Vibration     5          0.616              1.909              2.748
 Vibration     6          0.623              1.886              2.500
 Vibration     7          0.637              1.841              2.143
 Vibration     8          0.640              1.832              2.084
 Vibration     9          0.646              1.814              1.979
 Vibration    10          0.653              1.792              1.865
 Vibration    11          0.657              1.780              1.808
 Vibration    12          0.681              1.706              1.520
 Vibration    13          0.691              1.679              1.434
 Vibration    14          0.704              1.642              1.327
 Vibration    15          0.706              1.634              1.307
 Vibration    16          0.718              1.602              1.227
 Vibration    17          0.737              1.547              1.106
 Vibration    18          0.746              1.524              1.060
 Vibration    19          0.756              1.498              1.011
 Vibration    20          0.786              1.419              0.880
 Vibration    21          0.806              1.368              0.805
 Vibration    22          0.810              1.357              0.790
 Vibration    23          0.852              1.259              0.668
 Vibration    24          0.857              1.247              0.655
 Vibration    25          0.868              1.222              0.627
 Vibration    26          0.903              1.144              0.548
 Vibration    27          0.916              1.117              0.523
 Vibration    28          0.927              1.094              0.503
 Vibration    29          0.945              1.057              0.470
 Vibration    30          0.952              1.045              0.460
 Vibration    31          0.973              1.002              0.426

 Optimization completed.
    -- Stationary point found.
 Normal termination of Gaussian 16 at Sun Dec 13 13:39:28 2020.

 ----------------------------------------------------------------------
 # B3LYP/6-311++G(d,p) empiricaldispersion=gd3bj scf=xqc pop=npa geom=c
 heck
 ----------------------------------------------------------------------

 ----------------------------------------
 CID_114910932_JID_10673_Energie_neutraal
 ----------------------------------------
 Structure from the checkpoint file:  "JID_10673.chk"
 Charge =  0 Multiplicity = 1

 SCF Done:  E(RB3LYP) =  -1202.58808317     A.U. after   16 cycles
 Normal termination of Gaussian 16 at Sun Dec 13 13:49:00 2020.

 ----------------------------------------------------------------------
 # B3LYP/6-311++G(d,p) empiricaldispersion=gd3bj scf=xqc pop=npa geom=c
 heck
 ----------------------------------------------------------------------

 --------------------------------------
 CID_114910932_JID_10673_Energie_kation
 --------------------------------------
 Structure from the checkpoint file:  "JID_10673.chk"
 Charge =  1 Multiplicity = 2

 SCF Done:  E(UB3LYP) =  -1202.30976808     A.U. after   28 cycles
 Normal termination of Gaussian 16 at Sun Dec 13 14:12:35 2020.
 Gaussian 16:  ES64L-G16RevA.03 25-Dec-2016

 ----------------------------------------------------------------------
 # B3LYP/6-311++G(d,p) empiricaldispersion=gd3bj scf=xqc pop=npa geom=c
 heck
 ----------------------------------------------------------------------

 -------------------------------------
 CID_114910932_JID_10673_Energie_anion
 -------------------------------------
 Structure from the checkpoint file:  "JID_10673.chk"
 Charge = -1 Multiplicity = 2

                         Standard orientation:
 ---------------------------------------------------------------------
 Center     Atomic      Atomic             Coordinates (Angstroms)
 Number     Number       Type             X           Y           Z
 ---------------------------------------------------------------------
      1          6           0        3.389969   -1.277653   -1.721842
      2          6           0        3.093565   -0.156469   -0.748625
      3          6           0        2.016038   -0.114334    0.158892
      4          6           0        1.927570    1.028645    1.007525
      5          7           0        2.792892    2.052844    0.977493
      6          6           0        3.801304    1.988465    0.109264
      7          6           0        3.987977    0.926196   -0.758660
      8          7           0        0.957557    1.154433    1.996452
      9          6           0        0.976741   -1.232754    0.341170
     10          6           0        1.200728   -1.941496    1.688972
     11          6           0       -0.441994   -0.700522    0.203957
     12          6           0       -1.542489   -0.970997    0.963714
     13          6           0       -2.750841   -0.365990    0.465924
     14          6           0       -4.054330   -0.420350    0.989163
     15          6           0       -5.080672    0.249752    0.338517
     16          6           0       -4.829431    0.981789   -0.835757
     17          6           0       -3.549079    1.052160   -1.373229
     18          6           0       -2.515777    0.375684   -0.719058
     19         16           0       -0.824909    0.316914   -1.185736
     20          8           0        1.141282   -2.198362   -0.710127
     21          1           0        3.487920   -2.240732   -1.217073
     22          1           0        2.591007   -1.393444   -2.457151
     23          1           0        4.323657   -1.061769   -2.249552
     24          1           0        4.487989    2.833698    0.110846
     25          1           0        4.825897    0.925147   -1.448209
     26          1           0        0.038396    0.787369    1.783288
     27          1           0        0.938604    2.101012    2.358161
     28          1           0        1.134691   -1.248280    2.530050
     29          1           0        0.470189   -2.746978    1.828121
     30          1           0        2.199440   -2.384615    1.673351
     31          1           0       -1.510796   -1.571882    1.865525
     32          1           0       -4.249453   -0.984988    1.896823
     33          1           0       -6.089268    0.210298    0.739071
     34          1           0       -5.645552    1.500388   -1.330162
     35          1           0       -3.356459    1.618716   -2.279138
     36          1           0        0.393194   -2.811370   -0.628353
 ---------------------------------------------------------------------

 SCF Done:  E(UB3LYP) =  -1202.58632169     A.U. after   33 cycles
 SCF Done:  E(UB3LYP) =  -1202.58632169     a.u. after    1 cycles

 The electronic state is 2-A.
 Alpha  occ. eigenvalues --  -88.73255 -19.00788 -14.20023 -14.18536 -10.13324
 Alpha  occ. eigenvalues --  -10.12992 -10.08794 -10.08155 -10.07224 -10.06946
 Alpha  occ. eigenvalues --  -10.05754 -10.05610 -10.05523 -10.05356 -10.04771
 Alpha  occ. eigenvalues --  -10.04753 -10.04509 -10.03942 -10.03818 -10.03774
 Alpha  occ. eigenvalues --   -7.81904  -5.78222  -5.77867  -5.77441  -0.91800
 Alpha  occ. eigenvalues --   -0.85061  -0.77460  -0.75746  -0.71191  -0.69718
 Alpha  occ. eigenvalues --   -0.66124  -0.63799  -0.62064  -0.59512  -0.59399
 Alpha  occ. eigenvalues --   -0.57623  -0.53813  -0.50161  -0.48793  -0.47454
 Alpha  occ. eigenvalues --   -0.45668  -0.44065  -0.40665  -0.39505  -0.38006
 Alpha  occ. eigenvalues --   -0.37395  -0.36587  -0.35022  -0.34436  -0.33862
 Alpha  occ. eigenvalues --   -0.32674  -0.31343  -0.30767  -0.30411  -0.29659
 Alpha  occ. eigenvalues --   -0.28987  -0.28409  -0.27865  -0.27402  -0.27108
 Alpha  occ. eigenvalues --   -0.26229  -0.25821  -0.23094  -0.22585  -0.21354
 Alpha  occ. eigenvalues --   -0.20732  -0.20474  -0.20107  -0.17504  -0.15975
 Alpha  occ. eigenvalues --   -0.15355  -0.15203  -0.11055  -0.10728  -0.09716
 Alpha  occ. eigenvalues --    0.04952
 Alpha virt. eigenvalues --    0.07397   0.07897   0.08156   0.08324   0.08926
 Alpha virt. eigenvalues --    0.09523   0.09997   0.10137   0.10207   0.10650
 Alpha virt. eigenvalues --    0.11095   0.11272   0.12036   0.12708   0.12958

  Beta  occ. eigenvalues --  -88.73227 -19.00698 -14.20025 -14.18492 -10.13344
  Beta  occ. eigenvalues --  -10.12999 -10.08720 -10.08067 -10.07213 -10.06900
  Beta  occ. eigenvalues --  -10.05636 -10.05524 -10.05354 -10.05342 -10.04851
  Beta  occ. eigenvalues --  -10.04701 -10.04418 -10.03723 -10.03666 -10.03599
  Beta  occ. eigenvalues --   -7.81879  -5.78213  -5.77859  -5.77342  -0.91576
  Beta  occ. eigenvalues --   -0.84996  -0.77401  -0.75483  -0.70999  -0.69421
  Beta  occ. eigenvalues --   -0.66014  -0.63467  -0.61941  -0.59446  -0.59129
  Beta  occ. eigenvalues --   -0.57327  -0.53710  -0.49914  -0.48673  -0.47232
  Beta  occ. eigenvalues --   -0.45499  -0.43845  -0.40524  -0.39451  -0.37851
  Beta  occ. eigenvalues --   -0.37299  -0.36459  -0.34919  -0.34286  -0.33790
  Beta  occ. eigenvalues --   -0.32535  -0.31173  -0.30657  -0.30271  -0.29608
  Beta  occ. eigenvalues --   -0.28810  -0.28315  -0.27781  -0.27175  -0.26865
  Beta  occ. eigenvalues --   -0.26021  -0.25590  -0.22935  -0.22454  -0.21190
  Beta  occ. eigenvalues --   -0.20351  -0.20302  -0.19581  -0.17205  -0.15204
  Beta  occ. eigenvalues --   -0.15035  -0.14983  -0.10711  -0.10029  -0.08450
  Beta virt. eigenvalues --    0.07297   0.07790   0.08203   0.08781   0.08942
  Beta virt. eigenvalues --    0.09449   0.09994   0.10070   0.10141   0.10278
  Beta virt. eigenvalues --    0.10784   0.11252   0.11369   0.11960   0.12646

 Mulliken charges and spin densities:
               1          2
     1  C   -0.285655  -0.234874
     2  C    0.690635   0.117865
     3  C    0.492861   0.079950
     4  C   -0.852707   0.085277
     5  N   -0.085653   0.011766
     6  C   -0.223955   0.001217
     7  C   -0.504725  -0.056840
     8  N   -0.375842   0.031207
     9  C   -0.374031   0.103146
    10  C   -0.396214  -0.148155
    11  C    0.297857   0.291826
    12  C    0.228055  -0.109244
    13  C    0.527502  -0.137882
    14  C   -0.447468   0.283305
    15  C   -0.436652  -0.162549
    16  C   -0.179620   0.150397
    17  C   -0.364532   0.161852
    18  C    0.010290  -0.124437
    19  S   -0.558842   0.007135
    20  O   -0.138314   0.005156
    21  H    0.058693   0.114249
    22  H    0.185729  -0.001293
    23  H    0.092894   0.023407
    24  H    0.146060  -0.003533
    25  H    0.109970   0.006559
    26  H    0.335313   0.021152
    27  H    0.237035   0.017512
    28  H    0.093136   0.089598
    29  H   -0.053225   0.175024
    30  H    0.110087   0.062526
    31  H    0.133165  -0.016537
    32  H    0.026087   0.077300
    33  H    0.102465   0.012640
    34  H    0.106235  -0.004688
    35  H    0.098981   0.017214
    36  H    0.194384   0.052754
 Sum of Mulliken charges =  -1.00000   1.00000

 Dipole moment (field-independent basis, Debye):
    X=              2.1215    Y=             -0.7200    Z=             -0.2643  Tot=              2.2558
 Quadrupole moment (field-independent basis, Debye-Ang):
   XX=           -183.3145   YY=           -146.8989   ZZ=           -142.3472
   XY=              0.0245   XZ=             -5.4663   YZ=             -3.3119

 Summary of Natural Population Analysis:

                                       Natural Population
                Natural  -----------------------------------------------
    Atom  No    Charge         Core      Valence    Rydberg      Total
 -----------------------------------------------------------------------
      C    1   -0.29354      0.99963     2.28844    0.00548     3.29354
      C    2    0.02677      0.99948     1.96552    0.00822     2.97323
      C    3   -0.05026      0.99939     2.03876    0.01211     3.05026
      C    4    0.20752      0.99951     1.77824    0.01473     2.79248
      N    5   -0.26214      0.99968     2.75075    0.01171     3.76214
      C    6    0.04249      0.99959     1.94401    0.01391     2.95751
      C    7   -0.15170      0.99952     2.14298    0.00920     3.15170
      N    8   -0.40655      0.99970     2.89708    0.00976     3.90655
      C    9    0.11333      0.99943     1.87046    0.01678     2.88667
      C   10   -0.29274      0.99962     2.28707    0.00605     3.29274
      C   11   -0.04023      0.99944     2.02653    0.01425     3.04023
      C   12   -0.12159      0.99942     2.11225    0.00992     3.12159
      C   13   -0.03882      0.99947     2.02991    0.00944     3.03882
      C   14   -0.05666      0.99953     2.04880    0.00833     3.05666
      C   15   -0.13200      0.99958     2.12233    0.01009     3.13200
      C   16   -0.07119      0.99958     2.06224    0.00937     3.07119
      C   17   -0.10291      0.99950     2.09305    0.01035     3.10291
      C   18   -0.08634      0.99941     2.07581    0.01112     3.08634
      S   19    0.19477      4.99940     2.78701    0.01883     7.80523
      O   20   -0.36917      0.99989     3.36184    0.00744     4.36917
      H   21    0.11148      0.00000     0.38729    0.00123     0.38852
      H   22    0.11419      0.00000     0.38477    0.00104     0.38581
      H   23    0.08948      0.00000     0.40946    0.00106     0.41052
      H   24    0.08224      0.00000     0.41657    0.00119     0.41776
      H   25    0.09574      0.00000     0.40320    0.00106     0.40426
      H   26    0.20188      0.00000     0.29646    0.00166     0.29812
      H   27    0.18756      0.00000     0.31010    0.00234     0.31244
      H   28    0.11065      0.00000     0.38797    0.00137     0.38935
      H   29    0.09607      0.00000     0.40268    0.00125     0.40393
      H   30    0.10173      0.00000     0.39732    0.00095     0.39827
      H   31    0.10242      0.00000     0.39647    0.00112     0.39758
      H   32    0.09052      0.00000     0.40799    0.00149     0.40948
      H   33    0.09222      0.00000     0.40676    0.00102     0.40778
      H   34    0.08924      0.00000     0.40985    0.00091     0.41076
      H   35    0.09427      0.00000     0.40435    0.00138     0.40573
      H   36    0.23126      0.00000     0.26627    0.00246     0.26874
 =======================================================================
   * Total *    0.00000     23.99079    50.77059    0.23862    75.00000

 Normal termination of Gaussian 16 at Sun Dec 13 14:41:21 2020.
