 Gaussian 16, Revision A.03,

 -----------------------------------------------------------
 # opt freq B3LYP/6-31G(d) empiricaldispersion=gd3bj scf=xqc
 -----------------------------------------------------------

 --------------------------------
 CID_127294404_JID_10461_neutraal
 --------------------------------
 Symbolic Z-matrix:
 Charge =  0 Multiplicity = 1

 SCF Done:  E(RB3LYP) =  -2045.97144825     A.U. after   15 cycles
 SCF Done:  E(RB3LYP) =  -2045.98301950     A.U. after   13 cycles
 SCF Done:  E(RB3LYP) =  -2045.97691863     A.U. after   14 cycles
 SCF Done:  E(RB3LYP) =  -2045.98380397     A.U. after   13 cycles
 SCF Done:  E(RB3LYP) =  -2045.98598168     A.U. after   13 cycles
 SCF Done:  E(RB3LYP) =  -2045.98704949     A.U. after   13 cycles
 SCF Done:  E(RB3LYP) =  -2045.98847613     A.U. after   12 cycles
 SCF Done:  E(RB3LYP) =  -2045.98923662     A.U. after   13 cycles
 SCF Done:  E(RB3LYP) =  -2045.98954523     A.U. after   13 cycles
 SCF Done:  E(RB3LYP) =  -2045.98971548     A.U. after   12 cycles
 SCF Done:  E(RB3LYP) =  -2045.98983910     A.U. after    9 cycles
 SCF Done:  E(RB3LYP) =  -2045.98984176     A.U. after    9 cycles
 SCF Done:  E(RB3LYP) =  -2045.98984290     A.U. after    9 cycles
 SCF Done:  E(RB3LYP) =  -2045.98984314     A.U. after    8 cycles
 SCF Done:  E(RB3LYP) =  -2045.98984323     A.U. after    7 cycles
 Optimization completed.
    -- Stationary point found.
 Normal termination of Gaussian 16 at Sat Dec 12 15:50:50 2020.

 --------------------------------------------------------------------
 #N Geom=AllCheck Guess=TCheck SCRF=Check GenChk RB3LYP/6-31G(d) Freq
 --------------------------------------------------------------------

 Structure from the checkpoint file:  "JID_10461.chk"
 --------------------------------
 CID_127294404_JID_10461_neutraal
 --------------------------------
 Charge =  0 Multiplicity = 1

 SCF Done:  E(RB3LYP) =  -2045.98984323     A.U. after    1 cycles

  Exact polarizability: 220.158  17.491 156.084   3.302  11.276 162.639
 Approx polarizability: 313.568  25.061 238.758  -1.822  32.857 299.588

                      1                      2                      3
                      A                      A                      A
 Frequencies --     21.8654                25.6806                35.6071
 Red. masses --      6.3073                 7.3262                12.9328
 Frc consts  --      0.0018                 0.0028                 0.0097
 IR Inten    --      1.7505                 2.0117                 2.5259

                      4                      5                      6
                      A                      A                      A
 Frequencies --     51.0168                72.1827                84.4472
 Red. masses --      7.8685                 4.9148                 7.3306
 Frc consts  --      0.0121                 0.0151                 0.0308
 IR Inten    --      1.1403                 1.1928                 1.5523

                      7                      8                      9
                      A                      A                      A
 Frequencies --     90.4508               108.0374               127.8692
 Red. masses --      6.4453                 5.6248                 6.9794
 Frc consts  --      0.0311                 0.0387                 0.0672
 IR Inten    --      2.6549                 0.9781                 4.4461

                     10                     11                     12
                      A                      A                      A
 Frequencies --    172.5379               181.0413               213.4707
 Red. masses --      5.6128                 4.8563                 4.6899
 Frc consts  --      0.0984                 0.0938                 0.1259
 IR Inten    --      1.3439                 1.9246                 9.0186

                     13                     14                     15
                      A                      A                      A
 Frequencies --    230.9007               256.4173               263.2789
 Red. masses --      4.4065                 6.5114                 2.9382
 Frc consts  --      0.1384                 0.2522                 0.1200
 IR Inten    --      7.4598                 4.8666                 1.8027

                     16                     17                     18
                      A                      A                      A
 Frequencies --    285.4515               303.3762               339.1802
 Red. masses --      4.2229                 3.1901                 3.0266
 Frc consts  --      0.2027                 0.1730                 0.2051
 IR Inten    --      3.3586                 2.2489                 7.7542

                     19                     20                     21
                      A                      A                      A
 Frequencies --    371.1304               382.9222               421.4005
 Red. masses --      4.2840                 2.4487                 5.1141
 Frc consts  --      0.3477                 0.2115                 0.5351
 IR Inten    --      6.2327                 7.3461                 5.2221

                     22                     23                     24
                      A                      A                      A
 Frequencies --    428.9096               432.6291               443.2262
 Red. masses --      8.8342                 3.1501                 3.0850
 Frc consts  --      0.9575                 0.3474                 0.3571
 IR Inten    --     19.1984                 1.3725                 3.2980

                     25                     26                     27
                      A                      A                      A
 Frequencies --    465.0899               528.4668               534.7277
 Red. masses --      3.8607                 4.5024                 2.9216
 Frc consts  --      0.4920                 0.7408                 0.4922
 IR Inten    --      7.5070                31.2909                13.3311

                     28                     29                     30
                      A                      A                      A
 Frequencies --    547.6221               585.5015               590.8513
 Red. masses --      4.3309                 2.8400                 4.0635
 Frc consts  --      0.7652                 0.5736                 0.8358
 IR Inten    --     26.8246                31.0020                24.4142

                     31                     32                     33
                      A                      A                      A
 Frequencies --    613.7040               657.0586               664.2856
 Red. masses --     11.0838                 9.8046                 4.7803
 Frc consts  --      2.4595                 2.4939                 1.2428
 IR Inten    --      5.9335                22.7889                 8.5961

                     34                     35                     36
                      A                      A                      A
 Frequencies --    680.8733               695.8443               706.0509
 Red. masses --      2.8574                 4.3039                 3.8917
 Frc consts  --      0.7805                 1.2278                 1.1430
 IR Inten    --     26.3527                 6.4304                49.3893

                     37                     38                     39
                      A                      A                      A
 Frequencies --    722.1398               766.5901               789.0172
 Red. masses --      4.2661                 6.0144                 3.3613
 Frc consts  --      1.3108                 2.0824                 1.2329
 IR Inten    --     62.9051                29.4390                29.5133

                     40                     41                     42
                      A                      A                      A
 Frequencies --    793.8894               831.8917               843.8877
 Red. masses --      1.2296                 1.5709                 3.1089
 Frc consts  --      0.4566                 0.6405                 1.3044
 IR Inten    --     17.9841                 2.6775                 8.1108

                     43                     44                     45
                      A                      A                      A
 Frequencies --    869.0406               876.6488               906.0590
 Red. masses --      1.7518                 2.6343                 5.0479
 Frc consts  --      0.7795                 1.1928                 2.4416
 IR Inten    --     65.0417               160.4035                 6.4063

                     46                     47                     48
                      A                      A                      A
 Frequencies --    944.1834               993.0198               994.5305
 Red. masses --      2.2901                 1.7514                 2.2050
 Frc consts  --      1.2029                 1.0175                 1.2850
 IR Inten    --      0.9688                 4.1049                14.9274

                     49                     50                     51
                      A                      A                      A
 Frequencies --   1009.8929              1022.1000              1043.6090
 Red. masses --      2.2610                 1.8191                 2.4221
 Frc consts  --      1.3586                 1.1197                 1.5543
 IR Inten    --      5.4339                 3.3223                25.9275

                     52                     53                     54
                      A                      A                      A
 Frequencies --   1049.4641              1071.3632              1088.1823
 Red. masses --      2.4385                 1.7967                 3.5654
 Frc consts  --      1.5824                 1.2151                 2.4875
 IR Inten    --     19.1433                13.1958                29.3592

                     55                     56                     57
                      A                      A                      A
 Frequencies --   1120.6002              1133.6797              1153.6869
 Red. masses --      7.3182                 4.2856                 3.3159
 Frc consts  --      5.4145                 3.2452                 2.6003
 IR Inten    --    124.0649                22.3648                94.6357

                     58                     59                     60
                      A                      A                      A
 Frequencies --   1207.4565              1213.0129              1253.9414
 Red. masses --      1.1949                 1.2330                 1.2159
 Frc consts  --      1.0264                 1.0689                 1.1264
 IR Inten    --     17.1843                17.8988                 2.7168

                     61                     62                     63
                      A                      A                      A
 Frequencies --   1261.6544              1263.6569              1273.0562
 Red. masses --      1.4792                 1.4114                 1.4885
 Frc consts  --      1.3873                 1.3279                 1.4213
 IR Inten    --     16.0025                14.5432                82.4170

                     64                     65                     66
                      A                      A                      A
 Frequencies --   1317.7718              1321.7283              1326.6024
 Red. masses --      4.3354                 2.1847                 2.0996
 Frc consts  --      4.4357                 2.2486                 2.1770
 IR Inten    --      9.9055                85.1110               128.5158

                     67                     68                     69
                      A                      A                      A
 Frequencies --   1341.7369              1358.4982              1384.8275
 Red. masses --      1.2683                 1.5049                 1.1831
 Frc consts  --      1.3452                 1.6363                 1.3368
 IR Inten    --      9.1037                52.6294                12.8120

                     70                     71                     72
                      A                      A                      A
 Frequencies --   1390.1431              1394.8181              1409.3647
 Red. masses --      1.6393                 1.3255                 1.6192
 Frc consts  --      1.8665                 1.5193                 1.8950
 IR Inten    --    165.9167                43.3667                23.8232

                     73                     74                     75
                      A                      A                      A
 Frequencies --   1424.6560              1434.5442              1472.1940
 Red. masses --      1.3602                 2.0780                 1.0892
 Frc consts  --      1.6266                 2.5196                 1.3909
 IR Inten    --     28.1431               201.0974                10.5123

                     76                     77                     78
                      A                      A                      A
 Frequencies --   1489.2996              1496.2566              1507.6453
 Red. masses --      1.0897                 7.2480                 1.0901
 Frc consts  --      1.4240                 9.5605                 1.4599
 IR Inten    --      4.8851                23.3720                16.6961

                     79                     80                     81
                      A                      A                      A
 Frequencies --   1512.6624              1518.1776              1527.5629
 Red. masses --      1.0846                 1.1619                 1.0958
 Frc consts  --      1.4621                 1.5778                 1.5066
 IR Inten    --      6.0031                14.8596                11.3355

                     82                     83                     84
                      A                      A                      A
 Frequencies --   1542.0829              1561.8992              1802.9106
 Red. masses --      1.2681                 4.7802                 6.7935
 Frc consts  --      1.7767                 6.8707                13.0104
 IR Inten    --     70.5865               244.4457               483.0938

                     85                     86                     87
                      A                      A                      A
 Frequencies --   3043.7076              3059.8478              3067.5341
 Red. masses --      1.0694                 1.0610                 1.0622
 Frc consts  --      5.8372                 5.8530                 5.8889
 IR Inten    --     26.1987                21.0881                22.2659

                     88                     89                     90
                      A                      A                      A
 Frequencies --   3088.7196              3092.4650              3105.5248
 Red. masses --      1.0602                 1.0601                 1.0631
 Frc consts  --      5.9593                 5.9732                 6.0407
 IR Inten    --     13.9514                 1.3928                 8.9876

                     91                     92                     93
                      A                      A                      A
 Frequencies --   3115.0281              3131.0982              3145.4428
 Red. masses --      1.1018                 1.1028                 1.1077
 Frc consts  --      6.2991                 6.3700                 6.4573
 IR Inten    --     18.6085                11.5909                 3.2995

                     94                     95                     96
                      A                      A                      A
 Frequencies --   3147.6033              3150.6220              3160.5348
 Red. masses --      1.0959                 1.1045                 1.1052
 Frc consts  --      6.3968                 6.4597                 6.5044
 IR Inten    --      2.2958                 1.5302                 4.3562

                     97                     98                     99
                      A                      A                      A
 Frequencies --   3262.8447              3461.1578              3590.6020
 Red. masses --      1.0949                 1.0752                 1.0757
 Frc consts  --      6.8675                 7.5892                 8.1710
 IR Inten    --      0.5648               341.3313                74.2592

 - Thermochemistry -
 -------------------
 Temperature   298.150 Kelvin.  Pressure   1.00000 Atm.
 Atom     1 has atomic number  6 and mass  12.00000

 Molecular mass:   337.03370 amu.
 Principal axes and moments of inertia in atomic units:
                           1         2         3
     Eigenvalues --  4005.80968********************
           X            0.99997   0.00765   0.00012
           Y           -0.00765   0.99997  -0.00269
           Z           -0.00015   0.00269   1.00000
 This molecule is an asymmetric top.
 Rotational symmetry number  1.
 Warning -- assumption of classical behavior for rotation
           may cause significant error
 Rotational temperatures (Kelvin)      0.02162     0.00712     0.00626
 Rotational constants (GHZ):           0.45053     0.14834     0.13044
 Zero-point vibrational energy     707396.6 (Joules/Mol)
                                  169.07185 (Kcal/Mol)
 Warning -- explicit consideration of  31 degrees of freedom as
           vibrations may cause significant error
 Vibrational temperatures:     31.46    36.95    51.23    73.40   103.85
          (Kelvin)            121.50   130.14   155.44   183.98   248.24
                              260.48   307.14   332.21   368.93   378.80
                              410.70   436.49   488.00   533.97   550.94
                              606.30   617.11   622.46   637.70   669.16
                              760.35   769.35   787.91   842.41   850.10
                              882.98   945.36   955.76   979.62  1001.16
                             1015.85  1039.00  1102.95  1135.22  1142.23
                             1196.91  1214.17  1250.36  1261.30  1303.62
                             1358.47  1428.73  1430.91  1453.01  1470.57
                             1501.52  1509.94  1541.45  1565.65  1612.29
                             1631.11  1659.90  1737.26  1745.26  1804.14
                             1815.24  1818.12  1831.64  1895.98  1901.67
                             1908.69  1930.46  1954.58  1992.46  2000.11
                             2006.83  2027.76  2049.76  2063.99  2118.16
                             2142.77  2152.78  2169.17  2176.38  2184.32
                             2197.82  2218.71  2247.22  2593.99  4379.22
                             4402.44  4413.50  4443.98  4449.37  4468.16
                             4481.83  4504.95  4525.59  4528.70  4533.04
                             4547.30  4694.51  4979.83  5166.08

 Zero-point correction=                           0.269433 (Hartree/Particle)
 Thermal correction to Energy=                    0.288854
 Thermal correction to Enthalpy=                  0.289798
 Thermal correction to Gibbs Free Energy=         0.218928
 Sum of electronic and zero-point Energies=          -2045.720410
 Sum of electronic and thermal Energies=             -2045.700990
 Sum of electronic and thermal Enthalpies=           -2045.700045
 Sum of electronic and thermal Free Energies=        -2045.770915

                     E (Thermal)             CV                S
                      KCal/Mol        Cal/Mol-Kelvin    Cal/Mol-Kelvin
 Total                  181.258             72.915            149.157
 Electronic               0.000              0.000              0.000
 Translational            0.889              2.981             43.340
 Rotational               0.889              2.981             34.866
 Vibrational            179.481             66.954             70.952
 Vibration     1          0.593              1.985              6.457
 Vibration     2          0.593              1.985              6.138
 Vibration     3          0.594              1.982              5.490
 Vibration     4          0.595              1.977              4.778
 Vibration     5          0.598              1.967              4.093
 Vibration     6          0.601              1.960              3.785
 Vibration     7          0.602              1.956              3.650
 Vibration     8          0.606              1.943              3.304
 Vibration     9          0.611              1.925              2.978
 Vibration    10          0.626              1.876              2.408
 Vibration    11          0.630              1.865              2.318
 Vibration    12          0.644              1.820              2.014
 Vibration    13          0.653              1.794              1.872
 Vibration    14          0.666              1.752              1.686
 Vibration    15          0.670              1.740              1.640
 Vibration    16          0.683              1.701              1.501
 Vibration    17          0.695              1.667              1.398
 Vibration    18          0.719              1.597              1.216
 Vibration    19          0.743              1.531              1.075
 Vibration    20          0.752              1.507              1.028
 Vibration    21          0.784              1.424              0.887
 Vibration    22          0.790              1.407              0.862
 Vibration    23          0.794              1.399              0.850
 Vibration    24          0.803              1.376              0.817
 Vibration    25          0.823              1.327              0.751
 Vibration    26          0.883              1.187              0.591
 Vibration    27          0.890              1.173              0.577
 Vibration    28          0.903              1.145              0.549
 Vibration    29          0.943              1.063              0.475
 Vibration    30          0.948              1.051              0.466
 Vibration    31          0.973              1.003              0.427

                           ! Non-Optimized Parameters !
 Normal termination of Gaussian 16 at Sat Dec 12 16:10:56 2020.

 ----------------------------------------------------------------------
 # B3LYP/6-311++G(d,p) empiricaldispersion=gd3bj scf=xqc pop=npa geom=c
 heck
 ----------------------------------------------------------------------

 ----------------------------------------
 CID_127294404_JID_10461_Energie_neutraal
 ----------------------------------------
 Structure from the checkpoint file:  "JID_10461.chk"
 Charge =  0 Multiplicity = 1

 SCF Done:  E(RB3LYP) =  -2046.31468477     A.U. after   16 cycles
 Normal termination of Gaussian 16 at Sat Dec 12 16:20:20 2020.

 ----------------------------------------------------------------------
 # B3LYP/6-311++G(d,p) empiricaldispersion=gd3bj scf=xqc pop=npa geom=c
 heck
 ----------------------------------------------------------------------

 --------------------------------------
 CID_127294404_JID_10461_Energie_kation
 --------------------------------------
 Structure from the checkpoint file:  "JID_10461.chk"
 Charge =  1 Multiplicity = 2

 SCF Done:  E(UB3LYP) =  -2046.00635392     A.U. after   31 cycles
 Normal termination of Gaussian 16 at Sat Dec 12 16:46:25 2020.
 Gaussian 16:  ES64L-G16RevA.03 25-Dec-2016

 ----------------------------------------------------------------------
 # B3LYP/6-311++G(d,p) empiricaldispersion=gd3bj scf=xqc pop=npa geom=c
 heck
 ----------------------------------------------------------------------

 -------------------------------------
 CID_127294404_JID_10461_Energie_anion
 -------------------------------------
 Structure from the checkpoint file:  "JID_10461.chk"
 Charge = -1 Multiplicity = 2

                         Standard orientation:
 ---------------------------------------------------------------------
 Center     Atomic      Atomic             Coordinates (Angstroms)
 Number     Number       Type             X           Y           Z
 ---------------------------------------------------------------------
      1          6           0       -2.861457   -0.267372   -1.074155
      2          6           0       -2.815488   -1.787634   -0.952574
      3         16           0       -3.730337   -2.399199    0.510472
      4          6           0       -2.886104   -1.341017    1.741635
      5          6           0       -2.941387    0.138062    1.375407
      6          7           0       -2.219697    0.369094    0.101189
      7         16           0       -1.826608    2.020655   -0.167154
      8          8           0       -2.789522    2.645572   -1.079096
      9          8           0       -1.548262    2.600409    1.151209
     10          6           0       -0.245129    1.883575   -1.050197
     11          6           0        0.879604    1.278805   -0.204150
     12          7           0        0.708155   -0.160473    0.017520
     13          6           0        1.205015   -1.103089   -0.858805
     14          8           0        0.555826   -2.040639   -1.299385
     15          7           0        2.549031   -0.941499   -1.216686
     16          6           0        3.600114   -0.511687   -0.424410
     17          7           0        4.817563   -0.485148   -0.896084
     18          7           0        5.739414   -0.101260    0.044118
     19          6           0        5.205255    0.157692    1.195741
     20         16           0        3.465958   -0.054627    1.269173
     21          1           0       -2.305651    0.027687   -1.969207
     22          1           0       -3.892150    0.090496   -1.184827
     23          1           0       -3.303826   -2.231580   -1.824770
     24          1           0       -1.778273   -2.133754   -0.927552
     25          1           0       -1.845853   -1.664862    1.859346
     26          1           0       -3.401430   -1.499881    2.693086
     27          1           0       -2.445957    0.732955    2.144553
     28          1           0       -3.986012    0.467723    1.295007
     29          1           0       -0.419393    1.321452   -1.971489
     30          1           0       -0.018720    2.920687   -1.317452
     31          1           0        1.823878    1.454522   -0.721340
     32          1           0        0.927769    1.792405    0.759430
     33          1           0       -0.257934   -0.381381    0.261837
     34          1           0        2.838464   -1.550137   -1.974525
     35          1           0        5.772732    0.492678    2.054888
 ---------------------------------------------------------------------

 SCF Done:  E(UB3LYP) =  -2046.31938622     A.U. after   33 cycles
 SCF Done:  E(UB3LYP) =  -2046.31938622     a.u. after    1 cycles

 The electronic state is 2-A.
 Alpha  occ. eigenvalues --  -88.98570 -88.76001 -88.75921 -19.04658 -19.04586
 Alpha  occ. eigenvalues --  -18.98719 -14.27725 -14.24973 -14.23291 -14.21340
 Alpha  occ. eigenvalues --  -14.20477 -10.19068 -10.14252 -10.14059 -10.13654
 Alpha  occ. eigenvalues --  -10.13537 -10.13505 -10.12262 -10.11971 -10.09438
 Alpha  occ. eigenvalues --   -8.04864  -7.84653  -7.84547  -6.01134  -6.01100
 Alpha  occ. eigenvalues --   -6.00921  -5.80937  -5.80928  -5.80610  -5.80601
 Alpha  occ. eigenvalues --   -5.80235  -5.79902  -1.04640  -0.95615  -0.93815
 Alpha  occ. eigenvalues --   -0.90473  -0.87165  -0.84440  -0.82106  -0.73588
 Alpha  occ. eigenvalues --   -0.71397  -0.70241  -0.69057  -0.67500  -0.62254
 Alpha  occ. eigenvalues --   -0.58560  -0.56965  -0.54503  -0.52859  -0.49601
 Alpha  occ. eigenvalues --   -0.48505  -0.47751  -0.46306  -0.43000  -0.42169
 Alpha  occ. eigenvalues --   -0.41148  -0.40360  -0.39185  -0.39033  -0.38777
 Alpha  occ. eigenvalues --   -0.37411  -0.35325  -0.35009  -0.34758  -0.34265
 Alpha  occ. eigenvalues --   -0.33866  -0.33279  -0.32375  -0.31724  -0.31363
 Alpha  occ. eigenvalues --   -0.29972  -0.29701  -0.29464  -0.27556  -0.26229
 Alpha  occ. eigenvalues --   -0.25326  -0.24074  -0.23628  -0.22963  -0.22261
 Alpha  occ. eigenvalues --   -0.19776  -0.18819  -0.18613  -0.17454  -0.16385
 Alpha  occ. eigenvalues --   -0.14746  -0.14307  -0.12726   0.04076
 Alpha virt. eigenvalues --    0.05589   0.06441   0.07374   0.08425   0.08585
 Alpha virt. eigenvalues --    0.09050   0.09295   0.09881   0.10322   0.10955
 Alpha virt. eigenvalues --    0.11257   0.11503   0.11661   0.12289   0.12356

  Beta  occ. eigenvalues --  -88.98563 -88.75953 -88.75917 -19.04651 -19.04576
  Beta  occ. eigenvalues --  -18.98555 -14.27719 -14.25054 -14.23278 -14.21323
  Beta  occ. eigenvalues --  -14.20438 -10.18855 -10.14252 -10.14045 -10.13524
  Beta  occ. eigenvalues --  -10.13476 -10.13273 -10.12227 -10.11970 -10.09119
  Beta  occ. eigenvalues --   -8.04853  -7.84610  -7.84543  -6.01126  -6.01094
  Beta  occ. eigenvalues --   -6.00914  -5.80920  -5.80919  -5.80598  -5.80594
  Beta  occ. eigenvalues --   -5.80066  -5.79900  -1.04615  -0.95307  -0.93791
  Beta  occ. eigenvalues --   -0.90210  -0.87146  -0.84278  -0.82017  -0.73555
  Beta  occ. eigenvalues --   -0.71341  -0.70214  -0.68749  -0.67195  -0.62206
  Beta  occ. eigenvalues --   -0.58484  -0.56922  -0.54192  -0.52778  -0.49396
  Beta  occ. eigenvalues --   -0.48449  -0.47411  -0.46253  -0.42929  -0.42095
  Beta  occ. eigenvalues --   -0.41023  -0.40209  -0.39085  -0.38999  -0.38717
  Beta  occ. eigenvalues --   -0.37342  -0.35246  -0.34965  -0.34597  -0.34095
  Beta  occ. eigenvalues --   -0.33646  -0.32922  -0.32205  -0.31522  -0.31110
  Beta  occ. eigenvalues --   -0.29806  -0.29189  -0.29084  -0.27538  -0.26198
  Beta  occ. eigenvalues --   -0.25308  -0.24056  -0.23585  -0.22834  -0.21630
  Beta  occ. eigenvalues --   -0.19673  -0.18685  -0.18453  -0.16618  -0.16085
  Beta  occ. eigenvalues --   -0.14721  -0.14135  -0.11801
  Beta virt. eigenvalues --    0.06066   0.06869   0.07310   0.08388   0.08595
  Beta virt. eigenvalues --    0.08933   0.09063   0.09436   0.09962   0.10567
  Beta virt. eigenvalues --    0.11118   0.11509   0.11636   0.11765   0.12425

 Mulliken charges and spin densities:
               1          2
     1  C   -0.318494  -0.037885
     2  C   -0.448759   0.009815
     3  S    0.036465  -0.131732
     4  C    0.309448  -0.602458
     5  C   -0.289968  -0.100634
     6  N   -0.187538   0.005878
     7  S    0.469458  -0.216828
     8  O   -0.063101   0.005236
     9  O   -0.220204   0.010264
    10  C   -0.737239  -0.042519
    11  C   -0.446822   0.136206
    12  N   -0.012796   0.009907
    13  C   -0.078815   0.163771
    14  O   -0.346313   0.060669
    15  N   -0.216944  -0.041033
    16  C   -0.431686   0.187146
    17  N   -0.102467   0.019374
    18  N   -0.111162  -0.003934
    19  C   -0.265668   0.230611
    20  S    0.149524   0.092488
    21  H    0.178960   0.005027
    22  H    0.174264   0.046146
    23  H    0.194294  -0.012776
    24  H    0.272550   0.031250
    25  H    0.099696   0.122642
    26  H   -0.651235   0.901840
    27  H    0.025317   0.193440
    28  H    0.066531   0.102801
    29  H    0.206981   0.044578
    30  H    0.254668   0.000665
    31  H    0.124205   0.053721
    32  H    0.099109   0.113070
    33  H    0.755167  -0.355006
    34  H    0.311713   0.011775
    35  H    0.200864  -0.013516
 Sum of Mulliken charges =  -1.00000   1.00000

 Dipole moment (field-independent basis, Debye):
    X=             -4.8694    Y=              2.1497    Z=             -2.9434  Tot=              6.0824
 Quadrupole moment (field-independent basis, Debye-Ang):
   XX=           -249.8476   YY=           -176.4425   ZZ=           -163.6832
   XY=              7.1255   XZ=             19.8843   YZ=              0.6634

 Summary of Natural Population Analysis:

                                       Natural Population
                Natural  -----------------------------------------------
    Atom  No    Charge         Core      Valence    Rydberg      Total
 -----------------------------------------------------------------------
      C    1   -0.09324      0.99959     2.08293    0.01072     3.09324
      C    2   -0.26392      0.99957     2.25492    0.00943     3.26392
      S    3    0.08835      4.99964     2.89314    0.01887     7.91165
      C    4   -0.25712      0.99958     2.24529    0.01224     3.25712
      C    5   -0.09759      0.99958     2.08440    0.01362     3.09759
      N    6   -0.38463      0.99974     2.86961    0.01529     3.88463
      S    7    1.09552      4.99926     1.80712    0.09810     6.90448
      O    8   -0.46192      0.99991     3.45661    0.00540     4.46192
      O    9   -0.46017      0.99991     3.45443    0.00583     4.46017
      C   10   -0.29151      0.99957     2.28158    0.01036     3.29151
      C   11   -0.10135      0.99960     2.09014    0.01161     3.10135
      N   12   -0.34507      0.99968     2.83496    0.01043     3.84507
      C   13    0.43390      0.99970     1.54282    0.02359     2.56610
      O   14   -0.32098      0.99987     3.31551    0.00560     4.32098
      N   15   -0.34153      0.99962     2.82740    0.01451     3.84153
      C   16    0.16440      0.99962     1.81740    0.01858     2.83560
      N   17   -0.18005      0.99962     2.66545    0.01498     3.68005
      N   18   -0.15183      0.99968     2.63544    0.01671     3.65183
      C   19   -0.02332      0.99968     2.00685    0.01678     3.02332
      S   20    0.16476      4.99948     2.81637    0.01940     7.83524
      H   21    0.10359      0.00000     0.39519    0.00123     0.39641
      H   22    0.09832      0.00000     0.40025    0.00143     0.40168
      H   23    0.10743      0.00000     0.39179    0.00078     0.39257
      H   24    0.12632      0.00000     0.37194    0.00174     0.37368
      H   25    0.10576      0.00000     0.39267    0.00157     0.39424
      H   26    0.11535      0.00000     0.38226    0.00239     0.38465
      H   27    0.11933      0.00000     0.37919    0.00148     0.38067
      H   28    0.09380      0.00000     0.40445    0.00176     0.40620
      H   29    0.11524      0.00000     0.38353    0.00123     0.38476
      H   30    0.11859      0.00000     0.38027    0.00114     0.38141
      H   31    0.11344      0.00000     0.38489    0.00167     0.38656
      H   32    0.10926      0.00000     0.38895    0.00179     0.39074
      H   33    0.20264      0.00000     0.29441    0.00295     0.29736
      H   34    0.20657      0.00000     0.29176    0.00167     0.29343
      H   35    0.09166      0.00000     0.40686    0.00148     0.40834
 =======================================================================
   * Total *    0.00000     31.99288    55.63077    0.37636    88.00000

 Normal termination of Gaussian 16 at Sat Dec 12 17:12:56 2020.
