 Gaussian 16, Revision A.03,

 -----------------------------------------------------------
 # opt freq B3LYP/6-31G(d) empiricaldispersion=gd3bj scf=xqc
 -----------------------------------------------------------

 -------------------------------
 CID_131248240_JID_1812_neutraal
 -------------------------------
 Symbolic Z-matrix:
 Charge =  0 Multiplicity = 1

 SCF Done:  E(RB3LYP) =  -842.091851359     A.U. after   16 cycles
 SCF Done:  E(RB3LYP) =  -842.093779564     A.U. after   12 cycles
 SCF Done:  E(RB3LYP) =  -842.093936379     A.U. after   11 cycles
 SCF Done:  E(RB3LYP) =  -842.093940258     A.U. after   11 cycles
 SCF Done:  E(RB3LYP) =  -842.093978597     A.U. after   10 cycles
 SCF Done:  E(RB3LYP) =  -842.093988082     A.U. after   10 cycles
 SCF Done:  E(RB3LYP) =  -842.093996798     A.U. after   10 cycles
 SCF Done:  E(RB3LYP) =  -842.094000172     A.U. after   10 cycles
 SCF Done:  E(RB3LYP) =  -842.094003852     A.U. after   10 cycles
 SCF Done:  E(RB3LYP) =  -842.094004557     A.U. after    8 cycles
 SCF Done:  E(RB3LYP) =  -842.094004742     A.U. after    7 cycles
 SCF Done:  E(RB3LYP) =  -842.094004755     A.U. after    7 cycles
 Optimization completed.
    -- Stationary point found.
 Normal termination of Gaussian 16 at Tue Dec  8 21:28:29 2020.

 --------------------------------------------------------------------
 #N Geom=AllCheck Guess=TCheck SCRF=Check GenChk RB3LYP/6-31G(d) Freq
 --------------------------------------------------------------------

 Structure from the checkpoint file:  "JID_1812.chk"
 -------------------------------
 CID_131248240_JID_1812_neutraal
 -------------------------------
 Charge =  0 Multiplicity = 1

 SCF Done:  E(RB3LYP) =  -842.094004755     A.U. after    1 cycles

  Exact polarizability: 174.734   8.945 106.281   4.515  -7.147  78.702
 Approx polarizability: 222.621  15.207 159.178   7.539 -19.211 118.209

                      1                      2                      3
                      A                      A                      A
 Frequencies --     23.2210                39.7374                63.1883
 Red. masses --      3.1225                 3.8768                 4.3469
 Frc consts  --      0.0010                 0.0036                 0.0102
 IR Inten    --      3.1595                 0.0225                 1.5311

                      4                      5                      6
                      A                      A                      A
 Frequencies --     72.8799               100.0945               124.5807
 Red. masses --      2.4264                 2.6748                 1.3549
 Frc consts  --      0.0076                 0.0158                 0.0124
 IR Inten    --      0.4155                 1.7172                 0.3323

                      7                      8                      9
                      A                      A                      A
 Frequencies --    154.1931               168.7016               212.6384
 Red. masses --      2.0452                 2.7815                 2.9826
 Frc consts  --      0.0286                 0.0466                 0.0795
 IR Inten    --      0.2315                 2.9997                 0.7556

                     10                     11                     12
                      A                      A                      A
 Frequencies --    219.9743               242.2337               275.8354
 Red. masses --      1.1236                 1.4940                 2.9106
 Frc consts  --      0.0320                 0.0517                 0.1305
 IR Inten    --      0.3599                 0.6582                 0.7636

                     13                     14                     15
                      A                      A                      A
 Frequencies --    288.7454               317.2362               362.9811
 Red. masses --      3.6478                 2.5109                 3.2835
 Frc consts  --      0.1792                 0.1489                 0.2549
 IR Inten    --      0.6360                 0.5424                 2.2720

                     16                     17                     18
                      A                      A                      A
 Frequencies --    427.8710               449.3603               536.9438
 Red. masses --      4.3562                 2.6163                 1.5247
 Frc consts  --      0.4699                 0.3113                 0.2590
 IR Inten    --      0.4371                 0.9160                62.2434

                     19                     20                     21
                      A                      A                      A
 Frequencies --    604.8481               624.2011               708.3282
 Red. masses --      2.3802                 4.1972                 3.2472
 Frc consts  --      0.5131                 0.9635                 0.9599
 IR Inten    --     20.3794                50.3870                38.1047

                     22                     23                     24
                      A                      A                      A
 Frequencies --    715.3667               786.3425               836.6081
 Red. masses --      5.8864                 1.3253                 2.5272
 Frc consts  --      1.7748                 0.4828                 1.0422
 IR Inten    --      4.1926                 1.0276                13.1064

                     25                     26                     27
                      A                      A                      A
 Frequencies --    844.4344               858.7319               912.5255
 Red. masses --      1.7875                 4.0533                 2.6898
 Frc consts  --      0.7510                 1.7611                 1.3197
 IR Inten    --      2.9717                57.0291                15.0122

                     28                     29                     30
                      A                      A                      A
 Frequencies --    978.0262               982.7050               996.0091
 Red. masses --      1.4674                 1.1258                 1.2512
 Frc consts  --      0.8270                 0.6405                 0.7313
 IR Inten    --      7.7433                 7.7324                 7.6373

                     31                     32                     33
                      A                      A                      A
 Frequencies --    998.5950              1018.7970              1023.8340
 Red. masses --      1.2608                 1.4829                 1.6739
 Frc consts  --      0.7407                 0.9069                 1.0338
 IR Inten    --     19.1592                 7.9940                21.2868

                     34                     35                     36
                      A                      A                      A
 Frequencies --   1062.4783              1158.9967              1198.0897
 Red. masses --      2.7010                 2.1691                 1.8825
 Frc consts  --      1.7964                 1.7167                 1.5921
 IR Inten    --      4.5289                 4.0447                 6.2917

                     37                     38                     39
                      A                      A                      A
 Frequencies --   1208.6256              1234.4365              1300.9005
 Red. masses --      2.6653                 1.2698                 1.3038
 Frc consts  --      2.2939                 1.1401                 1.3000
 IR Inten    --     40.0937                19.7594                24.6499

                     40                     41                     42
                      A                      A                      A
 Frequencies --   1314.0624              1353.1436              1377.0111
 Red. masses --      1.3469                 1.2894                 1.3807
 Frc consts  --      1.3703                 1.3909                 1.5425
 IR Inten    --     53.7434                24.7078                33.0608

                     43                     44                     45
                      A                      A                      A
 Frequencies --   1391.3549              1402.4522              1411.3517
 Red. masses --      1.2004                 1.4799                 2.2142
 Frc consts  --      1.3692                 1.7149                 2.5986
 IR Inten    --     59.4013                43.1715               166.2364

                     46                     47                     48
                      A                      A                      A
 Frequencies --   1439.1378              1444.2566              1481.4926
 Red. masses --      1.2825                 1.2262                 1.5855
 Frc consts  --      1.5650                 1.5069                 2.0503
 IR Inten    --      7.4198                 5.1027                92.2376

                     49                     50                     51
                      A                      A                      A
 Frequencies --   1501.0017              1512.8856              1514.3866
 Red. masses --      1.0516                 1.0530                 1.0658
 Frc consts  --      1.3959                 1.4200                 1.4401
 IR Inten    --      8.0181                21.9961                 1.8982

                     52                     53                     54
                      A                      A                      A
 Frequencies --   1525.5222              1531.4288              1535.6696
 Red. masses --      1.0467                 1.0562                 1.0691
 Frc consts  --      1.4352                 1.4595                 1.4855
 IR Inten    --      5.8756                 4.5378                 6.5911

                     55                     56                     57
                      A                      A                      A
 Frequencies --   1540.6543              1653.8568              1759.1760
 Red. masses --      1.0505                 6.4489                 7.3122
 Frc consts  --      1.4692                10.3928                13.3326
 IR Inten    --      4.0747               310.4948               307.3098

                     58                     59                     60
                      A                      A                      A
 Frequencies --   3038.6946              3044.7077              3048.5065
 Red. masses --      1.0677                 1.0533                 1.0418
 Frc consts  --      5.8084                 5.7530                 5.7045
 IR Inten    --      5.2133                 7.6020                29.5622

                     61                     62                     63
                      A                      A                      A
 Frequencies --   3053.9186              3073.9415              3080.8874
 Red. masses --      1.0619                 1.0296                 1.1006
 Frc consts  --      5.8352                 5.7322                 6.1552
 IR Inten    --     37.9787                26.5287                14.4942

                     64                     65                     66
                      A                      A                      A
 Frequencies --   3112.4069              3119.9939              3123.7622
 Red. masses --      1.1005                 1.0974                 1.1013
 Frc consts  --      6.2811                 6.2941                 6.3319
 IR Inten    --     48.7751                22.5794                46.0455

                     67                     68                     69
                      A                      A                      A
 Frequencies --   3146.1875              3162.2587              3168.0401
 Red. masses --      1.1017                 1.1086                 1.1048
 Frc consts  --      6.4252                 6.5317                 6.5331
 IR Inten    --     24.3535                 7.3380                 4.2876

                     70                     71                     72
                      A                      A                      A
 Frequencies --   3192.4579              3208.6850              3582.7843
 Red. masses --      1.0893                 1.0896                 1.0755
 Frc consts  --      6.5411                 6.6097                 8.1343
 IR Inten    --      0.6478                 9.1730                24.7939

 - Thermochemistry -
 -------------------
 Temperature   298.150 Kelvin.  Pressure   1.00000 Atm.
 Atom     1 has atomic number  6 and mass  12.00000

 Molecular mass:   173.08744 amu.
 Principal axes and moments of inertia in atomic units:
                           1         2         3
     Eigenvalues --  1154.285684663.414565453.94796
           X            0.99980  -0.01886   0.00662
           Y            0.01870   0.99957   0.02276
           Z           -0.00705  -0.02263   0.99972
 This molecule is an asymmetric top.
 Rotational symmetry number  1.
 Warning -- assumption of classical behavior for rotation
           may cause significant error
 Rotational temperatures (Kelvin)      0.07504     0.01857     0.01588
 Rotational constants (GHZ):           1.56351     0.38700     0.33091
 Zero-point vibrational energy     586046.8 (Joules/Mol)
                                  140.06855 (Kcal/Mol)
 Warning -- explicit consideration of  19 degrees of freedom as
           vibrations may cause significant error
 Vibrational temperatures:     33.41    57.17    90.91   104.86   144.01
          (Kelvin)            179.24   221.85   242.72   305.94   316.49
                              348.52   396.87   415.44   456.43   522.25
                              615.61   646.53   772.54   870.24   898.09
                             1019.13  1029.25  1131.37  1203.69  1214.95
                             1235.52  1312.92  1407.16  1413.89  1433.04
                             1436.76  1465.82  1473.07  1528.67  1667.54
                             1723.78  1738.94  1776.08  1871.71  1890.64
                             1946.87  1981.21  2001.85  2017.82  2030.62
                             2070.60  2077.96  2131.54  2159.61  2176.70
                             2178.86  2194.89  2203.38  2209.49  2216.66
                             2379.53  2531.06  4372.00  4380.66  4386.12
                             4393.91  4422.72  4432.71  4478.06  4488.98
                             4494.40  4526.66  4549.78  4558.10  4593.23
                             4616.58  5154.83

 Zero-point correction=                           0.223213 (Hartree/Particle)
 Thermal correction to Energy=                    0.237292
 Thermal correction to Enthalpy=                  0.238236
 Thermal correction to Gibbs Free Energy=         0.180482
 Sum of electronic and zero-point Energies=           -841.870791
 Sum of electronic and thermal Energies=              -841.856713
 Sum of electronic and thermal Enthalpies=            -841.855768
 Sum of electronic and thermal Free Energies=         -841.913523

                     E (Thermal)             CV                S
                      KCal/Mol        Cal/Mol-Kelvin    Cal/Mol-Kelvin
 Total                  148.903             49.046            121.554
 Electronic               0.000              0.000              0.000
 Translational            0.889              2.981             41.353
 Rotational               0.889              2.981             31.752
 Vibrational            147.126             43.084             48.449
 Vibration     1          0.593              1.985              6.338
 Vibration     2          0.594              1.981              5.272
 Vibration     3          0.597              1.972              4.355
 Vibration     4          0.599              1.967              4.074
 Vibration     5          0.604              1.949              3.452
 Vibration     6          0.610              1.928              3.028
 Vibration     7          0.620              1.898              2.620
 Vibration     8          0.625              1.881              2.450
 Vibration     9          0.644              1.822              2.021
 Vibration    10          0.647              1.811              1.959
 Vibration    11          0.658              1.776              1.786
 Vibration    12          0.677              1.718              1.559
 Vibration    13          0.685              1.695              1.481
 Vibration    14          0.704              1.641              1.324
 Vibration    15          0.737              1.548              1.109
 Vibration    16          0.789              1.410              0.866
 Vibration    17          0.808              1.362              0.798
 Vibration    18          0.892              1.168              0.572
 Vibration    19          0.963              1.022              0.441

 Optimization completed.
    -- Stationary point found.
 Normal termination of Gaussian 16 at Tue Dec  8 21:33:28 2020.

 ----------------------------------------------------------------------
 # B3LYP/6-311++G(d,p) empiricaldispersion=gd3bj scf=xqc pop=npa geom=c
 heck
 ----------------------------------------------------------------------

 ---------------------------------------
 CID_131248240_JID_1812_Energie_neutraal
 ---------------------------------------
 Structure from the checkpoint file:  "JID_1812.chk"
 Charge =  0 Multiplicity = 1

 SCF Done:  E(RB3LYP) =  -842.254195225     A.U. after   15 cycles
 Normal termination of Gaussian 16 at Tue Dec  8 21:37:15 2020.

 ----------------------------------------------------------------------
 # B3LYP/6-311++G(d,p) empiricaldispersion=gd3bj scf=xqc pop=npa geom=c
 heck
 ----------------------------------------------------------------------

 -------------------------------------
 CID_131248240_JID_1812_Energie_kation
 -------------------------------------
 Structure from the checkpoint file:  "JID_1812.chk"
 Charge =  1 Multiplicity = 2

 SCF Done:  E(UB3LYP) =  -841.955246526     A.U. after   27 cycles
 Normal termination of Gaussian 16 at Tue Dec  8 21:46:13 2020.
 Gaussian 16:  ES64L-G16RevA.03 25-Dec-2016

 ----------------------------------------------------------------------
 # B3LYP/6-311++G(d,p) empiricaldispersion=gd3bj scf=xqc pop=npa geom=c
 heck
 ----------------------------------------------------------------------

 ------------------------------------
 CID_131248240_JID_1812_Energie_anion
 ------------------------------------
 Structure from the checkpoint file:  "JID_1812.chk"
 Charge = -1 Multiplicity = 2

                         Standard orientation:
 ---------------------------------------------------------------------
 Center     Atomic      Atomic             Coordinates (Angstroms)
 Number     Number       Type             X           Y           Z
 ---------------------------------------------------------------------
      1          6           0        3.105315   -2.254610   -0.489031
      2          6           0        2.444991   -0.912370   -0.813353
      3          6           0        2.348248    0.046514    0.389109
      4          6           0        3.717727    0.493331    0.905090
      5          7           0        1.571187    1.242514    0.063453
      6          6           0        0.219703    1.348522   -0.162957
      7          8           0       -0.252792    2.372999   -0.657184
      8          6           0       -0.627394    0.198326    0.241738
      9          6           0       -1.946340    0.264824    0.000727
     10         16           0       -3.102643   -0.984111    0.406104
     11          6           0       -4.643225   -0.223000   -0.218475
     12          1           0        4.159503   -2.139130   -0.215560
     13          1           0        3.061438   -2.928020   -1.351371
     14          1           0        2.596691   -2.752612    0.346059
     15          1           0        2.989892   -0.403945   -1.620449
     16          1           0        1.429911   -1.086583   -1.189950
     17          1           0        1.837293   -0.473347    1.209040
     18          1           0        4.280380    1.005991    0.114065
     19          1           0        3.605276    1.180834    1.749018
     20          1           0        4.311915   -0.362591    1.235722
     21          1           0        2.083618    2.033647   -0.309128
     22          1           0       -0.185299   -0.670446    0.717975
     23          1           0       -2.334078    1.160632   -0.479932
     24          1           0       -4.850355    0.716478    0.299178
     25          1           0       -4.585519   -0.055024   -1.296405
     26          1           0       -5.448514   -0.930924   -0.009715
 ---------------------------------------------------------------------

 SCF Done:  E(UB3LYP) =  -842.244176021     A.U. after   33 cycles
 SCF Done:  E(UB3LYP) =  -842.244264890     a.u. after    8 cycles

 The electronic state is 2-A.
 Alpha  occ. eigenvalues --  -88.74325 -18.94687 -14.20673 -10.13376 -10.10823
 Alpha  occ. eigenvalues --  -10.09772 -10.06789 -10.06576 -10.06299 -10.05931
 Alpha  occ. eigenvalues --  -10.03878  -7.82903  -5.79286  -5.78897  -5.78341
 Alpha  occ. eigenvalues --   -0.90047  -0.80181  -0.70665  -0.68415  -0.64225
 Alpha  occ. eigenvalues --   -0.62621  -0.55711  -0.54762  -0.49004  -0.48140
 Alpha  occ. eigenvalues --   -0.41871  -0.39138  -0.37227  -0.35301  -0.33579
 Alpha  occ. eigenvalues --   -0.33438  -0.33339  -0.31285  -0.29997  -0.29263
 Alpha  occ. eigenvalues --   -0.28345  -0.27518  -0.27176  -0.26586  -0.25210
 Alpha  occ. eigenvalues --   -0.23744  -0.23168  -0.21025  -0.19619  -0.13380
 Alpha  occ. eigenvalues --   -0.12694  -0.10370   0.04695
 Alpha virt. eigenvalues --    0.06050   0.06548   0.07882   0.08814   0.09543
 Alpha virt. eigenvalues --    0.09710   0.10838   0.11094   0.11678   0.12034
 Alpha virt. eigenvalues --    0.12375   0.12920   0.13662   0.14166   0.14288

  Beta  occ. eigenvalues --  -88.74318 -18.94597 -14.20639 -10.13254 -10.10824
  Beta  occ. eigenvalues --  -10.09738 -10.06545 -10.06455 -10.06284 -10.05894
  Beta  occ. eigenvalues --  -10.03837  -7.82897  -5.79281  -5.78900  -5.78313
  Beta  occ. eigenvalues --   -0.89860  -0.80088  -0.70373  -0.68360  -0.63982
  Beta  occ. eigenvalues --   -0.62551  -0.55491  -0.54693  -0.48818  -0.47990
  Beta  occ. eigenvalues --   -0.41554  -0.39039  -0.37142  -0.35228  -0.33500
  Beta  occ. eigenvalues --   -0.33347  -0.33254  -0.31164  -0.29827  -0.29193
  Beta  occ. eigenvalues --   -0.28129  -0.27366  -0.27055  -0.26345  -0.25116
  Beta  occ. eigenvalues --   -0.23586  -0.23129  -0.20864  -0.18662  -0.13101
  Beta  occ. eigenvalues --   -0.12515  -0.09774
  Beta virt. eigenvalues --    0.06734   0.06989   0.08332   0.08797   0.09123
  Beta virt. eigenvalues --    0.09937   0.10054   0.10852   0.11363   0.11736
  Beta virt. eigenvalues --    0.12084   0.12675   0.13155   0.13819   0.14248

 Mulliken charges and spin densities:
               1          2
     1  C    1.126989  -1.801343
     2  C   -1.241805   1.368724
     3  C   -0.488711   0.274140
     4  C    0.877971  -1.523104
     5  N   -0.124541   0.064743
     6  C   -0.120207   0.121981
     7  O   -0.416881   0.038758
     8  C   -0.217363   0.105555
     9  C    0.194770   0.103272
    10  S   -0.373907   0.032785
    11  C   -0.015472  -0.374237
    12  H   -0.382378   0.522004
    13  H   -0.249985   0.388456
    14  H   -0.117616   0.252534
    15  H    0.079458   0.058001
    16  H    0.130281   0.024078
    17  H    0.315939  -0.169027
    18  H   -0.163949   0.303167
    19  H    0.038486   0.112018
    20  H   -0.288356   0.446020
    21  H    0.278674  -0.007029
    22  H    0.026051   0.082366
    23  H    0.262809  -0.023444
    24  H    0.126544   0.029131
    25  H   -0.036815   0.202779
    26  H   -0.219988   0.367675
 Sum of Mulliken charges =  -1.00000   1.00000

 Dipole moment (field-independent basis, Debye):
    X=             -2.0502    Y=              0.5347    Z=              0.7991  Tot=              2.2644
 Quadrupole moment (field-independent basis, Debye-Ang):
   XX=           -155.5316   YY=           -115.8009   ZZ=            -96.0569
   XY=              9.6178   XZ=             -0.7644   YZ=              0.4165

 Summary of Natural Population Analysis:

                                       Natural Population
                Natural  -----------------------------------------------
    Atom  No    Charge         Core      Valence    Rydberg      Total
 -----------------------------------------------------------------------
      C    1   -0.28829      0.99967     2.28365    0.00498     3.28829
      C    2   -0.19485      0.99962     2.18641    0.00882     3.19485
      C    3   -0.01058      0.99960     2.00044    0.01054     3.01058
      C    4   -0.28809      0.99965     2.28235    0.00609     3.28809
      N    5   -0.32094      0.99967     2.81091    0.01036     3.82094
      C    6    0.34692      0.99965     1.63229    0.02113     2.65308
      O    7   -0.33670      0.99988     3.33118    0.00563     4.33670
      C    8   -0.18271      0.99946     2.17340    0.00985     3.18271
      C    9   -0.08080      0.99947     2.07153    0.00980     3.08080
      S   10    0.12248      4.99954     2.85430    0.02368     7.87752
      C   11   -0.34884      0.99962     2.34233    0.00689     3.34884
      H   12    0.09783      0.00000     0.40073    0.00144     0.40217
      H   13    0.10069      0.00000     0.39824    0.00106     0.39931
      H   14    0.09522      0.00000     0.40365    0.00114     0.40478
      H   15    0.09298      0.00000     0.40588    0.00113     0.40702
      H   16    0.10433      0.00000     0.39441    0.00127     0.39567
      H   17    0.09193      0.00000     0.40599    0.00209     0.40807
      H   18    0.09567      0.00000     0.40317    0.00116     0.40433
      H   19    0.10193      0.00000     0.39715    0.00093     0.39807
      H   20    0.10428      0.00000     0.39478    0.00094     0.39572
      H   21    0.18627      0.00000     0.31101    0.00272     0.31373
      H   22    0.09429      0.00000     0.40428    0.00143     0.40571
      H   23    0.10748      0.00000     0.39083    0.00169     0.39252
      H   24    0.10092      0.00000     0.39785    0.00123     0.39908
      H   25    0.10370      0.00000     0.39473    0.00157     0.39630
      H   26    0.10489      0.00000     0.39373    0.00138     0.39511
 =======================================================================
   * Total *    0.00000     14.99583    31.86525    0.13893    47.00000

 Normal termination of Gaussian 16 at Tue Dec  8 22:35:50 2020.
