 Gaussian 16, Revision A.03,

 -----------------------------------------------------------
 # opt freq B3LYP/6-31G(d) empiricaldispersion=gd3bj scf=xqc
 -----------------------------------------------------------

 -----------------------------
 CID_22492780_JID_756_neutraal
 -----------------------------
 Symbolic Z-matrix:
 Charge =  0 Multiplicity = 1

 SCF Done:  E(RB3LYP) =  -493.435752061     A.U. after   15 cycles
 SCF Done:  E(RB3LYP) =  -493.440211565     A.U. after   12 cycles
 SCF Done:  E(RB3LYP) =  -493.441048368     A.U. after   12 cycles
 SCF Done:  E(RB3LYP) =  -493.440916039     A.U. after   12 cycles
 SCF Done:  E(RB3LYP) =  -493.441771797     A.U. after   11 cycles
 SCF Done:  E(RB3LYP) =  -493.442049302     A.U. after   12 cycles
 SCF Done:  E(RB3LYP) =  -493.442172596     A.U. after   11 cycles
 SCF Done:  E(RB3LYP) =  -493.442233989     A.U. after   11 cycles
 SCF Done:  E(RB3LYP) =  -493.442267862     A.U. after   11 cycles
 SCF Done:  E(RB3LYP) =  -493.442291377     A.U. after   10 cycles
 SCF Done:  E(RB3LYP) =  -493.442309462     A.U. after   10 cycles
 SCF Done:  E(RB3LYP) =  -493.442338106     A.U. after   10 cycles
 SCF Done:  E(RB3LYP) =  -493.442360851     A.U. after   10 cycles
 SCF Done:  E(RB3LYP) =  -493.442365600     A.U. after    9 cycles
 SCF Done:  E(RB3LYP) =  -493.442366477     A.U. after    8 cycles
 SCF Done:  E(RB3LYP) =  -493.442366576     A.U. after    7 cycles
 Optimization completed.
    -- Stationary point found.
 Normal termination of Gaussian 16 at Tue Dec  8 12:32:33 2020.

 --------------------------------------------------------------------
 #N Geom=AllCheck Guess=TCheck SCRF=Check GenChk RB3LYP/6-31G(d) Freq
 --------------------------------------------------------------------

 Structure from the checkpoint file:  "JID_756.chk"
 -----------------------------
 CID_22492780_JID_756_neutraal
 -----------------------------
 Charge =  0 Multiplicity = 1

 SCF Done:  E(RB3LYP) =  -493.442366576     A.U. after    1 cycles

  Exact polarizability: 113.543  -2.716  89.025   1.637  -1.011  37.782
 Approx polarizability: 169.932 -13.004 143.201   2.527  -0.322  56.473

                      1                      2                      3
                      A                      A                      A
 Frequencies --     85.6654               105.9034               120.7620
 Red. masses --      6.1245                 1.8029                 1.6079
 Frc consts  --      0.0265                 0.0119                 0.0138
 IR Inten    --      0.6686                 2.7365                 2.1256

                      4                      5                      6
                      A                      A                      A
 Frequencies --    190.9257               214.5999               281.5468
 Red. masses --      5.0676                 4.0860                 3.7768
 Frc consts  --      0.1088                 0.1109                 0.1764
 IR Inten    --      0.7368                 1.8942                11.4872

                      7                      8                      9
                      A                      A                      A
 Frequencies --    298.3283               325.2684               391.6391
 Red. masses --      2.0017                 1.3588                 5.8693
 Frc consts  --      0.1050                 0.0847                 0.5304
 IR Inten    --     32.6589                43.4425                 5.9636

                     10                     11                     12
                      A                      A                      A
 Frequencies --    408.6668               554.8021               560.1428
 Red. masses --      6.4731                 1.3048                 3.4792
 Frc consts  --      0.6369                 0.2366                 0.6432
 IR Inten    --      6.3783                82.2099                 7.0158

                     13                     14                     15
                      A                      A                      A
 Frequencies --    609.7350               645.9081               650.3626
 Red. masses --      4.1006                 2.9318                 2.1116
 Frc consts  --      0.8982                 0.7207                 0.5262
 IR Inten    --      6.6798                11.1661                24.5055

                     16                     17                     18
                      A                      A                      A
 Frequencies --    697.7678               735.3703               763.8445
 Red. masses --      1.9785                 4.1032                 5.3497
 Frc consts  --      0.5676                 1.3073                 1.8390
 IR Inten    --     81.7604                51.4394                22.4710

                     19                     20                     21
                      A                      A                      A
 Frequencies --    775.3126               821.3880               852.4766
 Red. masses --      5.5869                 1.4524                 1.3543
 Frc consts  --      1.9787                 0.5773                 0.5798
 IR Inten    --     20.9388               200.2136                 5.8997

                     22                     23                     24
                      A                      A                      A
 Frequencies --    988.1841              1042.6511              1107.0468
 Red. masses --      3.4354                 1.7734                 1.4596
 Frc consts  --      1.9765                 1.1359                 1.0539
 IR Inten    --     36.6428                22.3536                16.1694

                     25                     26                     27
                      A                      A                      A
 Frequencies --   1114.5775              1159.9742              1225.8915
 Red. masses --      1.9743                 1.3005                 1.9134
 Frc consts  --      1.4450                 1.0310                 1.6942
 IR Inten    --    228.2047                 8.5825                35.1468

                     28                     29                     30
                      A                      A                      A
 Frequencies --   1232.5217              1275.0672              1326.1222
 Red. masses --      2.2551                 1.6853                 2.3137
 Frc consts  --      2.0184                 1.6143                 2.3973
 IR Inten    --    102.0960                10.0598                 7.1448

                     31                     32                     33
                      A                      A                      A
 Frequencies --   1396.9753              1442.0483              1471.8608
 Red. masses --      3.7005                 6.5596                 1.2942
 Frc consts  --      4.2549                 8.0369                 1.6519
 IR Inten    --      3.6741                35.8410                31.9798

                     34                     35                     36
                      A                      A                      A
 Frequencies --   1516.2632              1539.7398              1564.3234
 Red. masses --      1.0662                 1.1398                 4.7099
 Frc consts  --      1.4443                 1.5921                 6.7906
 IR Inten    --     20.9362                 3.3000               135.1311

                     37                     38                     39
                      A                      A                      A
 Frequencies --   1574.9105              1601.2647              1698.6400
 Red. masses --      3.5419                 3.5278                 1.2713
 Frc consts  --      5.1760                 5.3295                 2.1612
 IR Inten    --     98.3448                48.9094                85.1874

                     40                     41                     42
                      A                      A                      A
 Frequencies --   1820.5084              3042.3078              3115.2129
 Red. masses --      9.1630                 1.0439                 1.0931
 Frc consts  --     17.8927                 5.6929                 6.2498
 IR Inten    --    531.2475                59.2119                16.5999

                     43                     44                     45
                      A                      A                      A
 Frequencies --   3159.1515              3273.4978              3292.8922
 Red. masses --      1.1039                 1.0895                 1.1047
 Frc consts  --      6.4911                 6.8789                 7.0572
 IR Inten    --      7.2642                 0.1094                 2.2638

                     46                     47                     48
                      A                      A                      A
 Frequencies --   3507.5808              3606.8766              3704.3906
 Red. masses --      1.0494                 1.0952                 1.0642
 Frc consts  --      7.6069                 8.3946                 8.6044
 IR Inten    --     18.0499                49.6007                65.8514

 - Thermochemistry -
 -------------------
 Temperature   298.150 Kelvin.  Pressure   1.00000 Atm.
 Atom     1 has atomic number  6 and mass  12.00000

 Molecular mass:   140.05858 amu.
 Principal axes and moments of inertia in atomic units:
                           1         2         3
     Eigenvalues --   679.080591757.504072421.61716
           X            0.99999   0.00366   0.00117
           Y           -0.00365   0.99997  -0.00707
           Z           -0.00120   0.00706   0.99997
 This molecule is an asymmetric top.
 Rotational symmetry number  1.
 Warning -- assumption of classical behavior for rotation
           may cause significant error
 Rotational temperatures (Kelvin)      0.12755     0.04928     0.03577
 Rotational constants (GHZ):           2.65762     1.02688     0.74526
 Zero-point vibrational energy     376171.1 (Joules/Mol)
                                   89.90705 (Kcal/Mol)
 Warning -- explicit consideration of  13 degrees of freedom as
           vibrations may cause significant error
 Vibrational temperatures:    123.25   152.37   173.75   274.70   308.76
          (Kelvin)            405.08   429.23   467.99   563.48   587.98
                              798.24   805.92   877.27   929.32   935.73
                             1003.93  1058.03  1099.00  1115.50  1181.79
                             1226.52  1421.78  1500.14  1592.79  1603.63
                             1668.94  1763.78  1773.32  1834.54  1907.99
                             2009.94  2074.79  2117.68  2181.56  2215.34
                             2250.71  2265.94  2303.86  2443.96  2619.31
                             4377.20  4482.10  4545.31  4709.83  4737.74
                             5046.63  5189.49  5329.79

 Zero-point correction=                           0.143276 (Hartree/Particle)
 Thermal correction to Energy=                    0.152829
 Thermal correction to Enthalpy=                  0.153773
 Thermal correction to Gibbs Free Energy=         0.108658
 Sum of electronic and zero-point Energies=           -493.299091
 Sum of electronic and thermal Energies=              -493.289537
 Sum of electronic and thermal Enthalpies=            -493.288593
 Sum of electronic and thermal Free Energies=         -493.333709

                     E (Thermal)             CV                S
                      KCal/Mol        Cal/Mol-Kelvin    Cal/Mol-Kelvin
 Total                   95.902             35.538             94.954
 Electronic               0.000              0.000              0.000
 Translational            0.889              2.981             40.722
 Rotational               0.889              2.981             29.448
 Vibrational             94.124             29.577             24.784
 Vibration     1          0.601              1.959              3.757
 Vibration     2          0.605              1.945              3.343
 Vibration     3          0.609              1.932              3.088
 Vibration     4          0.634              1.852              2.219
 Vibration     5          0.645              1.819              2.004
 Vibration     6          0.681              1.708              1.524
 Vibration     7          0.691              1.677              1.426
 Vibration     8          0.709              1.625              1.283
 Vibration     9          0.759              1.488              0.994
 Vibration    10          0.773              1.451              0.931
 Vibration    11          0.910              1.129              0.534
 Vibration    12          0.916              1.118              0.524
 Vibration    13          0.969              1.011              0.433

                           ! Non-Optimized Parameters !
 Normal termination of Gaussian 16 at Tue Dec  8 12:41:58 2020.

 ----------------------------------------------------------------------
 # B3LYP/6-311++G(d,p) empiricaldispersion=gd3bj scf=xqc pop=npa geom=c
 heck
 ----------------------------------------------------------------------

 -------------------------------------
 CID_22492780_JID_756_Energie_neutraal
 -------------------------------------
 Structure from the checkpoint file:  "JID_756.chk"
 Charge =  0 Multiplicity = 1

 SCF Done:  E(RB3LYP) =  -493.599373382     A.U. after   15 cycles
 Normal termination of Gaussian 16 at Tue Dec  8 12:44:04 2020.

 ----------------------------------------------------------------------
 # B3LYP/6-311++G(d,p) empiricaldispersion=gd3bj scf=xqc pop=npa geom=c
 heck
 ----------------------------------------------------------------------

 -----------------------------------
 CID_22492780_JID_756_Energie_kation
 -----------------------------------
 Structure from the checkpoint file:  "JID_756.chk"
 Charge =  1 Multiplicity = 2

 SCF Done:  E(UB3LYP) =  -493.317671179     A.U. after   22 cycles
 Normal termination of Gaussian 16 at Tue Dec  8 12:49:34 2020.
 Gaussian 16:  ES64L-G16RevA.03 25-Dec-2016

 ----------------------------------------------------------------------
 # B3LYP/6-311++G(d,p) empiricaldispersion=gd3bj scf=xqc pop=npa geom=c
 heck
 ----------------------------------------------------------------------

 ----------------------------------
 CID_22492780_JID_756_Energie_anion
 ----------------------------------
 Structure from the checkpoint file:  "JID_756.chk"
 Charge = -1 Multiplicity = 2

                         Standard orientation:
 ---------------------------------------------------------------------
 Center     Atomic      Atomic             Coordinates (Angstroms)
 Number     Number       Type             X           Y           Z
 ---------------------------------------------------------------------
      1          6           0       -3.028344    0.385743    0.019631
      2          7           0       -1.703133   -0.197871   -0.006396
      3          6           0       -1.406507   -1.563622   -0.014728
      4          6           0       -0.050438   -1.707804    0.004624
      5          6           0        0.525026   -0.392426    0.008302
      6          6           0       -0.538879    0.517696   -0.002389
      7          7           0       -0.556085    1.905735    0.069882
      8          6           0        1.941361   -0.105964    0.000793
      9          8           0        2.846980   -0.919107   -0.017785
     10          8           0        2.218195    1.248499    0.013609
     11          1           0       -3.358928    0.696893   -0.979924
     12          1           0       -3.027777    1.256844    0.681242
     13          1           0       -3.734886   -0.352235    0.404872
     14          1           0       -2.206084   -2.289030   -0.033921
     15          1           0        0.511290   -2.629994    0.010651
     16          1           0        0.391472    2.270356    0.049694
     17          1           0       -1.126088    2.350755   -0.643731
     18          1           0        3.190817    1.304483    0.002725
 ---------------------------------------------------------------------

 SCF Done:  E(UB3LYP) =  -493.590049494     A.U. after   31 cycles

 The electronic state is 2-A.
 Alpha  occ. eigenvalues --  -19.06265 -18.99957 -14.26125 -14.21528 -10.19550
 Alpha  occ. eigenvalues --  -10.14090 -10.09841 -10.09001 -10.06266 -10.06028
 Alpha  occ. eigenvalues --   -0.99653  -0.90659  -0.89806  -0.79805  -0.71120
 Alpha  occ. eigenvalues --   -0.62370  -0.60290  -0.54068  -0.47303  -0.46108
 Alpha  occ. eigenvalues --   -0.43489  -0.40706  -0.37756  -0.36584  -0.35640
 Alpha  occ. eigenvalues --   -0.34628  -0.33893  -0.32220  -0.30259  -0.28827
 Alpha  occ. eigenvalues --   -0.28326  -0.27330  -0.22208  -0.20449  -0.17863
 Alpha  occ. eigenvalues --   -0.14422  -0.09819   0.04473
 Alpha virt. eigenvalues --    0.06810   0.07882   0.08543   0.09400   0.10248
 Alpha virt. eigenvalues --    0.10906   0.12415   0.12974   0.13537   0.14244
 Alpha virt. eigenvalues --    0.14711   0.15728   0.16697   0.17398   0.18259

  Beta  occ. eigenvalues --  -19.06239 -18.99949 -14.26124 -14.21462 -10.19549
  Beta  occ. eigenvalues --  -10.14085 -10.09753 -10.08990 -10.06262 -10.06026
  Beta  occ. eigenvalues --   -0.99625  -0.90633  -0.89785  -0.79716  -0.71090
  Beta  occ. eigenvalues --   -0.62324  -0.60212  -0.54016  -0.47262  -0.46035
  Beta  occ. eigenvalues --   -0.43404  -0.40642  -0.37724  -0.36542  -0.35588
  Beta  occ. eigenvalues --   -0.34573  -0.33869  -0.32175  -0.30216  -0.28807
  Beta  occ. eigenvalues --   -0.28277  -0.27285  -0.22185  -0.20402  -0.17825
  Beta  occ. eigenvalues --   -0.14409  -0.09791
  Beta virt. eigenvalues --    0.07250   0.07944   0.08561   0.08937   0.10224
  Beta virt. eigenvalues --    0.11230   0.11449   0.12819   0.13673   0.13880
  Beta virt. eigenvalues --    0.14569   0.14977   0.15833   0.16832   0.17531

 Mulliken charges and spin densities:
               1          2
     1  C    2.155793  -2.517929
     2  N   -0.201997   0.279350
     3  C    0.628526  -0.864832
     4  C   -1.242780   1.302668
     5  C    1.202734  -1.033182
     6  C   -0.514079   0.260039
     7  N   -0.426162   0.058607
     8  C    0.632560  -0.827667
     9  O   -0.370470   0.004128
    10  O   -0.276783   0.011989
    11  H   -0.887731   1.099034
    12  H   -0.439822   0.624754
    13  H   -0.594261   0.740988
    14  H   -0.296665   0.457007
    15  H    0.122261   0.047096
    16  H   -0.054158   0.350314
    17  H   -0.462759   0.735692
    18  H    0.025792   0.271942
 Sum of Mulliken charges =  -1.00000   1.00000

 Dipole moment (field-independent basis, Debye):
    X=              5.8378    Y=             -3.2643    Z=              1.5475  Tot=              6.8652
 Quadrupole moment (field-independent basis, Debye-Ang):
   XX=           -125.4692   YY=            -96.1876   ZZ=            -84.1120
   XY=             11.3115   XZ=             -3.9557   YZ=              4.0662

 Summary of Natural Population Analysis:

                                       Natural Population
                Natural  -----------------------------------------------
    Atom  No    Charge         Core      Valence    Rydberg      Total
 -----------------------------------------------------------------------
      C    1   -0.17790      0.99964     2.16953    0.00873     3.17790
      N    2   -0.20892      0.99963     2.69789    0.01140     3.70892
      C    3   -0.02136      0.99955     2.00942    0.01239     3.02136
      C    4   -0.11896      0.99954     2.11112    0.00830     3.11896
      C    5   -0.15381      0.99941     2.14305    0.01134     3.15381
      C    6    0.21496      0.99949     1.77168    0.01386     2.78504
      N    7   -0.40109      0.99971     2.89219    0.00919     3.90109
      C    8    0.39180      0.99961     1.58459    0.02401     2.60820
      O    9   -0.32441      0.99987     3.31872    0.00581     4.32441
      O   10   -0.36422      0.99988     3.35796    0.00639     4.36422
      H   11    0.10353      0.00000     0.39025    0.00621     0.39647
      H   12    0.10789      0.00000     0.38956    0.00255     0.39211
      H   13    0.10429      0.00000     0.39241    0.00329     0.39571
      H   14    0.10140      0.00000     0.39769    0.00090     0.39860
      H   15    0.10928      0.00000     0.38996    0.00076     0.39072
      H   16    0.20194      0.00000     0.29514    0.00292     0.29806
      H   17    0.19556      0.00000     0.29545    0.00899     0.30444
      H   18    0.24002      0.00000     0.25595    0.00403     0.25998
 =======================================================================
   * Total *   -0.00000      9.99634    26.86257    0.14109    37.00000

 Normal termination of Gaussian 16 at Tue Dec  8 13:04:47 2020.
