 Gaussian 16, Revision A.03,

 -----------------------------------------------------------
 # opt freq B3LYP/6-31G(d) empiricaldispersion=gd3bj scf=xqc
 -----------------------------------------------------------

 -------------------------------
 CID_110005908_JID_7605_neutraal
 -------------------------------
 Symbolic Z-matrix:
 Charge =  0 Multiplicity = 1

 SCF Done:  E(RB3LYP) =  -751.414633361     A.U. after   15 cycles
 SCF Done:  E(RB3LYP) =  -751.418746593     A.U. after   12 cycles
 SCF Done:  E(RB3LYP) =  -751.419439292     A.U. after   12 cycles
 SCF Done:  E(RB3LYP) =  -751.420037027     A.U. after   11 cycles
 SCF Done:  E(RB3LYP) =  -751.419998854     A.U. after   11 cycles
 SCF Done:  E(RB3LYP) =  -751.420063090     A.U. after   12 cycles
 SCF Done:  E(RB3LYP) =  -751.420268967     A.U. after   11 cycles
 SCF Done:  E(RB3LYP) =  -751.420279348     A.U. after    9 cycles
 SCF Done:  E(RB3LYP) =  -751.420286393     A.U. after   10 cycles
 SCF Done:  E(RB3LYP) =  -751.420290520     A.U. after    9 cycles
 SCF Done:  E(RB3LYP) =  -751.420327336     A.U. after    9 cycles
 SCF Done:  E(RB3LYP) =  -751.420328914     A.U. after    9 cycles
 SCF Done:  E(RB3LYP) =  -751.420329053     A.U. after    7 cycles
 SCF Done:  E(RB3LYP) =  -751.420329304     A.U. after    9 cycles
 SCF Done:  E(RB3LYP) =  -751.420329304     A.U. after    6 cycles
 Optimization completed.
    -- Stationary point found.
 Normal termination of Gaussian 16 at Fri Dec 11 13:19:46 2020.

 --------------------------------------------------------------------
 #N Geom=AllCheck Guess=TCheck SCRF=Check GenChk RB3LYP/6-31G(d) Freq
 --------------------------------------------------------------------

 Structure from the checkpoint file:  "JID_7605.chk"
 -------------------------------
 CID_110005908_JID_7605_neutraal
 -------------------------------
 Charge =  0 Multiplicity = 1

 SCF Done:  E(RB3LYP) =  -751.420329304     A.U. after    1 cycles

  Exact polarizability: 209.810   0.711 155.972 -12.312  -0.745 108.829
 Approx polarizability: 264.574   2.556 266.868 -18.794   0.310 156.622

                      1                      2                      3
                      A                      A                      A
 Frequencies --     22.1443                25.9074                39.2732
 Red. masses --      3.4369                 1.1436                 3.4456
 Frc consts  --      0.0010                 0.0005                 0.0031
 IR Inten    --      0.1046                 0.1902                 0.1810

                      4                      5                      6
                      A                      A                      A
 Frequencies --     43.7223                62.6319                71.0514
 Red. masses --      3.6844                 6.2147                 4.0766
 Frc consts  --      0.0041                 0.0144                 0.0121
 IR Inten    --      1.3585                 2.4671                 1.2507

                      7                      8                      9
                      A                      A                      A
 Frequencies --     87.9313               124.8958               154.3034
 Red. masses --      3.7552                 4.7004                 2.6484
 Frc consts  --      0.0171                 0.0432                 0.0372
 IR Inten    --      0.4879                 1.2780                 7.8287

                     10                     11                     12
                      A                      A                      A
 Frequencies --    172.8127               194.1623               213.3652
 Red. masses --      3.5868                 3.1057                 1.2059
 Frc consts  --      0.0631                 0.0690                 0.0323
 IR Inten    --      1.6920                 0.1996                 2.8519

                     13                     14                     15
                      A                      A                      A
 Frequencies --    228.9657               241.8259               274.8788
 Red. masses --      1.2283                 2.0107                 2.8338
 Frc consts  --      0.0379                 0.0693                 0.1262
 IR Inten    --      0.2120                 1.3384                 0.7862

                     16                     17                     18
                      A                      A                      A
 Frequencies --    283.0930               325.9862               353.3519
 Red. masses --      2.7705                 2.9237                 3.5323
 Frc consts  --      0.1308                 0.1831                 0.2598
 IR Inten    --      2.4230                 2.7408                 2.2261

                     19                     20                     21
                      A                      A                      A
 Frequencies --    361.1672               387.1934               418.9602
 Red. masses --      2.7544                 2.2024                 3.0290
 Frc consts  --      0.2117                 0.1945                 0.3133
 IR Inten    --     12.4943                 0.7418                 0.0110

                     22                     23                     24
                      A                      A                      A
 Frequencies --    432.0355               476.8675               484.8094
 Red. masses --      2.8219                 1.3772                 2.9938
 Frc consts  --      0.3103                 0.1845                 0.4146
 IR Inten    --      1.6443               104.9560                32.5174

                     25                     26                     27
                      A                      A                      A
 Frequencies --    520.2825               526.6256               584.1279
 Red. masses --      3.2613                 3.3206                 3.1329
 Frc consts  --      0.5201                 0.5426                 0.6298
 IR Inten    --     26.5210                 1.3210                 5.5204

                     28                     29                     30
                      A                      A                      A
 Frequencies --    596.4095               660.6289               666.3375
 Red. masses --      3.7912                 6.3953                 1.7996
 Frc consts  --      0.7945                 1.6445                 0.4708
 IR Inten    --     37.0171                 1.4514                88.8324

                     31                     32                     33
                      A                      A                      A
 Frequencies --    726.7555               742.4553               779.5466
 Red. masses --      3.0606                 4.0049                 2.2175
 Frc consts  --      0.9524                 1.3007                 0.7940
 IR Inten    --     17.0738                 5.5441                35.3479

                     34                     35                     36
                      A                      A                      A
 Frequencies --    802.8446               832.4850               857.0905
 Red. masses --      2.4840                 2.1076                 1.2543
 Frc consts  --      0.9433                 0.8606                 0.5429
 IR Inten    --     14.4019                22.3596                 0.1409

                     37                     38                     39
                      A                      A                      A
 Frequencies --    873.3280               886.2604               898.2385
 Red. masses --      3.2582                 2.0494                 1.7738
 Frc consts  --      1.4641                 0.9484                 0.8432
 IR Inten    --      3.8296                 1.0412                 3.6983

                     40                     41                     42
                      A                      A                      A
 Frequencies --    921.5249               940.9942               959.3034
 Red. masses --      1.6259                 1.3506                 1.3276
 Frc consts  --      0.8135                 0.7046                 0.7198
 IR Inten    --      0.9143                 2.5155                 1.1708

                     43                     44                     45
                      A                      A                      A
 Frequencies --    966.2033               971.6764              1019.0195
 Red. masses --      1.3241                 1.6732                 1.4140
 Frc consts  --      0.7283                 0.9308                 0.8651
 IR Inten    --      5.2027                25.8304                 0.6398

                     46                     47                     48
                      A                      A                      A
 Frequencies --   1044.8752              1063.2343              1076.3680
 Red. masses --      2.8774                 2.0652                 1.5212
 Frc consts  --      1.8509                 1.3755                 1.0384
 IR Inten    --      2.3402                18.0898                 9.0884

                     49                     50                     51
                      A                      A                      A
 Frequencies --   1094.1438              1098.0591              1110.4318
 Red. masses --      4.2659                 1.7683                 2.5119
 Frc consts  --      3.0089                 1.2562                 1.8249
 IR Inten    --     85.8703                 3.4409                16.2602

                     52                     53                     54
                      A                      A                      A
 Frequencies --   1136.3829              1156.7502              1165.9127
 Red. masses --      1.9496                 1.3570                 1.9150
 Frc consts  --      1.4834                 1.0698                 1.5338
 IR Inten    --     27.6825                 6.6546                 7.4915

                     55                     56                     57
                      A                      A                      A
 Frequencies --   1184.4110              1221.4352              1239.2921
 Red. masses --      2.0847                 1.1254                 3.3911
 Frc consts  --      1.7230                 0.9892                 3.0685
 IR Inten    --     31.1916                 0.4382                 2.9886

                     58                     59                     60
                      A                      A                      A
 Frequencies --   1243.1542              1248.0953              1254.3364
 Red. masses --      1.6640                 1.9921                 1.5290
 Frc consts  --      1.5152                 1.8284                 1.4174
 IR Inten    --     14.9250                 5.4659                 3.8788

                     61                     62                     63
                      A                      A                      A
 Frequencies --   1306.2278              1336.0661              1353.6012
 Red. masses --      1.4378                 1.3211                 1.7878
 Frc consts  --      1.4454                 1.3895                 1.9300
 IR Inten    --     32.4933                 3.4510                 0.5463

                     64                     65                     66
                      A                      A                      A
 Frequencies --   1361.8524              1365.4930              1369.7714
 Red. masses --      1.7888                 1.5329                 2.4239
 Frc consts  --      1.9547                 1.6840                 2.6795
 IR Inten    --      1.8278                12.5681               182.3449

                     67                     68                     69
                      A                      A                      A
 Frequencies --   1380.8327              1396.6783              1403.0814
 Red. masses --      1.4419                 1.3567                 1.2662
 Frc consts  --      1.6198                 1.5593                 1.4686
 IR Inten    --      0.7729                23.2856                 8.4039

                     70                     71                     72
                      A                      A                      A
 Frequencies --   1435.2959              1443.2096              1447.9746
 Red. masses --      1.2741                 1.2476                 1.2310
 Frc consts  --      1.5465                 1.5310                 1.5207
 IR Inten    --      0.7505                 0.1308                 0.2698

                     73                     74                     75
                      A                      A                      A
 Frequencies --   1454.9725              1464.5998              1494.1831
 Red. masses --      1.3034                 2.3520                 1.4470
 Frc consts  --      1.6256                 2.9725                 1.9034
 IR Inten    --     69.6997                 3.0732                46.1504

                     76                     77                     78
                      A                      A                      A
 Frequencies --   1516.0619              1517.4198              1523.4583
 Red. masses --      1.0967                 1.0514                 1.0565
 Frc consts  --      1.4852                 1.4264                 1.4447
 IR Inten    --      0.3114                 6.4918                 5.1074

                     79                     80                     81
                      A                      A                      A
 Frequencies --   1524.3630              1525.9850              1532.2739
 Red. masses --      1.1053                 1.0707                 1.0666
 Frc consts  --      1.5132                 1.4689                 1.4754
 IR Inten    --      8.1899                 3.6582                17.2616

                     82                     83                     84
                      A                      A                      A
 Frequencies --   1539.1827              1540.4684              1568.3145
 Red. masses --      1.0470                 1.1093                 2.5404
 Frc consts  --      1.4615                 1.5510                 3.6814
 IR Inten    --      5.0169                 1.0806                21.4478

                     85                     86                     87
                      A                      A                      A
 Frequencies --   1636.0689              1679.3991              1777.9138
 Red. masses --      5.6081                 5.8709                 7.6623
 Frc consts  --      8.8443                 9.7559                14.2702
 IR Inten    --      0.8632                 0.3818               314.7676

                     88                     89                     90
                      A                      A                      A
 Frequencies --   2970.2382              3042.1220              3048.8257
 Red. masses --      1.0728                 1.0398                 1.0489
 Frc consts  --      5.5765                 5.6696                 5.7444
 IR Inten    --     78.0933                37.8993                 0.4689

                     91                     92                     93
                      A                      A                      A
 Frequencies --   3049.2269              3062.4543              3083.1824
 Red. masses --      1.0515                 1.0376                 1.0868
 Frc consts  --      5.7602                 5.7334                 6.0867
 IR Inten    --     50.2044                14.4782                 0.2571

                     94                     95                     96
                      A                      A                      A
 Frequencies --   3097.8374              3104.7637              3105.5496
 Red. masses --      1.0969                 1.0923                 1.0957
 Frc consts  --      6.2022                 6.2036                 6.2259
 IR Inten    --     21.1070                40.8433                 9.1112

                     97                     98                     99
                      A                      A                      A
 Frequencies --   3113.1474              3125.6368              3125.9917
 Red. masses --      1.0993                 1.1022                 1.1003
 Frc consts  --      6.2773                 6.3444                 6.3350
 IR Inten    --     24.5918                16.1365                17.3004

                    100                    101                    102
                      A                      A                      A
 Frequencies --   3132.6095              3145.6327              3167.9995
 Red. masses --      1.1025                 1.1010                 1.0850
 Frc consts  --      6.3742                 6.4190                 6.4161
 IR Inten    --     24.4026                22.8007                19.8318

                    103                    104                    105
                      A                      A                      A
 Frequencies --   3170.9583              3171.7387              3187.3907
 Red. masses --      1.0867                 1.0867                 1.0940
 Frc consts  --      6.4378                 6.4410                 6.5484
 IR Inten    --     20.3992                 6.3256                42.7453

                    106                    107                    108
                      A                      A                      A
 Frequencies --   3190.8389              3533.3109              3693.9332
 Red. masses --      1.0947                 1.0743                 1.0649
 Frc consts  --      6.5666                 7.9018                 8.5611
 IR Inten    --      2.2821                 8.7567                25.6634

 - Thermochemistry -
 -------------------
 Temperature   298.150 Kelvin.  Pressure   1.00000 Atm.
 Atom     1 has atomic number  6 and mass  12.00000

 Molecular mass:   235.15723 amu.
 Principal axes and moments of inertia in atomic units:
                           1         2         3
     Eigenvalues --  1928.731339022.562749573.25101
           X            0.99993   0.00477  -0.01045
           Y           -0.00490   0.99991  -0.01253
           Z            0.01039   0.01258   0.99987
 This molecule is an asymmetric top.
 Rotational symmetry number  1.
 Warning -- assumption of classical behavior for rotation
           may cause significant error
 Rotational temperatures (Kelvin)      0.04491     0.00960     0.00905
 Rotational constants (GHZ):           0.93571     0.20003     0.18852
 Zero-point vibrational energy     871889.2 (Joules/Mol)
                                  208.38652 (Kcal/Mol)
 Warning -- explicit consideration of  28 degrees of freedom as
           vibrations may cause significant error
 Vibrational temperatures:     31.86    37.28    56.51    62.91    90.11
          (Kelvin)            102.23   126.51   179.70   222.01   248.64
                              279.36   306.98   329.43   347.93   395.49
                              407.31   469.02   508.39   519.64   557.08
                              602.79   621.60   686.11   697.53   748.57
                              757.70   840.43   858.10   950.50   958.71
                             1045.64  1068.23  1121.59  1155.11  1197.76
                             1233.16  1256.52  1275.13  1292.36  1325.87
                             1353.88  1380.22  1390.15  1398.03  1466.14
                             1503.34  1529.76  1548.65  1574.23  1579.86
                             1597.66  1635.00  1664.31  1677.49  1704.10
                             1757.37  1783.06  1788.62  1795.73  1804.71
                             1879.37  1922.30  1947.53  1959.40  1964.64
                             1970.80  1986.71  2009.51  2018.72  2065.07
                             2076.46  2083.31  2093.38  2107.23  2149.80
                             2181.27  2183.23  2191.92  2193.22  2195.55
                             2204.60  2214.54  2216.39  2256.45  2353.94
                             2416.28  2558.02  4273.51  4376.94  4386.58
                             4387.16  4406.19  4436.01  4457.10  4467.06
                             4468.19  4479.12  4497.09  4497.60  4507.13
                             4525.86  4558.04  4562.30  4563.42  4585.94
                             4590.91  5083.65  5314.75

 Zero-point correction=                           0.332085 (Hartree/Particle)
 Thermal correction to Energy=                    0.350569
 Thermal correction to Enthalpy=                  0.351514
 Thermal correction to Gibbs Free Energy=         0.283087
 Sum of electronic and zero-point Energies=           -751.088244
 Sum of electronic and thermal Energies=              -751.069760
 Sum of electronic and thermal Enthalpies=            -751.068816
 Sum of electronic and thermal Free Energies=         -751.137243

                     E (Thermal)             CV                S
                      KCal/Mol        Cal/Mol-Kelvin    Cal/Mol-Kelvin
 Total                  219.986             68.153            144.016
 Electronic               0.000              0.000              0.000
 Translational            0.889              2.981             42.267
 Rotational               0.889              2.981             33.476
 Vibrational            218.208             62.191             68.273
 Vibration     1          0.593              1.985              6.432
 Vibration     2          0.593              1.985              6.120
 Vibration     3          0.594              1.981              5.295
 Vibration     4          0.595              1.980              5.083
 Vibration     5          0.597              1.972              4.372
 Vibration     6          0.598              1.968              4.124
 Vibration     7          0.601              1.958              3.706
 Vibration     8          0.610              1.928              3.023
 Vibration     9          0.620              1.898              2.618
 Vibration    10          0.626              1.876              2.405
 Vibration    11          0.635              1.848              2.188
 Vibration    12          0.644              1.821              2.015
 Vibration    13          0.652              1.797              1.887
 Vibration    14          0.658              1.776              1.789
 Vibration    15          0.677              1.720              1.565
 Vibration    16          0.682              1.705              1.515
 Vibration    17          0.710              1.624              1.280
 Vibration    18          0.730              1.568              1.151
 Vibration    19          0.735              1.552              1.117
 Vibration    20          0.756              1.498              1.011
 Vibration    21          0.782              1.429              0.896
 Vibration    22          0.793              1.400              0.852
 Vibration    23          0.833              1.301              0.719
 Vibration    24          0.841              1.284              0.697
 Vibration    25          0.875              1.205              0.609
 Vibration    26          0.882              1.191              0.595
 Vibration    27          0.941              1.066              0.478
 Vibration    28          0.954              1.039              0.456

 Optimization completed.
    -- Stationary point found.
 Normal termination of Gaussian 16 at Fri Dec 11 13:32:30 2020.

 ----------------------------------------------------------------------
 # B3LYP/6-311++G(d,p) empiricaldispersion=gd3bj scf=xqc pop=npa geom=c
 heck
 ----------------------------------------------------------------------

 ---------------------------------------
 CID_110005908_JID_7605_Energie_neutraal
 ---------------------------------------
 Structure from the checkpoint file:  "JID_7605.chk"
 Charge =  0 Multiplicity = 1

 SCF Done:  E(RB3LYP) =  -751.641597618     A.U. after   14 cycles
 Normal termination of Gaussian 16 at Fri Dec 11 13:37:55 2020.

 ----------------------------------------------------------------------
 # B3LYP/6-311++G(d,p) empiricaldispersion=gd3bj scf=xqc pop=npa geom=c
 heck
 ----------------------------------------------------------------------

 -------------------------------------
 CID_110005908_JID_7605_Energie_kation
 -------------------------------------
 Structure from the checkpoint file:  "JID_7605.chk"
 Charge =  1 Multiplicity = 2

 SCF Done:  E(UB3LYP) =  -751.338825319     A.U. after   28 cycles
 Normal termination of Gaussian 16 at Fri Dec 11 13:52:30 2020.
 Gaussian 16:  ES64L-G16RevA.03 25-Dec-2016

 ----------------------------------------------------------------------
 # B3LYP/6-311++G(d,p) empiricaldispersion=gd3bj scf=xqc pop=npa geom=c
 heck
 ----------------------------------------------------------------------

 ------------------------------------
 CID_110005908_JID_7605_Energie_anion
 ------------------------------------
 Structure from the checkpoint file:  "JID_7605.chk"
 Charge = -1 Multiplicity = 2

                         Standard orientation:
 ---------------------------------------------------------------------
 Center     Atomic      Atomic             Coordinates (Angstroms)
 Number     Number       Type             X           Y           Z
 ---------------------------------------------------------------------
      1          6           0        5.891349   -0.595012   -0.267183
      2          6           0        4.421837   -0.355264   -0.020367
      3          6           0        3.517527   -1.418154    0.062495
      4          6           0        2.164261   -1.193224    0.317462
      5          6           0        1.671297    0.102389    0.495391
      6          6           0        2.575862    1.168765    0.409924
      7          6           0        3.925533    0.943657    0.156022
      8          6           0        0.201114    0.358683    0.728862
      9          6           0       -0.507678    0.880284   -0.551582
     10          6           0       -0.548964   -0.141020   -1.698881
     11          6           0       -1.866182    1.519727   -0.251978
     12          8           0       -2.015993    2.732144   -0.340517
     13          7           0       -2.955818    0.726748    0.064635
     14          6           0       -3.007931   -0.628595    0.621937
     15          6           0       -3.247902   -0.607500    2.132591
     16          6           0       -4.084444   -1.416720   -0.133775
     17          8           0       -3.814292   -1.465543   -1.520476
     18          1           0        6.068064   -1.587469   -0.693742
     19          1           0        6.308248    0.148668   -0.955337
     20          1           0        6.467275   -0.530750    0.665357
     21          1           0        3.875358   -2.435942   -0.073812
     22          1           0        1.480996   -2.037414    0.375699
     23          1           0        2.215699    2.186501    0.543385
     24          1           0        4.607873    1.788451    0.095204
     25          1           0       -0.269279   -0.560762    1.090580
     26          1           0        0.077903    1.110837    1.518321
     27          1           0        0.080308    1.736937   -0.894320
     28          1           0       -1.173795   -1.011977   -1.483787
     29          1           0       -0.942915    0.328126   -2.607202
     30          1           0        0.464115   -0.492696   -1.916126
     31          1           0       -3.756661    1.309961    0.294506
     32          1           0       -2.053932   -1.108993    0.411373
     33          1           0       -4.197071   -0.112166    2.370920
     34          1           0       -3.289026   -1.625683    2.535672
     35          1           0       -2.446046   -0.065307    2.643004
     36          1           0       -4.108735   -2.451482    0.221979
     37          1           0       -5.074218   -0.971051    0.072370
     38          1           0       -3.635245   -0.545921   -1.784043
 ---------------------------------------------------------------------

 SCF Done:  E(UB3LYP) =  -751.631430261     A.U. after   33 cycles
 SCF Done:  E(UB3LYP) =  -751.631430261     a.u. after    1 cycles

 The electronic state is 2-A.
 Alpha  occ. eigenvalues --  -19.03969 -19.00529 -14.25187 -10.18921 -10.13165
 Alpha  occ. eigenvalues --  -10.13135 -10.10261 -10.09559 -10.09295 -10.09267
 Alpha  occ. eigenvalues --  -10.08728 -10.08656 -10.08529 -10.08475 -10.08400
 Alpha  occ. eigenvalues --  -10.08009 -10.07738  -0.95694  -0.94447  -0.83819
 Alpha  occ. eigenvalues --   -0.77747  -0.72903  -0.69197  -0.68296  -0.66020
 Alpha  occ. eigenvalues --   -0.62779  -0.59640  -0.58517  -0.55118  -0.53433
 Alpha  occ. eigenvalues --   -0.52472  -0.49495  -0.48751  -0.42960  -0.41359
 Alpha  occ. eigenvalues --   -0.40824  -0.39296  -0.38332  -0.37228  -0.36872
 Alpha  occ. eigenvalues --   -0.35471  -0.35151  -0.34309  -0.33712  -0.33496
 Alpha  occ. eigenvalues --   -0.33379  -0.32181  -0.31198  -0.30954  -0.30371
 Alpha  occ. eigenvalues --   -0.29258  -0.28901  -0.28053  -0.27865  -0.26055
 Alpha  occ. eigenvalues --   -0.25606  -0.25354  -0.25099  -0.24653  -0.19868
 Alpha  occ. eigenvalues --   -0.17985  -0.16977  -0.16830  -0.15278   0.03889
 Alpha virt. eigenvalues --    0.05234   0.06543   0.06681   0.06863   0.07278
 Alpha virt. eigenvalues --    0.07388   0.08025   0.08645   0.08844   0.09449
 Alpha virt. eigenvalues --    0.09695   0.10350   0.10649   0.10689   0.11181

  Beta  occ. eigenvalues --  -19.03963 -19.00527 -14.25170 -10.18915 -10.13142
  Beta  occ. eigenvalues --  -10.13120 -10.10258 -10.09535 -10.09283 -10.09246
  Beta  occ. eigenvalues --  -10.08723 -10.08648 -10.08517 -10.08462 -10.08374
  Beta  occ. eigenvalues --  -10.08003 -10.07681  -0.95685  -0.94433  -0.83795
  Beta  occ. eigenvalues --   -0.77712  -0.72874  -0.69155  -0.68256  -0.65992
  Beta  occ. eigenvalues --   -0.62744  -0.59555  -0.58482  -0.55076  -0.53367
  Beta  occ. eigenvalues --   -0.52438  -0.49457  -0.48710  -0.42936  -0.41317
  Beta  occ. eigenvalues --   -0.40787  -0.39274  -0.38302  -0.37173  -0.36826
  Beta  occ. eigenvalues --   -0.35447  -0.35129  -0.34279  -0.33657  -0.33467
  Beta  occ. eigenvalues --   -0.33351  -0.32133  -0.31168  -0.30906  -0.30341
  Beta  occ. eigenvalues --   -0.29232  -0.28878  -0.28009  -0.27812  -0.26021
  Beta  occ. eigenvalues --   -0.25580  -0.25323  -0.25074  -0.24627  -0.19847
  Beta  occ. eigenvalues --   -0.17965  -0.16941  -0.16807  -0.15170
  Beta virt. eigenvalues --    0.05731   0.06357   0.06809   0.06863   0.07278
  Beta virt. eigenvalues --    0.07599   0.07705   0.08560   0.08854   0.09105
  Beta virt. eigenvalues --    0.09766   0.10054   0.10482   0.10822   0.10943

 Mulliken charges and spin densities:
               1          2
     1  C    1.517443  -2.239723
     2  C   -0.052189   0.516771
     3  C   -0.609056  -0.059662
     4  C   -0.186075  -0.198059
     5  C    1.022200  -0.200032
     6  C   -0.813170   0.484415
     7  C   -0.896413   0.542716
     8  C    0.662830  -0.629795
     9  C    0.285169  -0.247453
    10  C   -0.695995  -0.060014
    11  C   -0.103551  -0.099405
    12  O   -0.294985   0.001772
    13  N   -0.188681  -0.016203
    14  C   -1.116614   1.208531
    15  C    1.071964  -1.643794
    16  C    0.498363  -0.953863
    17  O   -0.208390   0.014613
    18  H   -0.208324   0.352401
    19  H   -0.032772   0.168183
    20  H   -0.092811   0.257413
    21  H   -0.226645   0.402142
    22  H   -0.481701   0.628057
    23  H    0.033233   0.119609
    24  H   -0.131127   0.300554
    25  H   -0.158086   0.346986
    26  H    0.053891   0.150082
    27  H    0.239764  -0.012894
    28  H    0.010173   0.179917
    29  H    0.130071   0.023302
    30  H    0.219764  -0.075202
    31  H    0.231385   0.071932
    32  H    0.762462  -0.629508
    33  H   -0.354834   0.510696
    34  H   -0.497614   0.660675
    35  H   -0.180386   0.335896
    36  H   -0.209485   0.406244
    37  H   -0.198239   0.340413
    38  H    0.198430   0.042288
 Sum of Mulliken charges =  -1.00000   1.00000

 Dipole moment (field-independent basis, Debye):
    X=              1.5692    Y=              2.7196    Z=             -3.7933  Tot=              4.9242
 Quadrupole moment (field-independent basis, Debye-Ang):
   XX=           -214.7873   YY=           -155.7364   ZZ=           -143.9499
   XY=              0.7802   XZ=              7.0902   YZ=              4.3528

 Summary of Natural Population Analysis:

                                       Natural Population
                Natural  -----------------------------------------------
    Atom  No    Charge         Core      Valence    Rydberg      Total
 -----------------------------------------------------------------------
      C    1   -0.29095      0.99964     2.28636    0.00495     3.29095
      C    2   -0.01713      0.99952     2.00741    0.01020     3.01713
      C    3   -0.09916      0.99951     2.08989    0.00976     3.09916
      C    4   -0.09515      0.99951     2.08566    0.00999     3.09515
      C    5   -0.01678      0.99950     2.00677    0.01051     3.01678
      C    6   -0.09792      0.99951     2.08890    0.00952     3.09792
      C    7   -0.09813      0.99951     2.08985    0.00877     3.09813
      C    8   -0.19528      0.99958     2.18582    0.00988     3.19528
      C    9   -0.14581      0.99955     2.13718    0.00908     3.14581
      C   10   -0.29024      0.99964     2.28526    0.00534     3.29024
      C   11    0.35420      0.99963     1.62308    0.02308     2.64580
      O   12   -0.32140      0.99988     3.31570    0.00582     4.32140
      N   13   -0.33610      0.99966     2.82428    0.01215     3.83610
      C   14   -0.03131      0.99959     2.01945    0.01228     3.03131
      C   15   -0.29028      0.99964     2.28463    0.00601     3.29028
      C   16   -0.00795      0.99957     1.99518    0.01320     3.00795
      O   17   -0.36787      0.99990     3.36127    0.00670     4.36787
      H   18    0.10245      0.00000     0.39645    0.00109     0.39755
      H   19    0.10126      0.00000     0.39769    0.00105     0.39874
      H   20    0.10573      0.00000     0.39262    0.00165     0.39427
      H   21    0.10033      0.00000     0.39862    0.00105     0.39967
      H   22    0.10246      0.00000     0.39629    0.00124     0.39754
      H   23    0.09994      0.00000     0.39882    0.00123     0.40006
      H   24    0.09824      0.00000     0.40089    0.00087     0.40176
      H   25    0.10158      0.00000     0.39623    0.00219     0.39842
      H   26    0.10714      0.00000     0.39154    0.00132     0.39286
      H   27    0.11023      0.00000     0.38786    0.00191     0.38977
      H   28    0.10392      0.00000     0.39475    0.00132     0.39608
      H   29    0.09953      0.00000     0.39970    0.00077     0.40047
      H   30    0.10680      0.00000     0.39235    0.00086     0.39320
      H   31    0.19361      0.00000     0.30391    0.00248     0.30639
      H   32    0.10101      0.00000     0.39569    0.00330     0.39899
      H   33    0.10130      0.00000     0.39675    0.00195     0.39870
      H   34    0.10824      0.00000     0.38926    0.00250     0.39176
      H   35    0.10494      0.00000     0.39379    0.00127     0.39506
      H   36    0.09297      0.00000     0.40568    0.00135     0.40703
      H   37    0.07592      0.00000     0.42245    0.00163     0.42408
      H   38    0.22964      0.00000     0.26721    0.00315     0.27036
 =======================================================================
   * Total *   -0.00000     16.99333    46.80525    0.20142    64.00000

 Normal termination of Gaussian 16 at Fri Dec 11 14:10:22 2020.
