 Gaussian 16, Revision A.03,

 -----------------------------------------------------------
 # opt freq B3LYP/6-31G(d) empiricaldispersion=gd3bj scf=xqc
 -----------------------------------------------------------

 ------------------------------
 CID_59860411_JID_1930_neutraal
 ------------------------------
 Symbolic Z-matrix:
 Charge =  0 Multiplicity = 1

 SCF Done:  E(RB3LYP) =  -802.485236380     A.U. after   16 cycles
 SCF Done:  E(RB3LYP) =  -802.486848592     A.U. after   12 cycles
 SCF Done:  E(RB3LYP) =  -802.487041420     A.U. after   12 cycles
 SCF Done:  E(RB3LYP) =  -802.486377132     A.U. after   12 cycles
 SCF Done:  E(RB3LYP) =  -802.487070650     A.U. after   11 cycles
 SCF Done:  E(RB3LYP) =  -802.487099486     A.U. after   11 cycles
 SCF Done:  E(RB3LYP) =  -802.487102841     A.U. after    9 cycles
 SCF Done:  E(RB3LYP) =  -802.487103956     A.U. after    9 cycles
 SCF Done:  E(RB3LYP) =  -802.487104988     A.U. after   10 cycles
 SCF Done:  E(RB3LYP) =  -802.487105845     A.U. after   10 cycles
 SCF Done:  E(RB3LYP) =  -802.487106522     A.U. after   10 cycles
 SCF Done:  E(RB3LYP) =  -802.487106803     A.U. after    9 cycles
 Optimization completed.
    -- Stationary point found.
 Normal termination of Gaussian 16 at Tue Dec  8 21:35:42 2020.

 --------------------------------------------------------------------
 #N Geom=AllCheck Guess=TCheck SCRF=Check GenChk RB3LYP/6-31G(d) Freq
 --------------------------------------------------------------------

 Structure from the checkpoint file:  "JID_1930.chk"
 ------------------------------
 CID_59860411_JID_1930_neutraal
 ------------------------------
 Charge =  0 Multiplicity = 1

 SCF Done:  E(RB3LYP) =  -802.487106803     A.U. after    1 cycles

  Exact polarizability: 165.085  18.450 108.015  -0.001  -0.000  69.053
 Approx polarizability: 244.433  40.342 193.851  -0.002   0.000 101.522

                      1                      2                      3
                      A                      A                      A
 Frequencies --     16.6572               110.1858               117.5156
 Red. masses --      3.6998                 3.7246                 4.1307
 Frc consts  --      0.0006                 0.0266                 0.0336
 IR Inten    --      0.3195                 0.0024                 0.8252

                      4                      5                      6
                      A                      A                      A
 Frequencies --    175.3722               212.5827               242.4732
 Red. masses --      3.9788                 4.0470                 1.0681
 Frc consts  --      0.0721                 0.1078                 0.0370
 IR Inten    --      1.5687                 1.2149                 0.3019

                      7                      8                      9
                      A                      A                      A
 Frequencies --    280.6001               307.9200               311.0408
 Red. masses --      1.1299                 1.1035                 2.7632
 Frc consts  --      0.0524                 0.0616                 0.1575
 IR Inten    --      0.0988                 0.1740                 0.6256

                     10                     11                     12
                      A                      A                      A
 Frequencies --    320.4476               321.9735               395.0771
 Red. masses --      2.7457                 2.7038                 2.8217
 Frc consts  --      0.1661                 0.1651                 0.2595
 IR Inten    --      0.9914                 0.1743                 0.8256

                     13                     14                     15
                      A                      A                      A
 Frequencies --    430.3216               444.5494               518.1066
 Red. masses --      3.0097                 7.6506                10.2318
 Frc consts  --      0.3284                 0.8908                 1.6182
 IR Inten    --      0.2737                 0.5103                 0.6684

                     16                     17                     18
                      A                      A                      A
 Frequencies --    535.7056               567.7527               589.3911
 Red. masses --      3.6119                 4.8186                 1.3554
 Frc consts  --      0.6107                 0.9151                 0.2774
 IR Inten    --      0.7347                 1.1767                33.8356

                     19                     20                     21
                      A                      A                      A
 Frequencies --    621.0787               647.7966               706.8114
 Red. masses --      4.3091                 1.2518                 3.7163
 Frc consts  --      0.9793                 0.3095                 1.0939
 IR Inten    --     18.9659                39.8645                 1.6613

                     22                     23                     24
                      A                      A                      A
 Frequencies --    718.0217               808.5599               823.2708
 Red. masses --      6.4073                12.3082                 3.0894
 Frc consts  --      1.9462                 4.7410                 1.2337
 IR Inten    --      0.8293                15.9606                 3.8649

                     25                     26                     27
                      A                      A                      A
 Frequencies --    853.0501               943.9274               953.2439
 Red. masses --      1.4815                 1.7794                 1.7207
 Frc consts  --      0.6352                 0.9341                 0.9212
 IR Inten    --     17.3754                 0.7936                 0.6281

                     28                     29                     30
                      A                      A                      A
 Frequencies --    972.2668               979.3247              1045.7771
 Red. masses --      5.2789                 1.1985                 1.9827
 Frc consts  --      2.9401                 0.6772                 1.2776
 IR Inten    --     10.9608                 0.0305                 2.0160

                     31                     32                     33
                      A                      A                      A
 Frequencies --   1064.3677              1081.9092              1195.5630
 Red. masses --      1.3877                 1.8259                 1.5857
 Frc consts  --      0.9263                 1.2592                 1.3354
 IR Inten    --      0.0734                 2.0295                 5.4044

                     34                     35                     36
                      A                      A                      A
 Frequencies --   1243.2853              1253.5953              1291.1449
 Red. masses --      2.6756                 2.7348                 3.0883
 Frc consts  --      2.4368                 2.5322                 3.0334
 IR Inten    --      3.5151                 3.0350                25.9261

                     37                     38                     39
                      A                      A                      A
 Frequencies --   1388.8042              1428.1689              1428.3929
 Red. masses --      4.9371                 1.2623                 1.2086
 Frc consts  --      5.6105                 1.5169                 1.4529
 IR Inten    --     71.8250                 9.1917                 4.9977

                     40                     41                     42
                      A                      A                      A
 Frequencies --   1435.6119              1460.4549              1510.4133
 Red. masses --      6.8449                 1.2895                 1.0483
 Frc consts  --      8.3117                 1.6205                 1.4090
 IR Inten    --      3.1839                 1.2825                 0.0002

                     43                     44                     45
                      A                      A                      A
 Frequencies --   1514.5468              1518.8403              1533.1082
 Red. masses --      1.0455                 1.0463                 1.0534
 Frc consts  --      1.4130                 1.4220                 1.4588
 IR Inten    --      0.1057                 0.4122                 8.6227

                     46                     47                     48
                      A                      A                      A
 Frequencies --   1534.4180              1547.6328              1580.9620
 Red. masses --      1.0498                 1.1028                 5.5490
 Frc consts  --      1.4563                 1.5563                 8.1717
 IR Inten    --      6.2764                 5.4193                44.5010

                     49                     50                     51
                      A                      A                      A
 Frequencies --   2238.0198              3048.4458              3049.8753
 Red. masses --      6.1192                 1.0343                 1.0342
 Frc consts  --     18.0581                 5.6630                 5.6677
 IR Inten    --      1.4677                19.2568                22.3817

                     52                     53                     54
                      A                      A                      A
 Frequencies --   3056.4880              3117.3550              3120.3185
 Red. masses --      1.0355                 1.1031                 1.1031
 Frc consts  --      5.6994                 6.3158                 6.3281
 IR Inten    --     16.4478                 0.0019                 9.9426

                     55                     56                     57
                      A                      A                      A
 Frequencies --   3124.2481              3125.5296              3128.3213
 Red. masses --      1.1038                 1.1020                 1.1028
 Frc consts  --      6.3476                 6.3426                 6.3585
 IR Inten    --      2.1965                62.9760                39.7440

                     58                     59                     60
                      A                      A                      A
 Frequencies --   3129.6241              3255.5256              3496.3433
 Red. masses --      1.1027                 1.0939                 1.1583
 Frc consts  --      6.3632                 6.8309                 8.3427
 IR Inten    --     44.0859                 0.9421                78.6136

 - Thermochemistry -
 -------------------
 Temperature   298.150 Kelvin.  Pressure   1.00000 Atm.
 Atom     1 has atomic number  6 and mass  12.00000

 Molecular mass:   165.06122 amu.
 Principal axes and moments of inertia in atomic units:
                           1         2         3
     Eigenvalues --   948.821972981.169283531.15756
           X            1.00000  -0.00246  -0.00000
           Y            0.00246   1.00000   0.00000
           Z            0.00000  -0.00000   1.00000
 This molecule is an asymmetric top.
 Rotational symmetry number  1.
 Warning -- assumption of classical behavior for rotation
           may cause significant error
 Rotational temperatures (Kelvin)      0.09129     0.02905     0.02453
 Rotational constants (GHZ):           1.90209     0.60538     0.51109
 Zero-point vibrational energy     465778.7 (Joules/Mol)
                                  111.32378 (Kcal/Mol)
 Warning -- explicit consideration of  18 degrees of freedom as
           vibrations may cause significant error
 Vibrational temperatures:     23.97   158.53   169.08   252.32   305.86
          (Kelvin)            348.86   403.72   443.03   447.52   461.05
                              463.25   568.43   619.14   639.61   745.44
                              770.76   816.87   848.00   893.59   932.03
                             1016.94  1033.07  1163.34  1184.50  1227.35
                             1358.10  1371.51  1398.88  1409.03  1504.64
                             1531.39  1556.63  1720.15  1788.81  1803.64
                             1857.67  1998.18  2054.82  2055.14  2065.53
                             2101.27  2173.15  2179.10  2185.27  2205.80
                             2207.69  2226.70  2274.65  3220.01  4386.03
                             4388.09  4397.60  4485.18  4489.44  4495.10
                             4496.94  4500.96  4502.83  4683.98  5030.46

 Zero-point correction=                           0.177406 (Hartree/Particle)
 Thermal correction to Energy=                    0.188958
 Thermal correction to Enthalpy=                  0.189902
 Thermal correction to Gibbs Free Energy=         0.139520
 Sum of electronic and zero-point Energies=           -802.309701
 Sum of electronic and thermal Energies=              -802.298149
 Sum of electronic and thermal Enthalpies=            -802.297204
 Sum of electronic and thermal Free Energies=         -802.347587

                     E (Thermal)             CV                S
                      KCal/Mol        Cal/Mol-Kelvin    Cal/Mol-Kelvin
 Total                  118.573             44.008            106.038
 Electronic               0.000              0.000              0.000
 Translational            0.889              2.981             41.212
 Rotational               0.889              2.981             30.680
 Vibrational            116.796             38.046             34.146
 Vibration     1          0.593              1.986              6.997
 Vibration     2          0.606              1.941              3.266
 Vibration     3          0.608              1.935              3.141
 Vibration     4          0.627              1.873              2.377
 Vibration     5          0.644              1.822              2.021
 Vibration     6          0.659              1.775              1.785
 Vibration     7          0.680              1.710              1.530
 Vibration     8          0.698              1.659              1.373
 Vibration     9          0.700              1.653              1.357
 Vibration    10          0.706              1.634              1.308
 Vibration    11          0.707              1.631              1.300
 Vibration    12          0.762              1.481              0.981
 Vibration    13          0.792              1.404              0.858
 Vibration    14          0.804              1.373              0.812
 Vibration    15          0.873              1.210              0.614
 Vibration    16          0.891              1.171              0.575
 Vibration    17          0.924              1.101              0.509
 Vibration    18          0.947              1.054              0.468

                           ! Non-Optimized Parameters !
 Normal termination of Gaussian 16 at Tue Dec  8 21:39:37 2020.

 ----------------------------------------------------------------------
 # B3LYP/6-311++G(d,p) empiricaldispersion=gd3bj scf=xqc pop=npa geom=c
 heck
 ----------------------------------------------------------------------

 --------------------------------------
 CID_59860411_JID_1930_Energie_neutraal
 --------------------------------------
 Structure from the checkpoint file:  "JID_1930.chk"
 Charge =  0 Multiplicity = 1

 SCF Done:  E(RB3LYP) =  -802.624119118     A.U. after   15 cycles
 Normal termination of Gaussian 16 at Tue Dec  8 21:42:19 2020.

 ----------------------------------------------------------------------
 # B3LYP/6-311++G(d,p) empiricaldispersion=gd3bj scf=xqc pop=npa geom=c
 heck
 ----------------------------------------------------------------------

 ------------------------------------
 CID_59860411_JID_1930_Energie_kation
 ------------------------------------
 Structure from the checkpoint file:  "JID_1930.chk"
 Charge =  1 Multiplicity = 2

 SCF Done:  E(UB3LYP) =  -802.302789184     A.U. after   24 cycles
 Normal termination of Gaussian 16 at Tue Dec  8 21:47:23 2020.
 Gaussian 16:  ES64L-G16RevA.03 25-Dec-2016

 ----------------------------------------------------------------------
 # B3LYP/6-311++G(d,p) empiricaldispersion=gd3bj scf=xqc pop=npa geom=c
 heck
 ----------------------------------------------------------------------

 -----------------------------------
 CID_59860411_JID_1930_Energie_anion
 -----------------------------------
 Structure from the checkpoint file:  "JID_1930.chk"
 Charge = -1 Multiplicity = 2

                         Standard orientation:
 ---------------------------------------------------------------------
 Center     Atomic      Atomic             Coordinates (Angstroms)
 Number     Number       Type             X           Y           Z
 ---------------------------------------------------------------------
      1          6           0       -2.581810   -0.157487   -1.261471
      2          6           0       -1.895915    0.409927    0.000017
      3          6           0       -2.026451    1.942059    0.001283
      4          6           0       -2.582786   -0.159628    1.259978
      5          6           0       -0.433186    0.013515    0.000123
      6          6           0        0.689289    0.798129    0.000071
      7          6           0        1.886931    0.006897    0.000062
      8          7           0        1.728527   -1.311677    0.000034
      9         16           0        0.088020   -1.651206    0.000011
     10          6           0        3.199299    0.567450    0.000025
     11          6           0        4.292715    1.082195   -0.000047
     12          1           0       -3.637345    0.136330   -1.280377
     13          1           0       -2.534756   -1.251543   -1.283960
     14          1           0       -2.101475    0.219566   -2.170252
     15          1           0       -3.084923    2.223159    0.001484
     16          1           0       -1.560464    2.380806    0.889919
     17          1           0       -1.560434    2.382298   -0.886601
     18          1           0       -2.536036   -1.253738    1.280527
     19          1           0       -2.103003    0.215658    2.169785
     20          1           0       -3.638271    0.134382    1.278712
     21          1           0        0.693468    1.879781    0.000151
     22          1           0        5.266720    1.516007   -0.000052
 ---------------------------------------------------------------------

 SCF Done:  E(UB3LYP) =  -802.618708538     A.U. after   33 cycles
 SCF Done:  E(UB3LYP) =  -802.618708538     a.u. after    1 cycles

 The electronic state is 2-A.
 Alpha  occ. eigenvalues --  -88.70795 -14.12403 -10.07610 -10.05317 -10.04887
 Alpha  occ. eigenvalues --  -10.04886 -10.03539 -10.02903 -10.01607 -10.01517
 Alpha  occ. eigenvalues --   -9.99934  -7.79317  -5.75703  -5.75241  -5.74888
 Alpha  occ. eigenvalues --   -0.78028  -0.70992  -0.61558  -0.60419  -0.58160
 Alpha  occ. eigenvalues --   -0.57668  -0.55816  -0.46982  -0.43929  -0.38543
 Alpha  occ. eigenvalues --   -0.37077  -0.35743  -0.33168  -0.32712  -0.30542
 Alpha  occ. eigenvalues --   -0.28676  -0.27905  -0.25969  -0.25912  -0.24302
 Alpha  occ. eigenvalues --   -0.23298  -0.22394  -0.21634  -0.17712  -0.15201
 Alpha  occ. eigenvalues --   -0.12419  -0.11458  -0.10484  -0.08033   0.06704
 Alpha virt. eigenvalues --    0.07513   0.09691   0.09984   0.10087   0.10940
 Alpha virt. eigenvalues --    0.12531   0.12714   0.13200   0.13925   0.14616
 Alpha virt. eigenvalues --    0.15213   0.15249   0.15941   0.16561   0.16891

  Beta  occ. eigenvalues --  -88.70716 -14.11554 -10.07636 -10.05316 -10.04863
  Beta  occ. eigenvalues --  -10.04861 -10.03373 -10.02529 -10.01719 -10.01516
  Beta  occ. eigenvalues --   -9.99742  -7.79246  -5.75675  -5.75213  -5.74611
  Beta  occ. eigenvalues --   -0.77119  -0.70781  -0.61146  -0.59817  -0.58084
  Beta  occ. eigenvalues --   -0.57610  -0.55488  -0.46764  -0.43193  -0.38302
  Beta  occ. eigenvalues --   -0.36806  -0.35589  -0.33068  -0.32658  -0.30377
  Beta  occ. eigenvalues --   -0.28538  -0.27866  -0.25946  -0.25634  -0.23140
  Beta  occ. eigenvalues --   -0.23058  -0.21675  -0.21486  -0.17340  -0.14061
  Beta  occ. eigenvalues --   -0.12260  -0.10512  -0.08418  -0.05984
  Beta virt. eigenvalues --    0.07454   0.09652   0.09952   0.10035   0.10866
  Beta virt. eigenvalues --    0.12569   0.12642   0.13163   0.13250   0.14155
  Beta virt. eigenvalues --    0.14665   0.15270   0.15861   0.15902   0.16735

 Mulliken charges and spin densities:
               1          2
     1  C   -0.655745   0.007018
     2  C    0.889152   0.002242
     3  C   -0.547333   0.003902
     4  C   -0.655996   0.007102
     5  C   -0.208254   0.159401
     6  C    0.527237   0.019588
     7  C   -1.679925   0.064703
     8  N   -0.091774   0.368164
     9  S    0.051934   0.196589
    10  C    0.944537  -0.105124
    11  C   -0.978916   0.264543
    12  H    0.106845   0.006350
    13  H    0.136736   0.001184
    14  H    0.150835   0.002494
    15  H    0.122478  -0.000264
    16  H    0.123175  -0.001144
    17  H    0.123142  -0.001149
    18  H    0.136708   0.001162
    19  H    0.150897   0.002489
    20  H    0.107021   0.006180
    21  H    0.125859   0.004972
    22  H    0.121386  -0.010402
 Sum of Mulliken charges =  -1.00000   1.00000

 Dipole moment (field-independent basis, Debye):
    X=             -7.8584    Y=              2.7322    Z=              0.0009  Tot=              8.3198
 Quadrupole moment (field-independent basis, Debye-Ang):
   XX=           -113.0582   YY=            -89.7788   ZZ=            -84.7762
   XY=              1.5069   XZ=             -0.0046   YZ=              0.0001

 Summary of Natural Population Analysis:

                                       Natural Population
                Natural  -----------------------------------------------
    Atom  No    Charge         Core      Valence    Rydberg      Total
 -----------------------------------------------------------------------
      C    1   -0.27538      0.99964     2.26969    0.00606     3.27538
      C    2   -0.06278      0.99954     2.05485    0.00840     3.06278
      C    3   -0.28065      0.99964     2.27529    0.00572     3.28065
      C    4   -0.27540      0.99964     2.26970    0.00606     3.27540
      C    5   -0.04709      0.99947     2.03122    0.01640     3.04709
      C    6   -0.17980      0.99948     2.16727    0.01305     3.17980
      C    7    0.10679      0.99951     1.87759    0.01611     2.89321
      N    8   -0.20386      0.99973     2.67841    0.02572     3.70386
      S    9    0.28967      4.99939     2.68312    0.02782     7.71033
      C   10   -0.01312      0.99942     2.00077    0.01293     3.01312
      C   11   -0.12069      0.99929     2.11671    0.00469     3.12069
      H   12    0.08725      0.00000     0.41176    0.00098     0.41275
      H   13    0.10158      0.00000     0.39723    0.00119     0.39842
      H   14    0.10076      0.00000     0.39838    0.00086     0.39924
      H   15    0.09087      0.00000     0.40820    0.00094     0.40913
      H   16    0.10043      0.00000     0.39858    0.00099     0.39957
      H   17    0.10042      0.00000     0.39859    0.00099     0.39958
      H   18    0.10158      0.00000     0.39723    0.00119     0.39842
      H   19    0.10077      0.00000     0.39837    0.00086     0.39923
      H   20    0.08726      0.00000     0.41176    0.00098     0.41274
      H   21    0.10092      0.00000     0.39746    0.00162     0.39908
      H   22    0.09820      0.00000     0.40049    0.00131     0.40180
 =======================================================================
   * Total *    0.00773     14.99474    28.84267    0.15486    43.99227

 Normal termination of Gaussian 16 at Tue Dec  8 21:52:42 2020.
