 Gaussian 16, Revision A.03,

 -----------------------------------------------------------
 # opt freq B3LYP/6-31G(d) empiricaldispersion=gd3bj scf=xqc
 -----------------------------------------------------------

 -----------------------------
 CID_21702855_JID_909_neutraal
 -----------------------------
 Symbolic Z-matrix:
 Charge =  0 Multiplicity = 1

 SCF Done:  E(RB3LYP) =  -463.751407022     A.U. after   14 cycles
 SCF Done:  E(RB3LYP) =  -463.753204109     A.U. after   12 cycles
 SCF Done:  E(RB3LYP) =  -463.752047824     A.U. after   12 cycles
 SCF Done:  E(RB3LYP) =  -463.754263917     A.U. after   10 cycles
 SCF Done:  E(RB3LYP) =  -463.754348559     A.U. after   11 cycles
 SCF Done:  E(RB3LYP) =  -463.754433711     A.U. after   11 cycles
 SCF Done:  E(RB3LYP) =  -463.754467781     A.U. after   10 cycles
 SCF Done:  E(RB3LYP) =  -463.754501582     A.U. after   11 cycles
 SCF Done:  E(RB3LYP) =  -463.754541247     A.U. after   11 cycles
 SCF Done:  E(RB3LYP) =  -463.754568790     A.U. after   11 cycles
 SCF Done:  E(RB3LYP) =  -463.755524513     A.U. after    7 cycles
 SCF Done:  E(RB3LYP) =  -463.755528041     A.U. after   10 cycles
 SCF Done:  E(RB3LYP) =  -463.755548014     A.U. after   10 cycles
 SCF Done:  E(RB3LYP) =  -463.755550475     A.U. after    8 cycles
 SCF Done:  E(RB3LYP) =  -463.755551700     A.U. after    9 cycles
 SCF Done:  E(RB3LYP) =  -463.755551990     A.U. after    7 cycles
 Optimization completed.
    -- Stationary point found.

 1\1\GINC-NODE306\FOpt\RB3LYP\6-31G(d)\C8H14O2\VSC10255\08-Dec-2020\0\\
 # opt freq B3LYP/6-31G(d) empiricaldispersion=gd3bj scf=xqc\\CID_21702
 855_JID_909_neutraal\\0,1\C,1.0944552528,0.1123954315,0.0321761385\C,0
 .6197053441,-1.271975886,0.48329813\C,0.9872847366,-1.5769396955,1.943
 5737043\C,0.2173916625,-0.6859583509,2.9137799546\O,-0.978192481,-0.50
 44287309,2.7737529331\C,1.0015679675,-0.0235142654,4.0432140349\C,0.09
 62377465,0.8122331606,4.9580600534\C,0.0263373654,2.1730572389,4.22696
 50099\O,1.0457908977,2.1617529548,3.2119955594\C,1.9185294428,1.076356

 Normal termination of Gaussian 16 at Tue Dec  8 14:27:59 2020.

 --------------------------------------------------------------------
 #N Geom=AllCheck Guess=TCheck SCRF=Check GenChk RB3LYP/6-31G(d) Freq
 --------------------------------------------------------------------

 Structure from the checkpoint file:  "JID_909.chk"
 -----------------------------
 CID_21702855_JID_909_neutraal
 -----------------------------
 Charge =  0 Multiplicity = 1

 SCF Done:  E(RB3LYP) =  -463.755551990     A.U. after    1 cycles

  Exact polarizability:  97.202   0.853  76.753   0.888   1.721  81.360
 Approx polarizability: 118.817   0.687 109.628   1.643   7.262 129.439

                      1                      2                      3
                      A                      A                      A
 Frequencies --     40.9496                77.8114                90.3501
 Red. masses --      4.6857                 2.8368                 2.2772
 Frc consts  --      0.0046                 0.0101                 0.0110
 IR Inten    --      1.3377                 0.7768                 3.7075

                      4                      5                      6
                      A                      A                      A
 Frequencies --    124.1145               145.9587               206.6226
 Red. masses --      3.6674                 3.7613                 2.2111
 Frc consts  --      0.0333                 0.0472                 0.0556
 IR Inten    --      1.5356                 4.2722                 0.7221

                      7                      8                      9
                      A                      A                      A
 Frequencies --    262.8203               307.3697               330.6183
 Red. masses --      1.5488                 1.5816                 2.3850
 Frc consts  --      0.0630                 0.0880                 0.1536
 IR Inten    --      2.4541                 1.0105                10.1127

                     10                     11                     12
                      A                      A                      A
 Frequencies --    362.5898               423.9611               536.3311
 Red. masses --      2.7370                 2.6528                 2.9298
 Frc consts  --      0.2120                 0.2809                 0.4965
 IR Inten    --      2.5236                 2.0355                 4.3413

                     13                     14                     15
                      A                      A                      A
 Frequencies --    618.1543               705.4188               715.1816
 Red. masses --      3.1810                 3.5486                 2.8736
 Frc consts  --      0.7161                 1.0404                 0.8660
 IR Inten    --      1.9909                 3.3494                 4.1649

                     16                     17                     18
                      A                      A                      A
 Frequencies --    791.7091               832.1944               869.1692
 Red. masses --      1.7050                 1.4243                 2.3751
 Frc consts  --      0.6297                 0.5811                 1.0572
 IR Inten    --      1.0234                 4.8551                 6.3827

                     19                     20                     21
                      A                      A                      A
 Frequencies --    882.6171               905.4898               930.1361
 Red. masses --      2.8486                 1.5634                 2.8196
 Frc consts  --      1.3075                 0.7552                 1.4373
 IR Inten    --      0.6929                 1.7966                14.6269

                     22                     23                     24
                      A                      A                      A
 Frequencies --    932.8921               940.5687              1007.7671
 Red. masses --      2.2460                 2.7436                 1.8582
 Frc consts  --      1.1516                 1.4300                 1.1119
 IR Inten    --     22.9188                 1.8703                 3.5217

                     25                     26                     27
                      A                      A                      A
 Frequencies --   1042.5936              1065.3171              1078.0572
 Red. masses --      2.0535                 1.9075                 1.8371
 Frc consts  --      1.3152                 1.2755                 1.2579
 IR Inten    --     28.4775                 7.3498                14.9470

                     28                     29                     30
                      A                      A                      A
 Frequencies --   1107.4366              1121.6681              1141.1621
 Red. masses --      1.9253                 2.3083                 2.2766
 Frc consts  --      1.3912                 1.7111                 1.7468
 IR Inten    --     50.3408                36.3466                20.9232

                     31                     32                     33
                      A                      A                      A
 Frequencies --   1159.2776              1217.2937              1232.0301
 Red. masses --      1.9099                 1.6054                 1.1729
 Frc consts  --      1.5123                 1.4016                 1.0489
 IR Inten    --     56.2958                 6.8379                10.6772

                     34                     35                     36
                      A                      A                      A
 Frequencies --   1246.7357              1253.2989              1279.8431
 Red. masses --      1.2621                 1.2358                 1.2713
 Frc consts  --      1.1558                 1.1436                 1.2269
 IR Inten    --      3.1663                 1.5070                 3.3787

                     37                     38                     39
                      A                      A                      A
 Frequencies --   1305.8147              1333.1491              1355.5541
 Red. masses --      1.2858                 1.4123                 1.4097
 Frc consts  --      1.2917                 1.4789                 1.5262
 IR Inten    --      9.0724                 5.5572                 5.3946

                     40                     41                     42
                      A                      A                      A
 Frequencies --   1378.7889              1391.0012              1402.7398
 Red. masses --      1.3038                 1.4096                 1.6376
 Frc consts  --      1.4603                 1.6069                 1.8985
 IR Inten    --      3.3016                 3.0271                17.9466

                     43                     44                     45
                      A                      A                      A
 Frequencies --   1418.5237              1448.6163              1501.4172
 Red. masses --      1.3598                 1.2468                 1.0939
 Frc consts  --      1.6121                 1.5416                 1.4529
 IR Inten    --      5.0684                 3.3865                 6.4431

                     46                     47                     48
                      A                      A                      A
 Frequencies --   1510.3607              1517.6555              1533.3123
 Red. masses --      1.0956                 1.0751                 1.0596
 Frc consts  --      1.4726                 1.4590                 1.4677
 IR Inten    --      7.5786                 2.7098                11.8591

                     49                     50                     51
                      A                      A                      A
 Frequencies --   1538.7190              1547.2830              1557.8944
 Red. masses --      1.0525                 1.0736                 1.0969
 Frc consts  --      1.4682                 1.5144                 1.5685
 IR Inten    --      9.1438                 0.9760                 1.4175

                     52                     53                     54
                      A                      A                      A
 Frequencies --   1804.0465              2989.6520              3037.7730
 Red. masses --     10.9749                 1.0732                 1.0611
 Frc consts  --     21.0449                 5.6516                 5.7693
 IR Inten    --     96.9605                78.3912                16.5059

                     55                     56                     57
                      A                      A                      A
 Frequencies --   3040.6537              3042.7221              3059.2023
 Red. masses --      1.0689                 1.0397                 1.0637
 Frc consts  --      5.8224                 5.6713                 5.8654
 IR Inten    --     76.7594                18.7878                31.4815

                     58                     59                     60
                      A                      A                      A
 Frequencies --   3065.8058              3082.0174              3087.1478
 Red. masses --      1.0826                 1.0999                 1.0687
 Frc consts  --      5.9955                 6.1554                 6.0012
 IR Inten    --     20.4117                17.4797                37.8392

                     61                     62                     63
                      A                      A                      A
 Frequencies --   3096.5696              3115.2982              3116.3929
 Red. masses --      1.0981                 1.0976                 1.0998
 Frc consts  --      6.2036                 6.2760                 6.2932
 IR Inten    --      2.2921                 5.9378                63.3233

                     64                     65                     66
                      A                      A                      A
 Frequencies --   3122.9843              3126.7253              3152.6890
 Red. masses --      1.1029                 1.0916                 1.1009
 Frc consts  --      6.3377                 6.2879                 6.4471
 IR Inten    --     46.3778                15.2275                11.7685

 - Thermochemistry -
 -------------------
 Temperature   298.150 Kelvin.  Pressure   1.00000 Atm.
 Atom     1 has atomic number  6 and mass  12.00000

 Molecular mass:   142.09938 amu.
 Principal axes and moments of inertia in atomic units:
                           1         2         3
     Eigenvalues --   820.134601878.198092138.70147
           X            0.99961   0.02792   0.00040
           Y           -0.02788   0.99892  -0.03721
           Z           -0.00144   0.03718   0.99931
 This molecule is an asymmetric top.
 Rotational symmetry number  1.
 Warning -- assumption of classical behavior for rotation
           may cause significant error
 Rotational temperatures (Kelvin)      0.10561     0.04612     0.04050
 Rotational constants (GHZ):           2.20054     0.96089     0.84385
 Zero-point vibrational energy     560247.2 (Joules/Mol)
                                  133.90230 (Kcal/Mol)
 Warning -- explicit consideration of  13 degrees of freedom as
           vibrations may cause significant error
 Vibrational temperatures:     58.92   111.95   129.99   178.57   210.00
          (Kelvin)            297.28   378.14   442.24   475.69   521.69
                              609.99   771.66   889.39  1014.94  1028.99
                             1139.09  1197.34  1250.54  1269.89  1302.80
                             1338.26  1342.22  1353.27  1449.95  1500.06
                             1532.75  1551.08  1593.35  1613.83  1641.88
                             1667.94  1751.41  1772.62  1793.77  1803.22
                             1841.41  1878.78  1918.10  1950.34  1983.77
                             2001.34  2018.23  2040.94  2084.24  2160.20
                             2173.07  2183.57  2206.09  2213.87  2226.20
                             2241.46  2595.62  4301.44  4370.68  4374.82
                             4377.80  4401.51  4411.01  4434.34  4441.72
                             4455.27  4482.22  4483.79  4493.28  4498.66
                             4536.02

 Zero-point correction=                           0.213387 (Hartree/Particle)
 Thermal correction to Energy=                    0.223800
 Thermal correction to Enthalpy=                  0.224745
 Thermal correction to Gibbs Free Energy=         0.176768
 Sum of electronic and zero-point Energies=           -463.542165
 Sum of electronic and thermal Energies=              -463.531752
 Sum of electronic and thermal Enthalpies=            -463.530807
 Sum of electronic and thermal Free Energies=         -463.578784

                     E (Thermal)             CV                S
                      KCal/Mol        Cal/Mol-Kelvin    Cal/Mol-Kelvin
 Total                  140.437             38.112            100.976
 Electronic               0.000              0.000              0.000
 Translational            0.889              2.981             40.765
 Rotational               0.889              2.981             29.578
 Vibrational            138.659             32.151             30.632
 Vibration     1          0.594              1.981              5.213
 Vibration     2          0.599              1.964              3.945
 Vibration     3          0.602              1.956              3.652
 Vibration     4          0.610              1.929              3.035
 Vibration     5          0.617              1.907              2.724
 Vibration     6          0.641              1.830              2.073
 Vibration     7          0.670              1.741              1.643
 Vibration     8          0.697              1.660              1.376
 Vibration     9          0.713              1.614              1.257
 Vibration    10          0.736              1.549              1.111
 Vibration    11          0.786              1.418              0.879
 Vibration    12          0.891              1.170              0.573
 Vibration    13          0.978              0.994              0.419

 Optimization completed.
    -- Stationary point found.

 1\1\GINC-NODE306\Freq\RB3LYP\6-31G(d)\C8H14O2\VSC10255\08-Dec-2020\0\\
 #N Geom=AllCheck Guess=TCheck SCRF=Check GenChk RB3LYP/6-31G(d) Freq\\
 CID_21702855_JID_909_neutraal\\0,1\C,1.0944552528,0.1123954315,0.03217
 61385\C,0.6197053441,-1.271975886,0.48329813\C,0.9872847366,-1.5769396
 955,1.9435737043\C,0.2173916625,-0.6859583509,2.9137799546\O,-0.978192
 481,-0.5044287309,2.7737529331\C,1.0015679675,-0.0235142654,4.04321403
 49\C,0.0962377465,0.8122331606,4.9580600534\C,0.0263373654,2.173057238
 9,4.2269650099\O,1.0457908977,2.1617529548,3.2119955594\C,1.9185294428

 Normal termination of Gaussian 16 at Tue Dec  8 14:33:23 2020.

 ----------------------------------------------------------------------
 # B3LYP/6-311++G(d,p) empiricaldispersion=gd3bj scf=xqc pop=npa geom=c
 heck
 ----------------------------------------------------------------------

 -------------------------------------
 CID_21702855_JID_909_Energie_neutraal
 -------------------------------------
 Structure from the checkpoint file:  "JID_909.chk"
 Charge =  0 Multiplicity = 1

 SCF Done:  E(RB3LYP) =  -463.889584367     A.U. after   13 cycles
 Normal termination of Gaussian 16 at Tue Dec  8 14:36:56 2020.

 ----------------------------------------------------------------------
 # B3LYP/6-311++G(d,p) empiricaldispersion=gd3bj scf=xqc pop=npa geom=c
 heck
 ----------------------------------------------------------------------

 -----------------------------------
 CID_21702855_JID_909_Energie_kation
 -----------------------------------
 Structure from the checkpoint file:  "JID_909.chk"
 Charge =  1 Multiplicity = 2

 SCF Done:  E(UB3LYP) =  -463.559504497     A.U. after   20 cycles
 Normal termination of Gaussian 16 at Tue Dec  8 14:40:29 2020.
 Gaussian 16:  ES64L-G16RevA.03 25-Dec-2016

 ----------------------------------
 CID_21702855_JID_909_Energie_anion
 ----------------------------------
 Structure from the checkpoint file:  "JID_909.chk"
 Charge = -1 Multiplicity = 2

                         Standard orientation:
 ---------------------------------------------------------------------
 Center     Atomic      Atomic             Coordinates (Angstroms)
 Number     Number       Type             X           Y           Z
 ---------------------------------------------------------------------
      1          6           0        2.360772    1.399416   -0.404273
      2          6           0        2.731922   -0.064862   -0.152242
      3          6           0        1.713697   -0.787951    0.742678
      4          6           0        0.369358   -0.955655    0.040884
      5          8           0        0.315667   -1.340695   -1.112737
      6          6           0       -0.890458   -0.606813    0.828639
      7          6           0       -2.165905   -0.855830    0.012387
      8          6           0       -2.323244    0.454796   -0.793051
      9          8           0       -1.418053    1.415295   -0.220646
     10          6           0       -0.977524    0.919354    1.031117
     11          1           0        1.367139    1.487167   -0.858479
     12          1           0        3.080357    1.877431   -1.077533
     13          1           0        2.353198    1.971986    0.531985
     14          1           0        2.784972   -0.604219   -1.103733
     15          1           0        3.723684   -0.125977    0.311810
     16          1           0        2.073554   -1.800333    0.974512
     17          1           0        1.591803   -0.269324    1.701038
     18          1           0       -0.870845   -1.134332    1.790443
     19          1           0       -3.016715   -1.011957    0.682671
     20          1           0       -2.064401   -1.725050   -0.639574
     21          1           0       -2.041730    0.329240   -1.841746
     22          1           0       -3.349760    0.841153   -0.744891
     23          1           0       -1.696146    1.147420    1.835808
     24          1           0       -0.027724    1.405265    1.267925
 ---------------------------------------------------------------------

 SCF Done:  E(UB3LYP) =  -463.879050090     A.U. after   29 cycles

 The electronic state is 2-A.
 Alpha  occ. eigenvalues --  -19.00979 -18.97961 -10.12083 -10.10298 -10.10222
 Alpha  occ. eigenvalues --  -10.06332 -10.05586 -10.05544 -10.05342 -10.04911
 Alpha  occ. eigenvalues --   -0.92880  -0.91392  -0.68625  -0.67275  -0.63022
 Alpha  occ. eigenvalues --   -0.58975  -0.51724  -0.48577  -0.47281  -0.41019
 Alpha  occ. eigenvalues --   -0.38633  -0.38416  -0.35217  -0.34312  -0.32975
 Alpha  occ. eigenvalues --   -0.31031  -0.30811  -0.29833  -0.28070  -0.26395
 Alpha  occ. eigenvalues --   -0.24722  -0.23944  -0.23810  -0.22584  -0.22150
 Alpha  occ. eigenvalues --   -0.22017  -0.20756  -0.14655  -0.12469   0.04836
 Alpha virt. eigenvalues --    0.07555   0.08467   0.09190   0.09458   0.10067
 Alpha virt. eigenvalues --    0.10524   0.11145   0.11694   0.12005   0.13203
 Alpha virt. eigenvalues --    0.13537   0.14015   0.14977   0.15282   0.17549

  Beta  occ. eigenvalues --  -19.00975 -18.97804 -10.11907 -10.10293 -10.10170
  Beta  occ. eigenvalues --  -10.06338 -10.05564 -10.05524 -10.05334 -10.04898
  Beta  occ. eigenvalues --   -0.92838  -0.91108  -0.68505  -0.67232  -0.62964
  Beta  occ. eigenvalues --   -0.58869  -0.51556  -0.48508  -0.47218  -0.40846
  Beta  occ. eigenvalues --   -0.38514  -0.38293  -0.35105  -0.34185  -0.32873
  Beta  occ. eigenvalues --   -0.30981  -0.30729  -0.29753  -0.27970  -0.26014
  Beta  occ. eigenvalues --   -0.24654  -0.23864  -0.23739  -0.22525  -0.22100
  Beta  occ. eigenvalues --   -0.21723  -0.20551  -0.14614  -0.12336
  Beta virt. eigenvalues --    0.07637   0.08339   0.09127   0.09737   0.10458
  Beta virt. eigenvalues --    0.10614   0.11092   0.11684   0.12040   0.12559
  Beta virt. eigenvalues --    0.13512   0.13809   0.14515   0.15151   0.15408

 Mulliken charges and spin densities:
               1          2
     1  C   -0.071064  -0.515809
     2  C   -0.321216   0.036537
     3  C    0.640402  -0.783444
     4  C    0.448839  -0.494759
     5  O   -0.289834   0.055412
     6  C   -0.771628   1.299214
     7  C    0.702085  -1.207279
     8  C   -0.294314   0.024180
     9  O   -0.088666  -0.011884
    10  C    1.155168  -1.800990
    11  H    0.148998   0.044236
    12  H    0.058659   0.061128
    13  H    0.009642   0.117155
    14  H    0.185341  -0.026792
    15  H   -0.414494   0.563526
    16  H   -0.369497   0.553111
    17  H   -0.165647   0.312241
    18  H   -0.994841   1.260257
    19  H   -0.216770   0.388909
    20  H    0.049811   0.111600
    21  H    0.152895   0.012323
    22  H    0.007526   0.115285
    23  H   -0.699524   0.860865
    24  H    0.138129   0.024978
 Sum of Mulliken charges =  -1.00000   1.00000

 Dipole moment (field-independent basis, Debye):
    X=             -0.0678    Y=              1.9565    Z=             -4.9719  Tot=              5.3434
 Quadrupole moment (field-independent basis, Debye-Ang):
   XX=           -108.1233   YY=            -93.5809   ZZ=           -100.3243
   XY=              4.2187   XZ=              5.7004   YZ=              2.1224

 Summary of Natural Population Analysis:

                                       Natural Population
                Natural  -----------------------------------------------
    Atom  No    Charge         Core      Valence    Rydberg      Total
 -----------------------------------------------------------------------
      C    1   -0.28970      0.99966     2.28463    0.00540     3.28970
      C    2   -0.18903      0.99964     2.18038    0.00901     3.18903
      C    3   -0.23638      0.99958     2.22687    0.00993     3.23638
      C    4    0.31958      0.99965     1.65739    0.02339     2.68042
      O    5   -0.28754      0.99987     3.28163    0.00603     4.28754
      C    6   -0.16889      0.99955     2.15636    0.01298     3.16889
      C    7   -0.20699      0.99963     2.19784    0.00951     3.20699
      C    8   -0.01034      0.99960     1.99918    0.01155     3.01034
      O    9   -0.30349      0.99989     3.29560    0.00800     4.30349
      C   10   -0.00531      0.99958     1.99136    0.01437     3.00531
      H   11    0.10503      0.00000     0.39360    0.00137     0.39497
      H   12    0.09420      0.00000     0.40512    0.00068     0.40580
      H   13    0.09344      0.00000     0.40561    0.00095     0.40656
      H   14    0.10110      0.00000     0.39776    0.00114     0.39890
      H   15    0.09410      0.00000     0.40450    0.00140     0.40590
      H   16    0.11617      0.00000     0.38127    0.00256     0.38383
      H   17    0.09898      0.00000     0.39944    0.00158     0.40102
      H   18    0.12030      0.00000     0.37238    0.00732     0.37970
      H   19    0.10094      0.00000     0.39746    0.00160     0.39906
      H   20    0.11151      0.00000     0.38743    0.00106     0.38849
      H   21    0.08787      0.00000     0.41105    0.00109     0.41213
      H   22    0.07822      0.00000     0.42058    0.00120     0.42178
      H   23    0.08326      0.00000     0.41330    0.00344     0.41674
      H   24    0.09296      0.00000     0.40531    0.00173     0.40704
 =======================================================================
   * Total *   -0.00000      9.99666    28.86605    0.13729    39.00000

 Normal termination of Gaussian 16 at Tue Dec  8 14:49:44 2020.
