 Gaussian 16, Revision A.03,

 -----------------------------------------------------------
 # opt freq B3LYP/6-31G(d) empiricaldispersion=gd3bj scf=xqc
 -----------------------------------------------------------

 ------------------------------
 CID_55061201_JID_7919_neutraal
 ------------------------------
 Symbolic Z-matrix:
 Charge =  0 Multiplicity = 1

 SCF Done:  E(RB3LYP) =  -771.064264593     A.U. after   14 cycles
 SCF Done:  E(RB3LYP) =  -771.068303988     A.U. after   13 cycles
 SCF Done:  E(RB3LYP) =  -771.068471797     A.U. after   13 cycles
 SCF Done:  E(RB3LYP) =  -771.071536893     A.U. after   14 cycles
 SCF Done:  E(RB3LYP) =  -771.075409677     A.U. after   14 cycles
 SCF Done:  E(RB3LYP) =  -771.076547563     A.U. after   12 cycles
 SCF Done:  E(RB3LYP) =  -771.076561944     A.U. after   12 cycles
 SCF Done:  E(RB3LYP) =  -771.076929388     A.U. after   11 cycles
 SCF Done:  E(RB3LYP) =  -771.077019824     A.U. after   10 cycles
 SCF Done:  E(RB3LYP) =  -771.077064460     A.U. after   10 cycles
 SCF Done:  E(RB3LYP) =  -771.077160900     A.U. after   10 cycles
 SCF Done:  E(RB3LYP) =  -771.077171358     A.U. after    9 cycles
 SCF Done:  E(RB3LYP) =  -771.077172316     A.U. after    8 cycles
 SCF Done:  E(RB3LYP) =  -771.077172481     A.U. after    7 cycles
 SCF Done:  E(RB3LYP) =  -771.077172525     A.U. after    6 cycles
 Optimization completed.
    -- Stationary point found.
 Normal termination of Gaussian 16 at Fri Dec 11 13:11:09 2020.

 --------------------------------------------------------------------
 #N Geom=AllCheck Guess=TCheck SCRF=Check GenChk RB3LYP/6-31G(d) Freq
 --------------------------------------------------------------------

 Structure from the checkpoint file:  "JID_7919.chk"
 ------------------------------
 CID_55061201_JID_7919_neutraal
 ------------------------------
 Charge =  0 Multiplicity = 1

 SCF Done:  E(RB3LYP) =  -771.077172525     A.U. after    1 cycles

  Exact polarizability: 167.260  -5.870 163.623  -1.387  -0.612 134.121
 Approx polarizability: 207.135 -11.254 226.562  -9.684   0.889 205.079

                      1                      2                      3
                      A                      A                      A
 Frequencies --     27.7756                33.1302                51.7506
 Red. masses --      3.5820                 3.0653                 4.0256
 Frc consts  --      0.0016                 0.0020                 0.0064
 IR Inten    --      0.8390                 1.2540                 0.6718

                      4                      5                      6
                      A                      A                      A
 Frequencies --     60.3989                67.1520                85.4993
 Red. masses --      4.8564                 3.2524                 3.3187
 Frc consts  --      0.0104                 0.0086                 0.0143
 IR Inten    --      0.9766                 0.6021                 0.3692

                      7                      8                      9
                      A                      A                      A
 Frequencies --    101.5411               117.3632               156.2282
 Red. masses --      2.2596                 3.7411                 2.3157
 Frc consts  --      0.0137                 0.0304                 0.0333
 IR Inten    --      0.0890                 0.0509                 0.0730

                     10                     11                     12
                      A                      A                      A
 Frequencies --    189.5716               208.8313               231.7640
 Red. masses --      2.3356                 2.2999                 1.1285
 Frc consts  --      0.0495                 0.0591                 0.0357
 IR Inten    --      2.0124                 1.3530                 0.3381

                     13                     14                     15
                      A                      A                      A
 Frequencies --    234.0185               242.7960               248.8243
 Red. masses --      1.2582                 1.8835                 2.3802
 Frc consts  --      0.0406                 0.0654                 0.0868
 IR Inten    --      0.8609                 5.2807                 5.4043

                     16                     17                     18
                      A                      A                      A
 Frequencies --    274.3398               283.5715               304.9591
 Red. masses --      2.8951                 1.7781                 3.8067
 Frc consts  --      0.1284                 0.0842                 0.2086
 IR Inten    --      0.8821                 0.6134                 0.6812

                     19                     20                     21
                      A                      A                      A
 Frequencies --    326.4550               337.7694               359.8329
 Red. masses --      2.3145                 1.8043                 3.3493
 Frc consts  --      0.1453                 0.1213                 0.2555
 IR Inten    --      5.1474                 0.5159                 0.7499

                     22                     23                     24
                      A                      A                      A
 Frequencies --    421.5949               428.3952               456.0702
 Red. masses --      3.0160                 3.5540                 3.2480
 Frc consts  --      0.3158                 0.3843                 0.3980
 IR Inten    --      7.0459                 0.4659                 0.7201

                     25                     26                     27
                      A                      A                      A
 Frequencies --    467.8414               484.1546               505.8033
 Red. masses --      2.4022                 2.6525                 2.1442
 Frc consts  --      0.3098                 0.3663                 0.3232
 IR Inten    --      2.3550                 4.0700                 7.5040

                     28                     29                     30
                      A                      A                      A
 Frequencies --    552.5099               595.1152               630.2958
 Red. masses --      3.3437                 1.9613                 1.9921
 Frc consts  --      0.6014                 0.4093                 0.4663
 IR Inten    --     15.6911                17.9978                42.1204

                     31                     32                     33
                      A                      A                      A
 Frequencies --    654.7075               747.5888               774.3915
 Red. masses --      2.3808                 3.5273                 2.1232
 Frc consts  --      0.6013                 1.1615                 0.7502
 IR Inten    --     19.7536                36.2109                24.2900

                     34                     35                     36
                      A                      A                      A
 Frequencies --    783.1920               798.8132               824.1443
 Red. masses --      1.8250                 1.5465                 1.6246
 Frc consts  --      0.6596                 0.5814                 0.6501
 IR Inten    --     79.3888                 5.3246                 6.9243

                     37                     38                     39
                      A                      A                      A
 Frequencies --    855.8496               857.9591               887.2515
 Red. masses --      1.9689                 2.0895                 1.6466
 Frc consts  --      0.8497                 0.9062                 0.7637
 IR Inten    --      2.3348                19.2417                14.4253

                     40                     41                     42
                      A                      A                      A
 Frequencies --    905.2158               931.6244               945.5346
 Red. masses --      1.8738                 1.5527                 2.1518
 Frc consts  --      0.9046                 0.7940                 1.1334
 IR Inten    --     12.3866                51.7982                 1.7456

                     43                     44                     45
                      A                      A                      A
 Frequencies --    962.0411               978.0189               993.6824
 Red. masses --      1.6595                 1.9798                 1.5133
 Frc consts  --      0.9049                 1.1157                 0.8804
 IR Inten    --      6.6968                 4.5648                 2.2016

                     46                     47                     48
                      A                      A                      A
 Frequencies --    995.9454              1010.1321              1046.4499
 Red. masses --      1.2869                 1.7333                 2.5115
 Frc consts  --      0.7521                 1.0420                 1.6204
 IR Inten    --      9.6386                10.8544                19.6975

                     49                     50                     51
                      A                      A                      A
 Frequencies --   1065.2901              1075.8509              1094.9809
 Red. masses --      2.6075                 1.7638                 1.8556
 Frc consts  --      1.7434                 1.2028                 1.3108
 IR Inten    --      6.2534                 0.7312                22.9163

                     52                     53                     54
                      A                      A                      A
 Frequencies --   1106.9524              1128.1510              1132.3427
 Red. masses --      2.0935                 2.9677                 2.4568
 Frc consts  --      1.5114                 2.2254                 1.8560
 IR Inten    --     23.1865                 5.8418                12.9340

                     55                     56                     57
                      A                      A                      A
 Frequencies --   1150.4996              1161.4025              1167.2452
 Red. masses --      2.0894                 2.0969                 2.7641
 Frc consts  --      1.6294                 1.6665                 2.2189
 IR Inten    --     78.4267                 8.8256                92.2724

                     58                     59                     60
                      A                      A                      A
 Frequencies --   1184.4920              1190.4898              1201.4108
 Red. masses --      2.2047                 2.2329                 2.2019
 Frc consts  --      1.8225                 1.8645                 1.8725
 IR Inten    --     63.0728                25.9324                 2.8264

                     61                     62                     63
                      A                      A                      A
 Frequencies --   1206.0116              1246.2711              1269.7430
 Red. masses --      2.0999                 1.5258                 1.2337
 Frc consts  --      1.7995                 1.3963                 1.1719
 IR Inten    --     16.0748                 2.4310                 1.2934

                     64                     65                     66
                      A                      A                      A
 Frequencies --   1301.2304              1306.2056              1325.1266
 Red. masses --      1.2061                 1.2169                 1.2358
 Frc consts  --      1.2032                 1.2233                 1.2785
 IR Inten    --      8.7244                 0.7430                 5.5654

                     67                     68                     69
                      A                      A                      A
 Frequencies --   1340.9052              1346.5539              1356.1760
 Red. masses --      1.2814                 1.3256                 1.3361
 Frc consts  --      1.3575                 1.4162                 1.4479
 IR Inten    --      2.2546                 6.0090                 5.1207

                     70                     71                     72
                      A                      A                      A
 Frequencies --   1370.5574              1378.4091              1382.9143
 Red. masses --      1.2342                 1.3104                 1.3336
 Frc consts  --      1.3659                 1.4669                 1.5026
 IR Inten    --     27.3561                 6.0758                 9.0919

                     73                     74                     75
                      A                      A                      A
 Frequencies --   1390.1292              1397.5398              1404.2636
 Red. masses --      1.3457                 1.5068                 2.5179
 Frc consts  --      1.5321                 1.7340                 2.9254
 IR Inten    --      1.2298                 6.1427               108.7228

                     76                     77                     78
                      A                      A                      A
 Frequencies --   1404.4132              1416.1906              1422.7306
 Red. masses --      1.4517                 1.3203                 1.3332
 Frc consts  --      1.6870                 1.5602                 1.5900
 IR Inten    --      1.2783                15.3598                 5.3423

                     79                     80                     81
                      A                      A                      A
 Frequencies --   1430.8643              1435.7013              1443.0977
 Red. masses --      1.3784                 1.2859                 1.2288
 Frc consts  --      1.6628                 1.5616                 1.5077
 IR Inten    --     36.7822                 9.2435                 3.3789

                     82                     83                     84
                      A                      A                      A
 Frequencies --   1462.4790              1497.5929              1500.7403
 Red. masses --      1.5066                 1.2301                 1.3033
 Frc consts  --      1.8985                 1.6255                 1.7294
 IR Inten    --      4.0873                34.9427                 9.5361

                     85                     86                     87
                      A                      A                      A
 Frequencies --   1512.4430              1512.8298              1514.6453
 Red. masses --      1.0656                 1.0885                 1.0883
 Frc consts  --      1.4361                 1.4678                 1.4711
 IR Inten    --      0.8031                 1.5896                 6.9288

                     88                     89                     90
                      A                      A                      A
 Frequencies --   1518.1876              1518.7221              1526.5819
 Red. masses --      1.1409                 1.0586                 1.0904
 Frc consts  --      1.5494                 1.4386                 1.4971
 IR Inten    --      2.7029                13.5816                 9.2455

                     91                     92                     93
                      A                      A                      A
 Frequencies --   1529.1009              1529.9090              1530.6531
 Red. masses --      1.0757                 1.0964                 1.0711
 Frc consts  --      1.4819                 1.5120                 1.4786
 IR Inten    --      2.3475                 1.4932                 6.8383

                     94                     95                     96
                      A                      A                      A
 Frequencies --   1537.1978              1541.4138              1547.7510
 Red. masses --      1.0604                 1.0601                 1.0974
 Frc consts  --      1.4763                 1.4840                 1.5489
 IR Inten    --      4.5642                 3.4720                 1.2116

                     97                     98                     99
                      A                      A                      A
 Frequencies --   1767.6856              2986.6672              3014.1831
 Red. masses --      7.5931                 1.0559                 1.0706
 Frc consts  --     13.9791                 5.5495                 5.7309
 IR Inten    --    359.7225                23.0041                12.8589

                    100                    101                    102
                      A                      A                      A
 Frequencies --   3018.5271              3021.2568              3026.8739
 Red. masses --      1.0962                 1.0687                 1.0828
 Frc consts  --      5.8846                 5.7477                 5.8451
 IR Inten    --     53.4963                24.9582                25.9699

                    103                    104                    105
                      A                      A                      A
 Frequencies --   3028.0606              3028.3207              3035.1767
 Red. masses --      1.0683                 1.0651                 1.0699
 Frc consts  --      5.7713                 5.7549                 5.8073
 IR Inten    --     32.9467                17.1749                 8.3462

                    106                    107                    108
                      A                      A                      A
 Frequencies --   3039.4290              3041.6180              3050.6584
 Red. masses --      1.0787                 1.0429                 1.0360
 Frc consts  --      5.8710                 5.6847                 5.6807
 IR Inten    --     45.0974                29.4598                23.1584

                    109                    110                    111
                      A                      A                      A
 Frequencies --   3069.2530              3070.0920              3073.2528
 Red. masses --      1.0364                 1.0979                 1.0932
 Frc consts  --      5.7522                 6.0972                 6.0831
 IR Inten    --     10.8915                65.7029                74.6276

                    112                    113                    114
                      A                      A                      A
 Frequencies --   3079.7539              3080.3542              3088.2937
 Red. masses --      1.0923                 1.1010                 1.1038
 Frc consts  --      6.1042                 6.1551                 6.2026
 IR Inten    --     21.2482                51.7563                53.0956

                    115                    116                    117
                      A                      A                      A
 Frequencies --   3106.8904              3116.5147              3120.8819
 Red. masses --      1.0942                 1.1024                 1.1021
 Frc consts  --      6.2230                 6.3088                 6.3243
 IR Inten    --     49.9978                38.3426                48.2318

                    118                    119                    120
                      A                      A                      A
 Frequencies --   3140.3998              3142.4904              3153.1862
 Red. masses --      1.1006                 1.1028                 1.1033
 Frc consts  --      6.3953                 6.4164                 6.4633
 IR Inten    --     25.8495                20.1212                13.1192

                    121                    122                    123
                      A                      A                      A
 Frequencies --   3158.0925              3461.9220              3545.2659
 Red. masses --      1.0873                 1.0728                 1.0745
 Frc consts  --      6.3890                 7.5751                 7.9568
 IR Inten    --      9.4174                 1.6566                 9.0009

 - Thermochemistry -
 -------------------
 Temperature   298.150 Kelvin.  Pressure   1.00000 Atm.
 Atom     1 has atomic number  6 and mass  12.00000

 Molecular mass:   242.19943 amu.
 Principal axes and moments of inertia in atomic units:
                           1         2         3
     Eigenvalues --  2951.823386292.373407771.54178
           X            0.99964   0.02314   0.01334
           Y           -0.02297   0.99965  -0.01282
           Z           -0.01364   0.01251   0.99983
 This molecule is an asymmetric top.
 Rotational symmetry number  1.
 Warning -- assumption of classical behavior for rotation
           may cause significant error
 Rotational temperatures (Kelvin)      0.02934     0.01376     0.01115
 Rotational constants (GHZ):           0.61140     0.28681     0.23222
 Zero-point vibrational energy    1028294.3 (Joules/Mol)
                                  245.76824 (Kcal/Mol)
 Warning -- explicit consideration of  29 degrees of freedom as
           vibrations may cause significant error
 Vibrational temperatures:     39.96    47.67    74.46    86.90    96.62
          (Kelvin)            123.01   146.09   168.86   224.78   272.75
                              300.46   333.46   336.70   349.33   358.00
                              394.71   408.00   438.77   469.70   485.97
                              517.72   606.58   616.37   656.18   673.12
                              696.59   727.74   794.94   856.24   906.86
                              941.98  1075.61  1114.18  1126.84  1149.31
                             1185.76  1231.38  1234.41  1276.56  1302.40
                             1340.40  1360.41  1384.16  1407.15  1429.69
                             1432.94  1453.35  1505.61  1532.71  1547.91
                             1575.43  1592.66  1623.16  1629.19  1655.31
                             1671.00  1679.41  1704.22  1712.85  1728.56
                             1735.18  1793.11  1826.88  1872.18  1879.34
                             1906.56  1929.26  1937.39  1951.23  1971.93
                             1983.22  1989.71  2000.09  2010.75  2020.42
                             2020.64  2037.58  2046.99  2058.69  2065.65
                             2076.30  2104.18  2154.70  2159.23  2176.07
                             2176.62  2179.24  2184.33  2185.10  2196.41
                             2200.04  2201.20  2202.27  2211.68  2217.75
                             2226.87  2543.31  4297.15  4336.74  4342.99
                             4346.91  4355.00  4356.70  4357.08  4366.94
                             4373.06  4376.21  4389.22  4415.97  4417.18
                             4421.73  4431.08  4431.94  4443.37  4470.12
                             4483.97  4490.25  4518.33  4521.34  4536.73
                             4543.79  4980.93  5100.85

 Zero-point correction=                           0.391657 (Hartree/Particle)
 Thermal correction to Energy=                    0.410720
 Thermal correction to Enthalpy=                  0.411664
 Thermal correction to Gibbs Free Energy=         0.343506
 Sum of electronic and zero-point Energies=           -770.685516
 Sum of electronic and thermal Energies=              -770.666452
 Sum of electronic and thermal Enthalpies=            -770.665508
 Sum of electronic and thermal Free Energies=         -770.733666

                     E (Thermal)             CV                S
                      KCal/Mol        Cal/Mol-Kelvin    Cal/Mol-Kelvin
 Total                  257.731             71.727            143.451
 Electronic               0.000              0.000              0.000
 Translational            0.889              2.981             42.355
 Rotational               0.889              2.981             33.334
 Vibrational            255.953             65.765             67.762
 Vibration     1          0.593              1.984              5.982
 Vibration     2          0.594              1.983              5.633
 Vibration     3          0.596              1.977              4.749
 Vibration     4          0.597              1.973              4.444
 Vibration     5          0.598              1.970              4.235
 Vibration     6          0.601              1.959              3.761
 Vibration     7          0.604              1.948              3.425
 Vibration     8          0.608              1.935              3.143
 Vibration     9          0.620              1.896              2.595
 Vibration    10          0.633              1.854              2.232
 Vibration    11          0.642              1.827              2.054
 Vibration    12          0.653              1.792              1.865
 Vibration    13          0.654              1.789              1.848
 Vibration    14          0.659              1.775              1.782
 Vibration    15          0.662              1.765              1.739
 Vibration    16          0.677              1.721              1.569
 Vibration    17          0.682              1.704              1.512
 Vibration    18          0.696              1.664              1.390
 Vibration    19          0.710              1.623              1.278
 Vibration    20          0.718              1.600              1.223
 Vibration    21          0.734              1.555              1.123
 Vibration    22          0.784              1.423              0.887
 Vibration    23          0.790              1.408              0.864
 Vibration    24          0.814              1.347              0.778
 Vibration    25          0.825              1.321              0.744
 Vibration    26          0.840              1.285              0.699
 Vibration    27          0.861              1.237              0.644
 Vibration    28          0.908              1.134              0.539
 Vibration    29          0.953              1.042              0.458

 Optimization completed.
    -- Stationary point found.
 Normal termination of Gaussian 16 at Fri Dec 11 13:31:52 2020.

 ----------------------------------------------------------------------
 # B3LYP/6-311++G(d,p) empiricaldispersion=gd3bj scf=xqc pop=npa geom=c
 heck
 ----------------------------------------------------------------------

 --------------------------------------
 CID_55061201_JID_7919_Energie_neutraal
 --------------------------------------
 Structure from the checkpoint file:  "JID_7919.chk"
 Charge =  0 Multiplicity = 1

 SCF Done:  E(RB3LYP) =  -771.302590100     A.U. after   15 cycles
 Normal termination of Gaussian 16 at Fri Dec 11 13:41:51 2020.

 ----------------------------------------------------------------------
 # B3LYP/6-311++G(d,p) empiricaldispersion=gd3bj scf=xqc pop=npa geom=c
 heck
 ----------------------------------------------------------------------

 ------------------------------------
 CID_55061201_JID_7919_Energie_kation
 ------------------------------------
 Structure from the checkpoint file:  "JID_7919.chk"
 Charge =  1 Multiplicity = 2

 SCF Done:  E(UB3LYP) =  -771.008867498     A.U. after   27 cycles
 Normal termination of Gaussian 16 at Fri Dec 11 14:08:12 2020.
 Gaussian 16:  ES64L-G16RevA.03 25-Dec-2016

 ----------------------------------------------------------------------
 # B3LYP/6-311++G(d,p) empiricaldispersion=gd3bj scf=xqc pop=npa geom=c
 heck
 ----------------------------------------------------------------------

 -----------------------------------
 CID_55061201_JID_7919_Energie_anion
 -----------------------------------
 Structure from the checkpoint file:  "JID_7919.chk"
 Charge = -1 Multiplicity = 2

                         Standard orientation:
 ---------------------------------------------------------------------
 Center     Atomic      Atomic             Coordinates (Angstroms)
 Number     Number       Type             X           Y           Z
 ---------------------------------------------------------------------
      1          6           0        2.134671    3.107370    1.159947
      2          6           0        2.689748    1.955819    0.316908
      3          6           0        1.604761    1.178916   -0.450658
      4          6           0        0.904503    2.046279   -1.500383
      5          7           0        2.180690    0.009032   -1.126087
      6          6           0        2.331832   -1.284608   -0.713480
      7          8           0        3.059053   -2.064322   -1.323604
      8          6           0        1.604929   -1.805128    0.543752
      9          6           0        2.493188   -1.645560    1.775190
     10          8           0        0.357444   -1.202282    0.841219
     11          6           0       -0.672874   -1.522554   -0.076916
     12          6           0       -1.942217   -0.786303    0.328737
     13          6           0       -3.175946   -1.337997   -0.409179
     14          6           0       -4.438475   -0.556361   -0.018248
     15          6           0       -4.236292    0.952441   -0.211873
     16          6           0       -2.963846    1.420462    0.509829
     17          7           0       -1.765236    0.660500    0.141300
     18          1           0        1.703120    3.898064    0.537026
     19          1           0        2.923630    3.561949    1.768690
     20          1           0        1.349351    2.750718    1.836973
     21          1           0        3.435591    2.335069   -0.396876
     22          1           0        3.219940    1.250088    0.967019
     23          1           0        0.857319    0.814844    0.253976
     24          1           0        1.629917    2.488092   -2.196849
     25          1           0        0.201381    1.446863   -2.087370
     26          1           0        0.350217    2.861550   -1.027416
     27          1           0        2.775917    0.207087   -1.925248
     28          1           0        1.462766   -2.875931    0.338579
     29          1           0        2.033204   -2.150805    2.629479
     30          1           0        3.477137   -2.082803    1.585090
     31          1           0        2.615658   -0.588361    2.028642
     32          1           0       -0.384028   -1.240323   -1.102920
     33          1           0       -0.852459   -2.609558   -0.074837
     34          1           0       -2.079845   -0.947466    1.407471
     35          1           0       -3.304477   -2.405764   -0.189630
     36          1           0       -3.009988   -1.253455   -1.494115
     37          1           0       -5.300507   -0.908879   -0.596838
     38          1           0       -4.666776   -0.755066    1.038948
     39          1           0       -4.140768    1.174950   -1.285008
     40          1           0       -5.108977    1.510094    0.151730
     41          1           0       -2.769668    2.481176    0.313667
     42          1           0       -3.097586    1.316447    1.595482
     43          1           0       -1.564114    0.830881   -0.844832
 ---------------------------------------------------------------------

 SCF Done:  E(UB3LYP) =  -771.290803800     A.U. after   33 cycles
 SCF Done:  E(UB3LYP) =  -771.290803800     a.u. after    1 cycles

 The electronic state is 2-A.
 Alpha  occ. eigenvalues --  -19.04463 -18.99812 -14.24530 -14.20156 -10.18244
 Alpha  occ. eigenvalues --  -10.14818 -10.13060 -10.11408 -10.10825 -10.09528
 Alpha  occ. eigenvalues --  -10.08596 -10.07922 -10.07525 -10.07476 -10.06969
 Alpha  occ. eigenvalues --  -10.06897 -10.06874  -0.96578  -0.94493  -0.83264
 Alpha  occ. eigenvalues --   -0.82220  -0.70602  -0.69924  -0.69268  -0.66739
 Alpha  occ. eigenvalues --   -0.63625  -0.59490  -0.56706  -0.55700  -0.54025
 Alpha  occ. eigenvalues --   -0.51242  -0.50126  -0.49249  -0.48260  -0.43064
 Alpha  occ. eigenvalues --   -0.40838  -0.39928  -0.39103  -0.37663  -0.36696
 Alpha  occ. eigenvalues --   -0.36474  -0.35779  -0.35112  -0.34553  -0.33761
 Alpha  occ. eigenvalues --   -0.32411  -0.31819  -0.31399  -0.31002  -0.29994
 Alpha  occ. eigenvalues --   -0.29194  -0.28753  -0.28278  -0.27864  -0.27628
 Alpha  occ. eigenvalues --   -0.26955  -0.25838  -0.25549  -0.24842  -0.24616
 Alpha  occ. eigenvalues --   -0.24216  -0.23422  -0.22594  -0.19519  -0.16445
 Alpha  occ. eigenvalues --   -0.15977  -0.13140   0.04038
 Alpha virt. eigenvalues --    0.05832   0.06373   0.06785   0.07577   0.07765
 Alpha virt. eigenvalues --    0.08000   0.09101   0.09291   0.09493   0.10122
 Alpha virt. eigenvalues --    0.10292   0.10663   0.10926   0.11166   0.11783

  Beta  occ. eigenvalues --  -19.04458 -18.99804 -14.24526 -14.20141 -10.18237
  Beta  occ. eigenvalues --  -10.14815 -10.13051 -10.11405 -10.10823 -10.09512
  Beta  occ. eigenvalues --  -10.08587 -10.07909 -10.07506 -10.07459 -10.06941
  Beta  occ. eigenvalues --  -10.06872 -10.06833  -0.96567  -0.94479  -0.83253
  Beta  occ. eigenvalues --   -0.82192  -0.70584  -0.69901  -0.69228  -0.66715
  Beta  occ. eigenvalues --   -0.63581  -0.59459  -0.56666  -0.55651  -0.53975
  Beta  occ. eigenvalues --   -0.51203  -0.50076  -0.49227  -0.48205  -0.43045
  Beta  occ. eigenvalues --   -0.40819  -0.39888  -0.39077  -0.37638  -0.36669
  Beta  occ. eigenvalues --   -0.36444  -0.35736  -0.35080  -0.34531  -0.33734
  Beta  occ. eigenvalues --   -0.32388  -0.31796  -0.31371  -0.30973  -0.29961
  Beta  occ. eigenvalues --   -0.29164  -0.28730  -0.28245  -0.27824  -0.27591
  Beta  occ. eigenvalues --   -0.26923  -0.25797  -0.25516  -0.24809  -0.24588
  Beta  occ. eigenvalues --   -0.24186  -0.23382  -0.22559  -0.19509  -0.16428
  Beta  occ. eigenvalues --   -0.15963  -0.13098
  Beta virt. eigenvalues --    0.05987   0.06605   0.06842   0.07227   0.08041
  Beta virt. eigenvalues --    0.08250   0.08274   0.09318   0.09625   0.09742
  Beta virt. eigenvalues --    0.10337   0.10519   0.10858   0.11235   0.11426

 Mulliken charges and spin densities:
               1          2
     1  C    0.553736  -1.193710
     2  C   -0.743991   0.824266
     3  C   -0.682688   0.061646
     4  C    0.804089  -1.513948
     5  N   -0.041108   0.108788
     6  C   -0.115044   0.056863
     7  O   -0.303326   0.004557
     8  C   -0.021817   0.311983
     9  C   -0.084657  -0.504659
    10  O    0.018858  -0.003483
    11  C    0.499759  -1.142525
    12  C   -1.367386   1.138017
    13  C    0.085484  -0.350534
    14  C    0.077296  -0.466447
    15  C    0.625746  -0.970965
    16  C   -0.367246   0.108967
    17  N    0.290884  -0.084725
    18  H   -0.121448   0.270070
    19  H   -0.237763   0.394404
    20  H   -0.084359   0.236861
    21  H   -0.071835   0.215500
    22  H    0.002079   0.131034
    23  H    0.618489  -0.300963
    24  H   -0.435919   0.577806
    25  H   -0.504133   0.656333
    26  H    0.136961   0.025189
    27  H    0.268343   0.041788
    28  H    0.073794   0.133545
    29  H    0.086561   0.061582
    30  H    0.149653   0.018891
    31  H    0.084978   0.057261
    32  H    0.138085   0.058406
    33  H    0.068653   0.088035
    34  H    0.016178   0.167652
    35  H   -0.111984   0.249080
    36  H   -0.172466   0.329197
    37  H   -0.361570   0.545228
    38  H    0.105252   0.010061
    39  H   -0.217004   0.347736
    40  H   -0.362358   0.532924
    41  H   -0.234340   0.413389
    42  H    0.023818   0.105362
    43  H    0.913747  -0.750465
 Sum of Mulliken charges =  -1.00000   1.00000

 Dipole moment (field-independent basis, Debye):
    X=              2.6389    Y=             -3.3186    Z=              3.3776  Tot=              5.4208
 Quadrupole moment (field-independent basis, Debye-Ang):
   XX=           -196.7969   YY=           -167.8260   ZZ=           -148.1043
   XY=              1.8015   XZ=             -3.3609   YZ=             -3.8558

 Summary of Natural Population Analysis:

                                       Natural Population
                Natural  -----------------------------------------------
    Atom  No    Charge         Core      Valence    Rydberg      Total
 -----------------------------------------------------------------------
      C    1   -0.28784      0.99966     2.28317    0.00500     3.28784
      C    2   -0.18941      0.99962     2.18158    0.00821     3.18941
      C    3   -0.03261      0.99957     2.02102    0.01202     3.03261
      C    4   -0.28664      0.99964     2.28021    0.00678     3.28664
      N    5   -0.31495      0.99966     2.80433    0.01096     3.81495
      C    6    0.33363      0.99964     1.64380    0.02292     2.66637
      O    7   -0.33022      0.99988     3.32447    0.00587     4.33022
      C    8    0.03178      0.99953     1.95658    0.01211     2.96822
      C    9   -0.28656      0.99963     2.28213    0.00480     3.28656
      O   10   -0.29950      0.99987     3.29037    0.00925     4.29950
      C   11   -0.00957      0.99953     1.99772    0.01232     3.00957
      C   12   -0.01860      0.99958     2.00678    0.01223     3.01860
      C   13   -0.19705      0.99961     2.18855    0.00890     3.19705
      C   14   -0.18945      0.99963     2.18087    0.00895     3.18945
      C   15   -0.19860      0.99963     2.19091    0.00806     3.19860
      C   16   -0.08605      0.99963     2.07471    0.01172     3.08605
      N   17   -0.34015      0.99975     2.82857    0.01183     3.84015
      H   18    0.09960      0.00000     0.39928    0.00113     0.40040
      H   19    0.09897      0.00000     0.40015    0.00089     0.40103
      H   20    0.09994      0.00000     0.39893    0.00113     0.40006
      H   21    0.09288      0.00000     0.40591    0.00120     0.40712
      H   22    0.09550      0.00000     0.40326    0.00124     0.40450
      H   23    0.12154      0.00000     0.37402    0.00444     0.37846
      H   24    0.09634      0.00000     0.40227    0.00139     0.40366
      H   25    0.10107      0.00000     0.39731    0.00162     0.39893
      H   26    0.10679      0.00000     0.39196    0.00124     0.39321
      H   27    0.19065      0.00000     0.30696    0.00238     0.30935
      H   28    0.09192      0.00000     0.40598    0.00210     0.40808
      H   29    0.10241      0.00000     0.39648    0.00111     0.39759
      H   30    0.10492      0.00000     0.39418    0.00089     0.39508
      H   31    0.10207      0.00000     0.39662    0.00131     0.39793
      H   32    0.08336      0.00000     0.41474    0.00190     0.41664
      H   33    0.08407      0.00000     0.41470    0.00123     0.41593
      H   34    0.09325      0.00000     0.40470    0.00205     0.40675
      H   35    0.09903      0.00000     0.39992    0.00105     0.40097
      H   36    0.09588      0.00000     0.40263    0.00149     0.40412
      H   37    0.10114      0.00000     0.39750    0.00136     0.39886
      H   38    0.09128      0.00000     0.40751    0.00121     0.40872
      H   39    0.09525      0.00000     0.40288    0.00187     0.40475
      H   40    0.09930      0.00000     0.39942    0.00128     0.40070
      H   41    0.09729      0.00000     0.40166    0.00105     0.40271
      H   42    0.08747      0.00000     0.41123    0.00130     0.41253
      H   43    0.16985      0.00000     0.32680    0.00335     0.33015
 =======================================================================
   * Total *   -0.00000     16.99406    49.79279    0.21316    67.00000

 Normal termination of Gaussian 16 at Fri Dec 11 14:38:54 2020.
