 Gaussian 16, Revision A.03,

 -----------------------------------------------------------
 # opt freq B3LYP/6-31G(d) empiricaldispersion=gd3bj scf=xqc
 -----------------------------------------------------------

 -------------------------------
 CID_127018011_JID_4237_neutraal
 -------------------------------
 Symbolic Z-matrix:
 Charge =  0 Multiplicity = 1

 SCF Done:  E(RB3LYP) =  -983.456892255     A.U. after   14 cycles
 SCF Done:  E(RB3LYP) =  -983.461295407     A.U. after   13 cycles
 SCF Done:  E(RB3LYP) =  -983.461985824     A.U. after   12 cycles
 SCF Done:  E(RB3LYP) =  -983.462173000     A.U. after   12 cycles
 SCF Done:  E(RB3LYP) =  -983.462272309     A.U. after   11 cycles
 SCF Done:  E(RB3LYP) =  -983.462352408     A.U. after   10 cycles
 SCF Done:  E(RB3LYP) =  -983.462429240     A.U. after   11 cycles
 SCF Done:  E(RB3LYP) =  -983.462460913     A.U. after   10 cycles
 SCF Done:  E(RB3LYP) =  -983.462481052     A.U. after   11 cycles
 SCF Done:  E(RB3LYP) =  -983.462502506     A.U. after   11 cycles
 SCF Done:  E(RB3LYP) =  -983.462541843     A.U. after    9 cycles
 SCF Done:  E(RB3LYP) =  -983.462543083     A.U. after    9 cycles
 SCF Done:  E(RB3LYP) =  -983.462543450     A.U. after    9 cycles
 SCF Done:  E(RB3LYP) =  -983.462543500     A.U. after    8 cycles
 SCF Done:  E(RB3LYP) =  -983.462543518     A.U. after    7 cycles
 Optimization completed.
    -- Stationary point found.
 Normal termination of Gaussian 16 at Thu Dec 10 09:23:16 2020.

 --------------------------------------------------------------------
 #N Geom=AllCheck Guess=TCheck SCRF=Check GenChk RB3LYP/6-31G(d) Freq
 --------------------------------------------------------------------

 Structure from the checkpoint file:  "JID_4237.chk"
 -------------------------------
 CID_127018011_JID_4237_neutraal
 -------------------------------
 Charge =  0 Multiplicity = 1

 SCF Done:  E(RB3LYP) =  -983.462543518     A.U. after    1 cycles

  Exact polarizability: 175.562   3.219 136.649   3.066  -8.245  69.124
 Approx polarizability: 247.039  -2.176 230.224   8.619 -20.549 108.035

                      1                      2                      3
                      A                      A                      A
 Frequencies --     18.7570                33.1992                52.1779
 Red. masses --      5.3852                 5.5361                 3.2910
 Frc consts  --      0.0011                 0.0036                 0.0053
 IR Inten    --      0.0408                 0.3334                 0.5869

                      4                      5                      6
                      A                      A                      A
 Frequencies --     81.5999               107.5161               128.6342
 Red. masses --      3.7844                 4.0424                 4.0551
 Frc consts  --      0.0148                 0.0275                 0.0395
 IR Inten    --      4.6285                 2.4004                 0.3726

                      7                      8                      9
                      A                      A                      A
 Frequencies --    189.7565               213.1987               228.2874
 Red. masses --      1.8940                 7.1070                 2.9754
 Frc consts  --      0.0402                 0.1903                 0.0914
 IR Inten    --      0.3866                 2.0288                 8.2106

                     10                     11                     12
                      A                      A                      A
 Frequencies --    249.5658               262.2612               386.3471
 Red. masses --      1.5724                 9.7959                 3.5390
 Frc consts  --      0.0577                 0.3970                 0.3112
 IR Inten    --      1.0737                 0.8170                 4.3860

                     13                     14                     15
                      A                      A                      A
 Frequencies --    396.5600               447.2508               507.0094
 Red. masses --      3.0881                 1.3494                 4.1920
 Frc consts  --      0.2861                 0.1590                 0.6349
 IR Inten    --      5.8555                41.5802                 6.6814

                     16                     17                     18
                      A                      A                      A
 Frequencies --    569.4104               610.8859               633.5087
 Red. masses --      2.5735                11.0620                 4.1530
 Frc consts  --      0.4916                 2.4322                 0.9820
 IR Inten    --     40.9020                 3.3903                 5.4462

                     19                     20                     21
                      A                      A                      A
 Frequencies --    649.4012               666.1105               682.6251
 Red. masses --      3.6894                 6.0246                 3.9502
 Frc consts  --      0.9167                 1.5750                 1.0845
 IR Inten    --      3.8261                 5.3697                22.1919

                     22                     23                     24
                      A                      A                      A
 Frequencies --    700.2569               726.9965               744.8835
 Red. masses --      9.5963                 1.3307                 5.6059
 Frc consts  --      2.7725                 0.4144                 1.8326
 IR Inten    --     18.2199                22.3932                 6.8210

                     25                     26                     27
                      A                      A                      A
 Frequencies --    806.4170               843.3353               863.2735
 Red. masses --      1.1609                 1.2968                 5.9351
 Frc consts  --      0.4448                 0.5434                 2.6060
 IR Inten    --      1.4725                 5.4535                 9.9073

                     28                     29                     30
                      A                      A                      A
 Frequencies --    905.6631               925.2518               953.3225
 Red. masses --      6.6789                 1.4075                 5.0128
 Frc consts  --      3.2277                 0.7099                 2.6842
 IR Inten    --      9.5449                 3.2538                 4.2287

                     31                     32                     33
                      A                      A                      A
 Frequencies --    979.8236              1029.3506              1082.6493
 Red. masses --      2.3425                 1.6760                 2.3603
 Frc consts  --      1.3250                 1.0463                 1.6300
 IR Inten    --     11.1279                 0.0408                 9.2577

                     34                     35                     36
                      A                      A                      A
 Frequencies --   1109.8362              1115.9553              1120.7658
 Red. masses --      3.2210                 1.7679                 1.4544
 Frc consts  --      2.3376                 1.2972                 1.0763
 IR Inten    --      0.4421                 1.9839                18.6696

                     37                     38                     39
                      A                      A                      A
 Frequencies --   1180.9450              1203.2891              1221.1852
 Red. masses --      2.1339                 2.7162                 2.9218
 Frc consts  --      1.7534                 2.3172                 2.5672
 IR Inten    --     50.3202                22.7133                38.3591

                     40                     41                     42
                      A                      A                      A
 Frequencies --   1248.5316              1279.3943              1294.5075
 Red. masses --      1.0727                 4.3275                 1.7531
 Frc consts  --      0.9852                 4.1735                 1.7309
 IR Inten    --      0.5308                80.5695                 9.4774

                     43                     44                     45
                      A                      A                      A
 Frequencies --   1313.1163              1320.5422              1377.0504
 Red. masses --      1.5098                 2.0162                 1.6894
 Frc consts  --      1.5338                 2.0715                 1.8875
 IR Inten    --      2.4297                25.8557                31.6418

                     46                     47                     48
                      A                      A                      A
 Frequencies --   1405.1923              1419.9688              1442.5953
 Red. masses --      1.3886                 2.6724                 1.2607
 Frc consts  --      1.6154                 3.1747                 1.5458
 IR Inten    --     30.3269                 7.2824                11.2757

                     49                     50                     51
                      A                      A                      A
 Frequencies --   1472.5352              1513.8760              1518.8050
 Red. masses --      2.3092                 1.8055                 1.3258
 Frc consts  --      2.9502                 2.4380                 1.8019
 IR Inten    --     29.9645                24.0423                18.4507

                     52                     53                     54
                      A                      A                      A
 Frequencies --   1521.1233              1531.1103              1537.1944
 Red. masses --      1.3557                 1.6118                 1.1457
 Frc consts  --      1.8482                 2.2262                 1.5950
 IR Inten    --      3.3889                23.1670                20.7564

                     55                     56                     57
                      A                      A                      A
 Frequencies --   1548.4258              1562.1201              1578.9829
 Red. masses --      1.5548                 2.9180                 4.4607
 Frc consts  --      2.1963                 4.1953                 6.5525
 IR Inten    --     59.6051               205.9818                14.8905

                     58                     59                     60
                      A                      A                      A
 Frequencies --   1624.2984              3017.5567              3033.7714
 Red. masses --      9.0450                 1.0572                 1.1046
 Frc consts  --     14.0601                 5.6716                 5.9898
 IR Inten    --    618.5691                33.7370                20.0126

                     61                     62                     63
                      A                      A                      A
 Frequencies --   3061.8903              3080.1212              3116.6513
 Red. masses --      1.0351                 1.0601                 1.1055
 Frc consts  --      5.7174                 5.9258                 6.3267
 IR Inten    --     14.6696                22.2003                 1.4773

                     64                     65                     66
                      A                      A                      A
 Frequencies --   3136.1794              3143.5669              3218.0053
 Red. masses --      1.1026                 1.1052                 1.0922
 Frc consts  --      6.3894                 6.4348                 6.6639
 IR Inten    --     28.9647                29.9896                18.4034

                     67                     68                     69
                      A                      A                      A
 Frequencies --   3266.9318              3290.6839              3573.2532
 Red. masses --      1.0909                 1.1050                 1.0786
 Frc consts  --      6.8601                 7.0501                 8.1141
 IR Inten    --      5.7720                 4.4487               213.2148

 - Thermochemistry -
 -------------------
 Temperature   298.150 Kelvin.  Pressure   1.00000 Atm.
 Atom     1 has atomic number  6 and mass  12.00000

 Molecular mass:   209.07352 amu.
 Principal axes and moments of inertia in atomic units:
                           1         2         3
     Eigenvalues --  1239.046686512.942617573.17189
           X            0.99995  -0.00915  -0.00322
           Y            0.00917   0.99994   0.00659
           Z            0.00316  -0.00662   0.99997
 This molecule is an asymmetric top.
 Rotational symmetry number  1.
 Warning -- assumption of classical behavior for rotation
           may cause significant error
 Rotational temperatures (Kelvin)      0.06990     0.01330     0.01144
 Rotational constants (GHZ):           1.45656     0.27710     0.23831
 Zero-point vibrational energy     520825.6 (Joules/Mol)
                                  124.48031 (Kcal/Mol)
 Warning -- explicit consideration of  17 degrees of freedom as
           vibrations may cause significant error
 Vibrational temperatures:     26.99    47.77    75.07   117.40   154.69
          (Kelvin)            185.08   273.02   306.75   328.45   359.07
                              377.34   555.87   570.56   643.49   729.47
                              819.25   878.93   911.48   934.34   958.38
                              982.15  1007.51  1045.99  1071.72  1160.25
                             1213.37  1242.06  1303.05  1331.23  1371.62
                             1409.75  1481.01  1557.69  1596.81  1605.61
                             1612.53  1699.12  1731.26  1757.01  1796.36
                             1840.76  1862.51  1889.28  1899.97  1981.27
                             2021.76  2043.02  2075.57  2118.65  2178.13
                             2185.22  2188.56  2202.93  2211.68  2227.84
                             2247.54  2271.80  2337.00  4341.59  4364.92
                             4405.38  4431.61  4484.17  4512.26  4522.89
                             4629.99  4700.39  4734.56  5141.11

 Zero-point correction=                           0.198372 (Hartree/Particle)
 Thermal correction to Energy=                    0.211558
 Thermal correction to Enthalpy=                  0.212502
 Thermal correction to Gibbs Free Energy=         0.155677
 Sum of electronic and zero-point Energies=           -983.264172
 Sum of electronic and thermal Energies=              -983.250985
 Sum of electronic and thermal Enthalpies=            -983.250041
 Sum of electronic and thermal Free Energies=         -983.306867

                     E (Thermal)             CV                S
                      KCal/Mol        Cal/Mol-Kelvin    Cal/Mol-Kelvin
 Total                  132.755             47.848            119.600
 Electronic               0.000              0.000              0.000
 Translational            0.889              2.981             41.916
 Rotational               0.889              2.981             32.480
 Vibrational            130.977             41.887             45.204
 Vibration     1          0.593              1.986              6.762
 Vibration     2          0.594              1.983              5.628
 Vibration     3          0.596              1.977              4.733
 Vibration     4          0.600              1.962              3.852
 Vibration     5          0.606              1.943              3.313
 Vibration     6          0.611              1.925              2.966
 Vibration     7          0.633              1.854              2.230
 Vibration     8          0.644              1.821              2.016
 Vibration     9          0.651              1.798              1.892
 Vibration    10          0.662              1.763              1.734
 Vibration    11          0.670              1.742              1.647
 Vibration    12          0.755              1.499              1.014
 Vibration    13          0.763              1.478              0.975
 Vibration    14          0.806              1.367              0.804
 Vibration    15          0.862              1.234              0.641
 Vibration    16          0.925              1.097              0.505
 Vibration    17          0.970              1.009              0.431

                           ! Non-Optimized Parameters !
 Normal termination of Gaussian 16 at Thu Dec 10 09:29:12 2020.

 ----------------------------------------------------------------------
 # B3LYP/6-311++G(d,p) empiricaldispersion=gd3bj scf=xqc pop=npa geom=c
 heck
 ----------------------------------------------------------------------

 ---------------------------------------
 CID_127018011_JID_4237_Energie_neutraal
 ---------------------------------------
 Structure from the checkpoint file:  "JID_4237.chk"
 Charge =  0 Multiplicity = 1

 SCF Done:  E(RB3LYP) =  -983.648298290     A.U. after   16 cycles
 Normal termination of Gaussian 16 at Thu Dec 10 09:32:21 2020.

 ----------------------------------------------------------------------
 # B3LYP/6-311++G(d,p) empiricaldispersion=gd3bj scf=xqc pop=npa geom=c
 heck
 ----------------------------------------------------------------------

 -------------------------------------
 CID_127018011_JID_4237_Energie_kation
 -------------------------------------
 Structure from the checkpoint file:  "JID_4237.chk"
 Charge =  1 Multiplicity = 2

 SCF Done:  E(UB3LYP) =  -983.353585122     A.U. after   24 cycles
 Normal termination of Gaussian 16 at Thu Dec 10 09:38:40 2020.
 Gaussian 16:  ES64L-G16RevA.03 25-Dec-2016

 ----------------------------------------------------------------------
 # B3LYP/6-311++G(d,p) empiricaldispersion=gd3bj scf=xqc pop=npa geom=c
 heck
 ----------------------------------------------------------------------

 ------------------------------------
 CID_127018011_JID_4237_Energie_anion
 ------------------------------------
 Structure from the checkpoint file:  "JID_4237.chk"
 Charge = -1 Multiplicity = 2

                         Standard orientation:
 ---------------------------------------------------------------------
 Center     Atomic      Atomic             Coordinates (Angstroms)
 Number     Number       Type             X           Y           Z
 ---------------------------------------------------------------------
      1          6           0       -3.432889    2.182038    0.829528
      2          6           0       -3.248784    1.433521   -0.490773
      3          7           0       -2.857485    0.041330   -0.293669
      4          6           0       -3.714895   -1.032480   -0.114216
      5          6           0       -2.911881   -2.115940    0.130545
      6          7           0       -1.586389   -1.737640    0.114372
      7          6           0       -1.588830   -0.441764   -0.135863
      8          6           0       -0.348426    0.394320   -0.239586
      9          7           0        0.786512   -0.488578   -0.070999
     10          6           0        2.042684   -0.014204   -0.045564
     11          7           0        2.349681    1.258728   -0.214184
     12          6           0        3.710324    1.383670   -0.134583
     13          7           0        4.492111    0.354881    0.076709
     14         16           0        3.478239   -1.008974    0.207220
     15          1           0       -4.203382    1.702115    1.441041
     16          1           0       -3.734283    3.217502    0.639675
     17          1           0       -2.501517    2.195480    1.404459
     18          1           0       -4.175558    1.435517   -1.072126
     19          1           0       -2.483708    1.915258   -1.107340
     20          1           0       -4.785734   -0.915457   -0.187366
     21          1           0       -3.203644   -3.141285    0.308769
     22          1           0       -0.289269    0.906186   -1.211168
     23          1           0       -0.329507    1.185936    0.523686
     24          1           0        0.561782   -1.460236    0.111806
     25          1           0        4.158161    2.366552   -0.249482
 ---------------------------------------------------------------------

 SCF Done:  E(UB3LYP) =  -983.640995102     A.U. after   33 cycles
 SCF Done:  E(UB3LYP) =  -983.640995103     a.u. after    1 cycles

 The electronic state is 2-A.
 Alpha  occ. eigenvalues --  -88.80708 -14.27977 -14.26328 -14.23799 -14.22100
 Alpha  occ. eigenvalues --  -14.20833 -10.18937 -10.14732 -10.14293 -10.13751
 Alpha  occ. eigenvalues --  -10.12135 -10.10415 -10.09440 -10.06860  -7.89197
 Alpha  occ. eigenvalues --   -5.85589  -5.85164  -5.84654  -0.93416  -0.92370
 Alpha  occ. eigenvalues --   -0.86657  -0.80093  -0.77680  -0.70213  -0.67202
 Alpha  occ. eigenvalues --   -0.65835  -0.60663  -0.55742  -0.54738  -0.51852
 Alpha  occ. eigenvalues --   -0.48580  -0.47227  -0.44414  -0.41970  -0.39678
 Alpha  occ. eigenvalues --   -0.39215  -0.37099  -0.36794  -0.36133  -0.34346
 Alpha  occ. eigenvalues --   -0.33535  -0.32802  -0.31371  -0.29449  -0.29342
 Alpha  occ. eigenvalues --   -0.28374  -0.26515  -0.24807  -0.23116  -0.20172
 Alpha  occ. eigenvalues --   -0.19797  -0.19373  -0.18560  -0.14472  -0.13872
 Alpha  occ. eigenvalues --    0.04175
 Alpha virt. eigenvalues --    0.05700   0.06584   0.07226   0.07752   0.08146
 Alpha virt. eigenvalues --    0.08735   0.09430   0.09777   0.10093   0.11316
 Alpha virt. eigenvalues --    0.11652   0.12124   0.12526   0.12816   0.13209

  Beta  occ. eigenvalues --  -88.80703 -14.27979 -14.26316 -14.23735 -14.22117
  Beta  occ. eigenvalues --  -14.20829 -10.18865 -10.14699 -10.14280 -10.13735
  Beta  occ. eigenvalues --  -10.12088 -10.10377 -10.09437 -10.06800  -7.89193
  Beta  occ. eigenvalues --   -5.85588  -5.85163  -5.84637  -0.93394  -0.92311
  Beta  occ. eigenvalues --   -0.86604  -0.80068  -0.77627  -0.70159  -0.67135
  Beta  occ. eigenvalues --   -0.65782  -0.60617  -0.55630  -0.54669  -0.51814
  Beta  occ. eigenvalues --   -0.48520  -0.47167  -0.44345  -0.41909  -0.39601
  Beta  occ. eigenvalues --   -0.39171  -0.37052  -0.36740  -0.36044  -0.34248
  Beta  occ. eigenvalues --   -0.33446  -0.32741  -0.31341  -0.29371  -0.29286
  Beta  occ. eigenvalues --   -0.28286  -0.26451  -0.24578  -0.23053  -0.20084
  Beta  occ. eigenvalues --   -0.19785  -0.19355  -0.18520  -0.14314  -0.13786
  Beta virt. eigenvalues --    0.06329   0.06601   0.06973   0.07655   0.08146
  Beta virt. eigenvalues --    0.08873   0.09055   0.09854   0.09991   0.10725
  Beta virt. eigenvalues --    0.11760   0.11965   0.12509   0.12671   0.13029

 Mulliken charges and spin densities:
               1          2
     1  C    2.182456  -2.613195
     2  C   -0.877998   0.739196
     3  N    0.064328   0.042218
     4  C    0.104754  -0.101926
     5  C    0.427454  -0.505279
     6  N   -0.204478   0.064934
     7  C   -1.409785   1.088326
     8  C    1.882115  -2.562766
     9  N    0.010709   0.002292
    10  C    0.134331  -0.160467
    11  N   -0.124953  -0.014185
    12  C   -0.155431   0.038620
    13  N   -0.236539   0.010286
    14  S    0.064375  -0.007347
    15  H   -0.188438   0.344429
    16  H   -0.678674   0.830910
    17  H   -0.313078   0.452184
    18  H   -1.067338   1.281733
    19  H   -0.263281   0.385034
    20  H   -1.042497   1.234289
    21  H   -0.016053   0.165722
    22  H    0.065828   0.178867
    23  H    0.172483   0.063860
    24  H    0.356031  -0.012183
    25  H    0.113679   0.054447
 Sum of Mulliken charges =  -1.00000   1.00000

 Dipole moment (field-independent basis, Debye):
    X=              9.5220    Y=             -5.0913    Z=              0.8893  Tot=             10.8342
 Quadrupole moment (field-independent basis, Debye-Ang):
   XX=           -212.5109   YY=           -132.5631   ZZ=           -115.6421
   XY=             20.6208   XZ=             -5.8227   YZ=              0.0938

 Summary of Natural Population Analysis:

                                       Natural Population
                Natural  -----------------------------------------------
    Atom  No    Charge         Core      Valence    Rydberg      Total
 -----------------------------------------------------------------------
      C    1   -0.28768      0.99966     2.28239    0.00563     3.28768
      C    2   -0.08469      0.99962     2.07356    0.01152     3.08469
      N    3   -0.20457      0.99962     2.69276    0.01219     3.70457
      C    4   -0.02418      0.99954     2.01273    0.01190     3.02418
      C    5   -0.03587      0.99959     2.02234    0.01394     3.03587
      N    6   -0.28010      0.99968     2.77103    0.00940     3.78010
      C    7    0.19297      0.99959     1.79016    0.01727     2.80703
      C    8   -0.10469      0.99959     2.09431    0.01080     3.10469
      N    9   -0.30422      0.99963     2.79489    0.00970     3.80422
      C   10    0.15228      0.99962     1.82910    0.01899     2.84772
      N   11   -0.29779      0.99965     2.78645    0.01169     3.79779
      C   12    0.12348      0.99969     1.85775    0.01907     2.87652
      N   13   -0.31878      0.99974     2.80623    0.01281     3.81878
      S   14    0.22911      4.99949     2.74610    0.02530     7.77089
      H   15    0.10267      0.00000     0.39556    0.00177     0.39733
      H   16    0.10888      0.00000     0.38765    0.00347     0.39112
      H   17    0.09733      0.00000     0.40136    0.00131     0.40267
      H   18    0.10914      0.00000     0.38401    0.00685     0.39086
      H   19    0.10001      0.00000     0.39806    0.00193     0.39999
      H   20    0.10994      0.00000     0.38794    0.00212     0.39006
      H   21    0.09639      0.00000     0.40276    0.00085     0.40361
      H   22    0.10655      0.00000     0.39168    0.00177     0.39345
      H   23    0.10977      0.00000     0.38836    0.00188     0.39023
      H   24    0.21306      0.00000     0.28438    0.00256     0.28694
      H   25    0.09099      0.00000     0.40774    0.00127     0.40901
 =======================================================================
   * Total *    0.00000     17.99472    36.78930    0.21598    55.00000

 Normal termination of Gaussian 16 at Thu Dec 10 09:47:22 2020.
