 Gaussian 16, Revision A.03,

 -----------------------------------------------------------
 # opt freq B3LYP/6-31G(d) empiricaldispersion=gd3bj scf=xqc
 -----------------------------------------------------------

 ------------------------------
 CID_20786181_JID_3835_neutraal
 ------------------------------
 Symbolic Z-matrix:
 Charge =  0 Multiplicity = 1

 SCF Done:  E(RB3LYP) =  -915.670484399     A.U. after   15 cycles
 SCF Done:  E(RB3LYP) =  -915.675937053     A.U. after   13 cycles
 SCF Done:  E(RB3LYP) =  -915.676989363     A.U. after   12 cycles
 SCF Done:  E(RB3LYP) =  -915.677254913     A.U. after   12 cycles
 SCF Done:  E(RB3LYP) =  -915.677398831     A.U. after   11 cycles
 SCF Done:  E(RB3LYP) =  -915.677494224     A.U. after   12 cycles
 SCF Done:  E(RB3LYP) =  -915.677662805     A.U. after   12 cycles
 SCF Done:  E(RB3LYP) =  -915.676001586     A.U. after   15 cycles
 SCF Done:  E(RB3LYP) =  -915.677609474     A.U. after   13 cycles
 SCF Done:  E(RB3LYP) =  -915.677802384     A.U. after   10 cycles
 SCF Done:  E(RB3LYP) =  -915.679952474     A.U. after   11 cycles
 SCF Done:  E(RB3LYP) =  -915.679947091     A.U. after   10 cycles
 SCF Done:  E(RB3LYP) =  -915.679953483     A.U. after   10 cycles
 SCF Done:  E(RB3LYP) =  -915.679953513     A.U. after    7 cycles
 SCF Done:  E(RB3LYP) =  -915.679953531     A.U. after    7 cycles
 Optimization completed.
    -- Stationary point found.
 Normal termination of Gaussian 16 at Mon Dec 14 16:51:32 2020.

 --------------------------------------------------------------------
 #N Geom=AllCheck Guess=TCheck SCRF=Check GenChk RB3LYP/6-31G(d) Freq
 --------------------------------------------------------------------

 Structure from the checkpoint file:  "JID_3835.chk"
 ------------------------------
 CID_20786181_JID_3835_neutraal
 ------------------------------
 Charge =  0 Multiplicity = 1

 SCF Done:  E(RB3LYP) =  -915.679953531     A.U. after    1 cycles

  Exact polarizability: 150.711   9.994 136.019 -15.774   6.209  98.874
 Approx polarizability: 207.155  15.319 213.305 -37.634  16.723 160.663

                      1                      2                      3
                      A                      A                      A
 Frequencies --     21.0929                44.3942                67.0820
 Red. masses --      6.7701                 3.7104                 4.1103
 Frc consts  --      0.0018                 0.0043                 0.0109
 IR Inten    --      0.9237                 0.0529                 2.8456

                      4                      5                      6
                      A                      A                      A
 Frequencies --     82.7830               122.1947               193.2534
 Red. masses --      3.4908                 3.6112                 4.3756
 Frc consts  --      0.0141                 0.0318                 0.0963
 IR Inten    --      0.7544                 0.2414                 3.1730

                      7                      8                      9
                      A                      A                      A
 Frequencies --    228.3261               237.3266               254.1566
 Red. masses --      1.3563                 2.0050                 2.7417
 Frc consts  --      0.0417                 0.0665                 0.1043
 IR Inten    --      0.9430                 2.2321                 0.7577

                     10                     11                     12
                      A                      A                      A
 Frequencies --    280.3273               299.9371               328.8105
 Red. masses --      1.1807                 1.9865                 1.2051
 Frc consts  --      0.0547                 0.1053                 0.0768
 IR Inten    --      0.7145                 1.8452                 4.9321

                     13                     14                     15
                      A                      A                      A
 Frequencies --    342.4593               360.0069               379.8242
 Red. masses --      1.5127                 2.2092                 2.1670
 Frc consts  --      0.1045                 0.1687                 0.1842
 IR Inten    --     36.6413                18.5731                 2.0198

                     16                     17                     18
                      A                      A                      A
 Frequencies --    401.1110               424.5815               452.3215
 Red. masses --      2.2152                 2.3541                 2.3337
 Frc consts  --      0.2100                 0.2500                 0.2813
 IR Inten    --     68.1495                 3.6711                 9.8443

                     19                     20                     21
                      A                      A                      A
 Frequencies --    474.8614               522.0766               537.6475
 Red. masses --      2.1168                 3.2047                 2.5787
 Frc consts  --      0.2812                 0.5146                 0.4392
 IR Inten    --      3.6241                18.5720                 7.7627

                     22                     23                     24
                      A                      A                      A
 Frequencies --    578.3611               609.0753               687.9674
 Red. masses --      6.2624                 2.9374                 1.5831
 Frc consts  --      1.2342                 0.6420                 0.4415
 IR Inten    --      2.7245                23.7056                 3.0176

                     25                     26                     27
                      A                      A                      A
 Frequencies --    697.0658               725.6540               753.5278
 Red. masses --      2.5667                 4.0762                 2.6293
 Frc consts  --      0.7348                 1.2646                 0.8796
 IR Inten    --     59.4827                 2.6080                23.9471

                     28                     29                     30
                      A                      A                      A
 Frequencies --    778.5346               863.5070               874.6098
 Red. masses --      3.6637                 2.0429                 4.1551
 Frc consts  --      1.3084                 0.8975                 1.8727
 IR Inten    --     15.7196                 7.4927                 4.7689

                     31                     32                     33
                      A                      A                      A
 Frequencies --    887.1135               891.6833               923.7816
 Red. masses --      1.3139                 2.8201                 1.7210
 Frc consts  --      0.6092                 1.3211                 0.8653
 IR Inten    --      1.8342                 8.0592                 0.2313

                     34                     35                     36
                      A                      A                      A
 Frequencies --    943.3155               974.4253               984.4680
 Red. masses --      1.7252                 1.2054                 1.8956
 Frc consts  --      0.9045                 0.6743                 1.0824
 IR Inten    --      0.4986                 0.3173                 7.5338

                     37                     38                     39
                      A                      A                      A
 Frequencies --   1051.9203              1062.3301              1073.2212
 Red. masses --      1.6913                 1.4978                 2.4828
 Frc consts  --      1.1027                 0.9959                 1.6849
 IR Inten    --      2.8497                 1.4620                 1.9913

                     40                     41                     42
                      A                      A                      A
 Frequencies --   1086.9691              1114.1705              1158.7523
 Red. masses --      1.6890                 1.6797                 2.3419
 Frc consts  --      1.1758                 1.2285                 1.8527
 IR Inten    --     19.5926                 1.1317                49.9184

                     43                     44                     45
                      A                      A                      A
 Frequencies --   1189.7879              1250.2299              1253.1447
 Red. masses --      2.3185                 2.2100                 1.7024
 Frc consts  --      1.9337                 2.0353                 1.5752
 IR Inten    --    111.4092                12.1200                26.5476

                     46                     47                     48
                      A                      A                      A
 Frequencies --   1272.9317              1275.2471              1298.6458
 Red. masses --      2.6922                 2.8048                 1.2269
 Frc consts  --      2.5702                 2.6875                 1.2191
 IR Inten    --     53.9972                13.6805                43.9495

                     49                     50                     51
                      A                      A                      A
 Frequencies --   1333.8382              1347.6319              1398.5141
 Red. masses --      1.6405                 1.9797                 1.3139
 Frc consts  --      1.7196                 2.1183                 1.5141
 IR Inten    --     17.6004                25.8610                14.1492

                     52                     53                     54
                      A                      A                      A
 Frequencies --   1413.6188              1423.0014              1424.1247
 Red. masses --      1.2162                 1.2589                 1.2593
 Frc consts  --      1.4319                 1.5020                 1.5048
 IR Inten    --      8.4072                 9.6430                 9.4615

                     55                     56                     57
                      A                      A                      A
 Frequencies --   1451.7130              1500.3149              1506.3179
 Red. masses --      1.2299                 1.1086                 1.0680
 Frc consts  --      1.5271                 1.4702                 1.4278
 IR Inten    --     20.9510                21.0956                 1.8128

                     58                     59                     60
                      A                      A                      A
 Frequencies --   1510.3014              1519.9678              1524.6834
 Red. masses --      1.0957                 1.0472                 1.1349
 Frc consts  --      1.4725                 1.4254                 1.5544
 IR Inten    --      6.5644                 0.1945                 5.9331

                     61                     62                     63
                      A                      A                      A
 Frequencies --   1525.6043              1532.5858              1539.6613
 Red. masses --      1.0601                 1.7271                 1.1039
 Frc consts  --      1.4537                 2.3901                 1.5419
 IR Inten    --      3.3265                 1.6508                 8.9959

                     64                     65                     66
                      A                      A                      A
 Frequencies --   1550.4426              1557.6522              1572.4801
 Red. masses --      1.1845                 1.0804                 2.6934
 Frc consts  --      1.6776                 1.5445                 3.9240
 IR Inten    --     10.0007                 7.5890                60.8718

                     67                     68                     69
                      A                      A                      A
 Frequencies --   1613.1270              2994.3894              3041.0738
 Red. masses --      5.8120                 1.0741                 1.0359
 Frc consts  --      8.9107                 5.6744                 5.6443
 IR Inten    --    342.1424                70.9671                22.9396

                     70                     71                     72
                      A                      A                      A
 Frequencies --   3044.8204              3051.7117              3052.4723
 Red. masses --      1.0351                 1.0372                 1.0726
 Frc consts  --      5.6539                 5.6913                 5.8885
 IR Inten    --     29.1724                11.7754                61.5675

                     73                     74                     75
                      A                      A                      A
 Frequencies --   3091.5601              3099.0942              3110.4422
 Red. masses --      1.0889                 1.1012                 1.1007
 Frc consts  --      6.1321                 6.2313                 6.2740
 IR Inten    --     36.0802                13.9700                41.5976

                     76                     77                     78
                      A                      A                      A
 Frequencies --   3114.3765              3126.2025              3132.1215
 Red. masses --      1.1007                 1.1031                 1.1024
 Frc consts  --      6.2900                 6.3516                 6.3718
 IR Inten    --     53.4147                 7.9989                46.0194

                     79                     80                     81
                      A                      A                      A
 Frequencies --   3137.3360              3176.1080              3229.5340
 Red. masses --      1.1021                 1.0925                 1.0913
 Frc consts  --      6.3914                 6.4930                 6.7064
 IR Inten    --     14.8510                 4.3259                10.3780

                     82                     83                     84
                      A                      A                      A
 Frequencies --   3288.3469              3525.3167              3617.9050
 Red. masses --      1.0978                 1.0732                 1.0765
 Frc consts  --      6.9942                 7.8584                 8.3016
 IR Inten    --      1.7415                 1.9940                29.6582

 - Thermochemistry -
 -------------------
 Temperature   298.150 Kelvin.  Pressure   1.00000 Atm.
 Atom     1 has atomic number  6 and mass  12.00000

 Molecular mass:   199.11432 amu.
 Principal axes and moments of inertia in atomic units:
                           1         2         3
     Eigenvalues --  1450.433424356.117775048.93809
           X            1.00000  -0.00101   0.00132
           Y            0.00102   0.99996  -0.00910
           Z           -0.00131   0.00910   0.99996
 This molecule is an asymmetric top.
 Rotational symmetry number  1.
 Warning -- assumption of classical behavior for rotation
           may cause significant error
 Rotational temperatures (Kelvin)      0.05972     0.01988     0.01715
 Rotational constants (GHZ):           1.24428     0.41430     0.35745
 Zero-point vibrational energy     684224.5 (Joules/Mol)
                                  163.53359 (Kcal/Mol)
 Warning -- explicit consideration of  23 degrees of freedom as
           vibrations may cause significant error
 Vibrational temperatures:     30.35    63.87    96.52   119.11   175.81
          (Kelvin)            278.05   328.51   341.46   365.67   403.33
                              431.54   473.08   492.72   517.97   546.48
                              577.11   610.88   650.79   683.22   751.15
                              773.55   832.13   876.32   989.83  1002.92
                             1044.05  1084.16  1120.14  1242.39  1258.37
                             1276.36  1282.93  1329.12  1357.22  1401.98
                             1416.43  1513.48  1528.46  1544.13  1563.91
                             1603.04  1667.19  1711.84  1798.80  1803.00
                             1831.46  1834.80  1868.46  1919.10  1938.94
                             2012.15  2033.88  2047.38  2049.00  2088.69
                             2158.62  2167.26  2172.99  2186.89  2193.68
                             2195.00  2205.05  2215.23  2230.74  2241.11
                             2262.45  2320.93  4308.26  4375.43  4380.82
                             4390.73  4391.83  4448.07  4458.91  4475.23
                             4480.89  4497.91  4506.42  4513.93  4569.71
                             4646.58  4731.20  5072.14  5205.36

 Zero-point correction=                           0.260607 (Hartree/Particle)
 Thermal correction to Energy=                    0.274913
 Thermal correction to Enthalpy=                  0.275858
 Thermal correction to Gibbs Free Energy=         0.218735
 Sum of electronic and zero-point Energies=           -915.419346
 Sum of electronic and thermal Energies=              -915.405040
 Sum of electronic and thermal Enthalpies=            -915.404096
 Sum of electronic and thermal Free Energies=         -915.461219

                     E (Thermal)             CV                S
                      KCal/Mol        Cal/Mol-Kelvin    Cal/Mol-Kelvin
 Total                  172.511             54.661            120.225
 Electronic               0.000              0.000              0.000
 Translational            0.889              2.981             41.771
 Rotational               0.889              2.981             31.834
 Vibrational            170.733             48.699             46.620
 Vibration     1          0.593              1.985              6.529
 Vibration     2          0.595              1.980              5.053
 Vibration     3          0.598              1.970              4.237
 Vibration     4          0.600              1.961              3.824
 Vibration     5          0.610              1.931              3.065
 Vibration     6          0.635              1.849              2.196
 Vibration     7          0.651              1.798              1.892
 Vibration     8          0.656              1.784              1.823
 Vibration     9          0.665              1.756              1.702
 Vibration    10          0.680              1.710              1.532
 Vibration    11          0.692              1.674              1.417
 Vibration    12          0.712              1.618              1.266
 Vibration    13          0.722              1.591              1.201
 Vibration    14          0.735              1.555              1.122
 Vibration    15          0.750              1.513              1.040
 Vibration    16          0.767              1.468              0.959
 Vibration    17          0.787              1.417              0.877
 Vibration    18          0.811              1.356              0.789
 Vibration    19          0.832              1.306              0.724
 Vibration    20          0.877              1.201              0.605
 Vibration    21          0.893              1.167              0.570
 Vibration    22          0.935              1.078              0.488
 Vibration    23          0.968              1.013              0.434

 Optimization completed.
    -- Stationary point found.
 Normal termination of Gaussian 16 at Mon Dec 14 17:00:13 2020.

 ----------------------------------------------------------------------
 # B3LYP/6-311++G(d,p) empiricaldispersion=gd3bj scf=xqc pop=npa geom=c
 heck
 ----------------------------------------------------------------------

 --------------------------------------
 CID_20786181_JID_3835_Energie_neutraal
 --------------------------------------
 Structure from the checkpoint file:  "JID_3835.chk"
 Charge =  0 Multiplicity = 1

 SCF Done:  E(RB3LYP) =  -915.855889346     A.U. after   15 cycles
 Normal termination of Gaussian 16 at Mon Dec 14 17:04:35 2020.

 ----------------------------------------------------------------------
 # B3LYP/6-311++G(d,p) empiricaldispersion=gd3bj scf=xqc pop=npa geom=c
 heck
 ----------------------------------------------------------------------

 ------------------------------------
 CID_20786181_JID_3835_Energie_kation
 ------------------------------------
 Structure from the checkpoint file:  "JID_3835.chk"
 Charge =  1 Multiplicity = 2

 SCF Done:  E(UB3LYP) =  -915.587184906     A.U. after   21 cycles
 Normal termination of Gaussian 16 at Mon Dec 14 17:13:15 2020.
 Gaussian 16:  ES64L-G16RevA.03 25-Dec-2016

 ----------------------------------------------------------------------
 # B3LYP/6-311++G(d,p) empiricaldispersion=gd3bj scf=xqc pop=npa geom=c
 heck
 ----------------------------------------------------------------------

 -----------------------------------
 CID_20786181_JID_3835_Energie_anion
 -----------------------------------
 Structure from the checkpoint file:  "JID_3835.chk"
 Charge = -1 Multiplicity = 2

                         Standard orientation:
 ---------------------------------------------------------------------
 Center     Atomic      Atomic             Coordinates (Angstroms)
 Number     Number       Type             X           Y           Z
 ---------------------------------------------------------------------
      1          6           0        3.903927   -0.153291    0.481728
      2          6           0        2.453579   -0.543044    0.155327
      3          6           0        2.267636   -0.629202   -1.374347
      4          6           0        2.142889   -1.913609    0.773128
      5          7           0        1.548721    0.415277    0.830264
      6          6           0        1.409561    1.754374    0.274658
      7          6           0        0.263615    1.953748   -0.735326
      8          7           0       -1.057175    1.714864   -0.156262
      9          6           0       -1.663043    0.493319   -0.187837
     10          7           0       -1.235537   -0.542630   -0.862316
     11          6           0       -2.103947   -1.607443   -0.720668
     12          6           0       -3.195760   -1.412885    0.062724
     13         16           0       -3.187758    0.227392    0.685979
     14          1           0        4.604860   -0.877822    0.051713
     15          1           0        4.051313   -0.117255    1.565552
     16          1           0        4.158578    0.831105    0.071967
     17          1           0        2.926332   -1.397018   -1.797583
     18          1           0        1.231884   -0.880434   -1.621111
     19          1           0        2.523293    0.318682   -1.862816
     20          1           0        2.243085   -1.872084    1.862844
     21          1           0        1.117917   -2.219958    0.530410
     22          1           0        2.824580   -2.678945    0.387524
     23          1           0        0.629424   -0.009379    0.917689
     24          1           0        1.252956    2.467594    1.099894
     25          1           0        2.349851    2.051730   -0.202537
     26          1           0        0.279084    2.985342   -1.109520
     27          1           0        0.362730    1.282476   -1.587677
     28          1           0       -1.358307    2.351149    0.568557
     29          1           0       -1.869343   -2.536131   -1.228375
     30          1           0       -3.986910   -2.101684    0.319683
 ---------------------------------------------------------------------

 SCF Done:  E(UB3LYP) =  -915.842259319     A.U. after   33 cycles
 SCF Done:  E(UB3LYP) =  -915.842259319     a.u. after    1 cycles

 The electronic state is 2-A.
 Alpha  occ. eigenvalues --  -88.77471 -14.23309 -14.19885 -14.18103 -10.16772
 Alpha  occ. eigenvalues --  -10.10482 -10.10279 -10.09513 -10.09391 -10.08108
 Alpha  occ. eigenvalues --  -10.05603 -10.05142 -10.04766  -7.86081  -5.82382
 Alpha  occ. eigenvalues --   -5.82048  -5.81619  -0.88124  -0.81746  -0.79540
 Alpha  occ. eigenvalues --   -0.69424  -0.68292  -0.64218  -0.60190  -0.58544
 Alpha  occ. eigenvalues --   -0.58013  -0.52033  -0.50495  -0.45876  -0.44705
 Alpha  occ. eigenvalues --   -0.41482  -0.38394  -0.38278  -0.35578  -0.34945
 Alpha  occ. eigenvalues --   -0.34534  -0.33483  -0.31870  -0.31043  -0.30507
 Alpha  occ. eigenvalues --   -0.28288  -0.28076  -0.27576  -0.26811  -0.26279
 Alpha  occ. eigenvalues --   -0.26188  -0.24634  -0.22489  -0.22046  -0.20795
 Alpha  occ. eigenvalues --   -0.17936  -0.17824  -0.12045  -0.09954   0.04811
 Alpha virt. eigenvalues --    0.06669   0.07360   0.08134   0.08442   0.08752
 Alpha virt. eigenvalues --    0.09504   0.09718   0.10572   0.10841   0.11231
 Alpha virt. eigenvalues --    0.11639   0.12539   0.13061   0.13334   0.13362

  Beta  occ. eigenvalues --  -88.77461 -14.23252 -14.19879 -14.18101 -10.16732
  Beta  occ. eigenvalues --  -10.10475 -10.10278 -10.09471 -10.09368 -10.08075
  Beta  occ. eigenvalues --  -10.05590 -10.05119 -10.04753  -7.86070  -5.82357
  Beta  occ. eigenvalues --   -5.82042  -5.81607  -0.88063  -0.81686  -0.79514
  Beta  occ. eigenvalues --   -0.69348  -0.68262  -0.64159  -0.60126  -0.58506
  Beta  occ. eigenvalues --   -0.57980  -0.51952  -0.50397  -0.45787  -0.44661
  Beta  occ. eigenvalues --   -0.41395  -0.38324  -0.38237  -0.35529  -0.34895
  Beta  occ. eigenvalues --   -0.34483  -0.33430  -0.31839  -0.30952  -0.30458
  Beta  occ. eigenvalues --   -0.28248  -0.28050  -0.27535  -0.26757  -0.26250
  Beta  occ. eigenvalues --   -0.26110  -0.24608  -0.22466  -0.22017  -0.20702
  Beta  occ. eigenvalues --   -0.17888  -0.17758  -0.12007  -0.09894
  Beta virt. eigenvalues --    0.06717   0.07366   0.08462   0.08641   0.08684
  Beta virt. eigenvalues --    0.09055   0.09843   0.10056   0.10825   0.11382
  Beta virt. eigenvalues --    0.11467   0.11813   0.12571   0.13237   0.13463

 Mulliken charges and spin densities:
               1          2
     1  C   -0.040242  -0.434481
     2  C   -1.319598   1.322667
     3  C    0.506187  -1.114296
     4  C    0.071467  -0.635731
     5  N    0.138202  -0.018199
     6  C    0.788031  -1.014089
     7  C    0.656554  -0.965763
     8  N   -0.011391   0.071236
     9  C    0.023300  -0.311903
    10  N   -0.015185  -0.044611
    11  C    0.030902  -0.242321
    12  C   -0.368965   0.144367
    13  S   -0.065788  -0.035570
    14  H   -0.086833   0.204157
    15  H    0.045845   0.115501
    16  H   -0.315641   0.444458
    17  H    0.101813   0.032531
    18  H    0.119045   0.060318
    19  H   -0.106279   0.254292
    20  H    0.040277   0.112201
    21  H    0.035579   0.093428
    22  H   -0.009041   0.128057
    23  H    0.085546   0.150971
    24  H   -0.429285   0.631931
    25  H    0.277935  -0.159938
    26  H   -1.308780   1.527663
    27  H    0.401296  -0.198799
    28  H   -0.505329   0.797904
    29  H    0.060898   0.079366
    30  H    0.199480   0.004651
 Sum of Mulliken charges =  -1.00000   1.00000

 Dipole moment (field-independent basis, Debye):
    X=             -2.9815    Y=             -8.0897    Z=             -1.0136  Tot=              8.6810
 Quadrupole moment (field-independent basis, Debye-Ang):
   XX=           -138.4753   YY=           -146.3133   ZZ=           -118.6792
   XY=              5.5293   XZ=              0.5869   YZ=             -2.7950

 Summary of Natural Population Analysis:

                                       Natural Population
                Natural  -----------------------------------------------
    Atom  No    Charge         Core      Valence    Rydberg      Total
 -----------------------------------------------------------------------
      C    1   -0.28835      0.99961     2.28130    0.00744     3.28835
      C    2    0.05800      0.99959     1.92996    0.01244     2.94200
      C    3   -0.30311      0.99962     2.29640    0.00710     3.30311
      C    4   -0.28604      0.99962     2.28058    0.00584     3.28604
      N    5   -0.35037      0.99972     2.83830    0.01235     3.85037
      C    6   -0.09413      0.99961     2.08154    0.01298     3.09413
      C    7   -0.09553      0.99960     2.08361    0.01231     3.09553
      N    8   -0.31294      0.99965     2.79859    0.01470     3.81294
      C    9    0.14880      0.99959     1.82912    0.02248     2.85120
      N   10   -0.29188      0.99964     2.78150    0.01075     3.79188
      C   11   -0.01272      0.99953     1.99931    0.01388     3.01272
      C   12   -0.22200      0.99953     2.21277    0.00970     3.22200
      S   13    0.16213      4.99947     2.81842    0.01998     7.83787
      H   14    0.09567      0.00000     0.40350    0.00084     0.40433
      H   15    0.10211      0.00000     0.39679    0.00110     0.39789
      H   16    0.10007      0.00000     0.39892    0.00100     0.39993
      H   17    0.09630      0.00000     0.40292    0.00078     0.40370
      H   18    0.11230      0.00000     0.38627    0.00143     0.38770
      H   19    0.09803      0.00000     0.40107    0.00090     0.40197
      H   20    0.10207      0.00000     0.39698    0.00096     0.39793
      H   21    0.10120      0.00000     0.39759    0.00121     0.39880
      H   22    0.09732      0.00000     0.40192    0.00076     0.40268
      H   23    0.17734      0.00000     0.31840    0.00426     0.32266
      H   24    0.09550      0.00000     0.40229    0.00221     0.40450
      H   25    0.09667      0.00000     0.40149    0.00184     0.40333
      H   26    0.10213      0.00000     0.39415    0.00372     0.39787
      H   27    0.10426      0.00000     0.39309    0.00264     0.39574
      H   28    0.20281      0.00000     0.28256    0.01463     0.29719
      H   29    0.09682      0.00000     0.40221    0.00097     0.40318
      H   30    0.10752      0.00000     0.39174    0.00073     0.39248
 =======================================================================
   * Total *    0.00000     16.99478    36.80330    0.20193    54.00000

 Normal termination of Gaussian 16 at Mon Dec 14 17:26:42 2020.
