 Gaussian 16, Revision A.03,

 -----------------------------------------------------------
 # opt freq B3LYP/6-31G(d) empiricaldispersion=gd3bj scf=xqc
 -----------------------------------------------------------

 ------------------------------
 CID_87580650_JID_3514_neutraal
 ------------------------------
 Symbolic Z-matrix:
 Charge =  0 Multiplicity = 1

 SCF Done:  E(RB3LYP) =  -618.832399907     A.U. after   14 cycles
 SCF Done:  E(RB3LYP) =  -618.831919418     A.U. after   12 cycles
 SCF Done:  E(RB3LYP) =  -618.834115480     A.U. after   12 cycles
 SCF Done:  E(RB3LYP) =  -618.834455875     A.U. after   12 cycles
 SCF Done:  E(RB3LYP) =  -618.835262279     A.U. after   12 cycles
 SCF Done:  E(RB3LYP) =  -618.835548037     A.U. after   12 cycles
 SCF Done:  E(RB3LYP) =  -618.836213196     A.U. after   11 cycles
 SCF Done:  E(RB3LYP) =  -618.836279638     A.U. after   12 cycles
 SCF Done:  E(RB3LYP) =  -618.836436316     A.U. after   11 cycles
 SCF Done:  E(RB3LYP) =  -618.836682962     A.U. after   11 cycles
 SCF Done:  E(RB3LYP) =  -618.837405313     A.U. after   11 cycles
 SCF Done:  E(RB3LYP) =  -618.837395037     A.U. after   11 cycles
 SCF Done:  E(RB3LYP) =  -618.837409432     A.U. after   11 cycles
 SCF Done:  E(RB3LYP) =  -618.837408621     A.U. after    9 cycles
 SCF Done:  E(RB3LYP) =  -618.837409650     A.U. after    9 cycles
 Optimization completed.
    -- Stationary point found.
 Normal termination of Gaussian 16 at Wed Dec  9 23:40:13 2020.

 --------------------------------------------------------------------
 #N Geom=AllCheck Guess=TCheck SCRF=Check GenChk RB3LYP/6-31G(d) Freq
 --------------------------------------------------------------------

 Structure from the checkpoint file:  "JID_3514.chk"
 ------------------------------
 CID_87580650_JID_3514_neutraal
 ------------------------------
 Charge =  0 Multiplicity = 1

 SCF Done:  E(RB3LYP) =  -618.837409650     A.U. after    1 cycles

  Exact polarizability: 125.826  -0.500 118.428   4.010  -2.363  95.814
 Approx polarizability: 156.059  -0.344 168.384   3.224  -8.713 144.925

                      1                      2                      3
                      A                      A                      A
 Frequencies --     34.0697                55.2708                77.0227
 Red. masses --      8.6531                 3.7798                 3.9732
 Frc consts  --      0.0059                 0.0068                 0.0139
 IR Inten    --      1.1448                 0.7115                 0.8040

                      4                      5                      6
                      A                      A                      A
 Frequencies --     98.8251               109.4960               132.9683
 Red. masses --      2.9400                 3.8873                 3.8946
 Frc consts  --      0.0169                 0.0275                 0.0406
 IR Inten    --      0.5237                 1.3608                 0.5906

                      7                      8                      9
                      A                      A                      A
 Frequencies --    144.9323               173.7299               198.5323
 Red. masses --      2.8284                 2.5742                 1.7091
 Frc consts  --      0.0350                 0.0458                 0.0397
 IR Inten    --      0.6257                 0.3945                 0.2173

                     10                     11                     12
                      A                      A                      A
 Frequencies --    221.6940               242.5761               258.8584
 Red. masses --      1.3451                 1.3500                 1.4414
 Frc consts  --      0.0390                 0.0468                 0.0569
 IR Inten    --      0.4338                 0.6815                 0.1998

                     13                     14                     15
                      A                      A                      A
 Frequencies --    277.0175               304.1258               348.1530
 Red. masses --      1.8090                 2.1908                 2.3926
 Frc consts  --      0.0818                 0.1194                 0.1709
 IR Inten    --      0.5722                 0.7385                 4.6295

                     16                     17                     18
                      A                      A                      A
 Frequencies --    369.4980               412.1652               424.4041
 Red. masses --      2.2871                 2.7989                 2.3009
 Frc consts  --      0.1840                 0.2801                 0.2442
 IR Inten    --      0.7482                 2.5977                 4.5160

                     19                     20                     21
                      A                      A                      A
 Frequencies --    436.7667               449.5159               487.7959
 Red. masses --      2.2166                 2.0706                 3.2968
 Frc consts  --      0.2491                 0.2465                 0.4622
 IR Inten    --      0.8533                 2.2790                 5.4564

                     22                     23                     24
                      A                      A                      A
 Frequencies --    570.8838               612.3229               647.3162
 Red. masses --      3.7478                 2.0210                 1.5656
 Frc consts  --      0.7197                 0.4464                 0.3865
 IR Inten    --     50.1925                 9.0789                67.3467

                     25                     26                     27
                      A                      A                      A
 Frequencies --    749.0711               776.0522               796.3614
 Red. masses --      2.6360                 2.6859                 1.7349
 Frc consts  --      0.8714                 0.9531                 0.6483
 IR Inten    --     36.5607                 3.0334                 2.6475

                     28                     29                     30
                      A                      A                      A
 Frequencies --    815.6786               841.0539               867.0098
 Red. masses --      1.4847                 2.3377                 2.5366
 Frc consts  --      0.5820                 0.9743                 1.1234
 IR Inten    --     18.9296                 8.9483                 1.1945

                     31                     32                     33
                      A                      A                      A
 Frequencies --    895.6523               920.3926               952.0712
 Red. masses --      2.1033                 2.2822                 1.1601
 Frc consts  --      0.9941                 1.1391                 0.6196
 IR Inten    --      3.8286                 0.4277                 1.4622

                     34                     35                     36
                      A                      A                      A
 Frequencies --    970.8543               982.5647               991.6217
 Red. masses --      2.1440                 1.5204                 1.9734
 Frc consts  --      1.1906                 0.8648                 1.1433
 IR Inten    --     24.4818                 1.6723                39.9294

                     37                     38                     39
                      A                      A                      A
 Frequencies --   1029.2473              1059.5556              1100.9330
 Red. masses --      2.1958                 2.2650                 2.6525
 Frc consts  --      1.3705                 1.4982                 1.8942
 IR Inten    --      5.7625                17.4064                27.3508

                     40                     41                     42
                      A                      A                      A
 Frequencies --   1105.6692              1137.8791              1145.0976
 Red. masses --      2.2782                 1.6404                 2.3592
 Frc consts  --      1.6409                 1.2514                 1.8226
 IR Inten    --     20.0619                78.3965                32.9937

                     43                     44                     45
                      A                      A                      A
 Frequencies --   1166.4617              1191.5984              1208.2985
 Red. masses --      2.4259                 2.2360                 1.7445
 Frc consts  --      1.9448                 1.8706                 1.5006
 IR Inten    --    111.2193                72.0150                 7.5495

                     46                     47                     48
                      A                      A                      A
 Frequencies --   1211.0939              1248.6794              1254.3876
 Red. masses --      1.8556                 1.2482                 1.3885
 Frc consts  --      1.6036                 1.1467                 1.2872
 IR Inten    --     32.3831                29.9159                95.9931

                     49                     50                     51
                      A                      A                      A
 Frequencies --   1311.1083              1332.7434              1349.3467
 Red. masses --      1.2905                 1.3551                 1.1146
 Frc consts  --      1.3070                 1.4181                 1.1957
 IR Inten    --      3.8354                 0.9587                 9.4499

                     52                     53                     54
                      A                      A                      A
 Frequencies --   1356.2171              1365.7755              1381.7149
 Red. masses --      1.4075                 1.3376                 1.4719
 Frc consts  --      1.5254                 1.4700                 1.6556
 IR Inten    --     14.0825                 0.0575                30.5744

                     55                     56                     57
                      A                      A                      A
 Frequencies --   1400.8235              1409.8269              1422.6986
 Red. masses --      1.4624                 1.3804                 1.2668
 Frc consts  --      1.6907                 1.6165                 1.5107
 IR Inten    --     11.5415                 2.7787                 4.3840

                     58                     59                     60
                      A                      A                      A
 Frequencies --   1429.6520              1431.8491              1435.1978
 Red. masses --      1.3601                 1.3464                 1.2167
 Frc consts  --      1.6379                 1.6264                 1.4766
 IR Inten    --      8.9640                19.2057                 0.2371

                     61                     62                     63
                      A                      A                      A
 Frequencies --   1442.9578              1458.3092              1510.9678
 Red. masses --      1.2853                 1.2169                 1.0802
 Frc consts  --      1.5768                 1.5247                 1.4531
 IR Inten    --     22.6463                 8.3232                 5.5886

                     64                     65                     66
                      A                      A                      A
 Frequencies --   1514.9813              1518.5448              1522.5194
 Red. masses --      1.0688                 1.0649                 1.0645
 Frc consts  --      1.4453                 1.4468                 1.4538
 IR Inten    --      5.2255                 1.9484                 4.4388

                     67                     68                     69
                      A                      A                      A
 Frequencies --   1523.3247              1525.0418              1530.7865
 Red. masses --      1.0612                 1.0706                 1.0545
 Frc consts  --      1.4508                 1.4670                 1.4558
 IR Inten    --     15.3067                 2.7287                 1.5730

                     70                     71                     72
                      A                      A                      A
 Frequencies --   1540.6451              1547.4281              1555.3984
 Red. masses --      1.0586                 1.0807                 1.0518
 Frc consts  --      1.4804                 1.5246                 1.4992
 IR Inten    --      3.0253                 3.4848                 3.8723

                     73                     74                     75
                      A                      A                      A
 Frequencies --   1834.3576              3019.2735              3033.6414
 Red. masses --      9.2287                 1.0809                 1.0819
 Frc consts  --     18.2961                 5.8055                 5.8663
 IR Inten    --    248.4908                 0.9099                41.2246

                     76                     77                     78
                      A                      A                      A
 Frequencies --   3037.7628              3043.9148              3051.0418
 Red. masses --      1.0637                 1.0415                 1.0424
 Frc consts  --      5.7831                 5.6856                 5.7171
 IR Inten    --     45.5389                15.2928                64.1968

                     79                     80                     81
                      A                      A                      A
 Frequencies --   3054.0236              3058.6081              3071.5332
 Red. masses --      1.0381                 1.0685                 1.0657
 Frc consts  --      5.7048                 5.8897                 5.9237
 IR Inten    --     12.9839                26.8165                26.7941

                     82                     83                     84
                      A                      A                      A
 Frequencies --   3078.6053              3088.4731              3100.7052
 Red. masses --      1.1005                 1.0660                 1.1009
 Frc consts  --      6.1455                 5.9909                 6.2362
 IR Inten    --     34.2318                10.7235                 2.5359

                     85                     86                     87
                      A                      A                      A
 Frequencies --   3101.4407              3108.5798              3120.1195
 Red. masses --      1.1000                 1.1007                 1.0988
 Frc consts  --      6.2343                 6.2669                 6.3024
 IR Inten    --     14.6436                63.7518                52.7161

                     88                     89                     90
                      A                      A                      A
 Frequencies --   3129.6489              3137.6660              3144.4491
 Red. masses --      1.0947                 1.1019                 1.0986
 Frc consts  --      6.3174                 6.3915                 6.4000
 IR Inten    --     25.5831                36.6048                10.1575

                     91                     92                     93
                      A                      A                      A
 Frequencies --   3163.0033              3164.0335              3681.9035
 Red. masses --      1.0960                 1.0981                 1.0639
 Frc consts  --      6.4603                 6.4772                 8.4979
 IR Inten    --     23.5811                 9.2130                50.8726

 - Thermochemistry -
 -------------------
 Temperature   298.150 Kelvin.  Pressure   1.00000 Atm.
 Atom     1 has atomic number  6 and mass  12.00000

 Molecular mass:   188.14124 amu.
 Principal axes and moments of inertia in atomic units:
                           1         2         3
     Eigenvalues --  1570.560773979.519694807.24703
           X            0.99994   0.00225   0.01106
           Y           -0.00221   0.99999  -0.00305
           Z           -0.01107   0.00302   0.99993
 This molecule is an asymmetric top.
 Rotational symmetry number  1.
 Warning -- assumption of classical behavior for rotation
           may cause significant error
 Rotational temperatures (Kelvin)      0.05515     0.02176     0.01802
 Rotational constants (GHZ):           1.14911     0.45351     0.37542
 Zero-point vibrational energy     780837.7 (Joules/Mol)
                                  186.62469 (Kcal/Mol)
 Warning -- explicit consideration of  23 degrees of freedom as
           vibrations may cause significant error
 Vibrational temperatures:     49.02    79.52   110.82   142.19   157.54
          (Kelvin)            191.31   208.53   249.96   285.64   318.97
                              349.01   372.44   398.57   437.57   500.91
                              531.63   593.01   610.62   628.41   646.75
                              701.83   821.37   881.00   931.34  1077.75
                             1116.57  1145.79  1173.58  1210.09  1247.43
                             1288.64  1324.24  1369.82  1396.84  1413.69
                             1426.72  1480.86  1524.46  1584.00  1590.81
                             1637.15  1647.54  1678.28  1714.44  1738.47
                             1742.49  1796.57  1804.78  1886.39  1917.52
                             1941.41  1951.29  1965.05  1987.98  2015.47
                             2028.43  2046.95  2056.95  2060.11  2064.93
                             2076.09  2098.18  2173.95  2179.72  2184.85
                             2190.57  2191.72  2194.19  2202.46  2216.64
                             2226.40  2237.87  2639.23  4344.06  4364.73
                             4370.66  4379.51  4389.77  4394.06  4400.65
                             4419.25  4429.43  4443.62  4461.22  4462.28
                             4472.55  4489.16  4502.87  4514.40  4524.16
                             4550.86  4552.34  5297.44

 Zero-point correction=                           0.297405 (Hartree/Particle)
 Thermal correction to Energy=                    0.312677
 Thermal correction to Enthalpy=                  0.313621
 Thermal correction to Gibbs Free Energy=         0.254990
 Sum of electronic and zero-point Energies=           -618.540004
 Sum of electronic and thermal Energies=              -618.524733
 Sum of electronic and thermal Enthalpies=            -618.523788
 Sum of electronic and thermal Free Energies=         -618.582420

                     E (Thermal)             CV                S
                      KCal/Mol        Cal/Mol-Kelvin    Cal/Mol-Kelvin
 Total                  196.208             56.638            123.400
 Electronic               0.000              0.000              0.000
 Translational            0.889              2.981             41.602
 Rotational               0.889              2.981             31.775
 Vibrational            194.430             50.676             50.024
 Vibration     1          0.594              1.983              5.577
 Vibration     2          0.596              1.975              4.619
 Vibration     3          0.599              1.964              3.965
 Vibration     4          0.604              1.950              3.477
 Vibration     5          0.606              1.942              3.278
 Vibration     6          0.613              1.920              2.903
 Vibration     7          0.616              1.908              2.738
 Vibration     8          0.627              1.875              2.395
 Vibration     9          0.637              1.842              2.147
 Vibration    10          0.648              1.808              1.945
 Vibration    11          0.659              1.775              1.784
 Vibration    12          0.668              1.748              1.669
 Vibration    13          0.678              1.716              1.552
 Vibration    14          0.695              1.666              1.394
 Vibration    15          0.726              1.579              1.175
 Vibration    16          0.742              1.535              1.082
 Vibration    17          0.776              1.444              0.919
 Vibration    18          0.786              1.417              0.877
 Vibration    19          0.797              1.390              0.837
 Vibration    20          0.808              1.362              0.797
 Vibration    21          0.844              1.277              0.689
 Vibration    22          0.927              1.094              0.503
 Vibration    23          0.972              1.006              0.429

 Optimization completed.
    -- Stationary point found.
 Normal termination of Gaussian 16 at Wed Dec  9 23:49:23 2020.

 ----------------------------------------------------------------------
 # B3LYP/6-311++G(d,p) empiricaldispersion=gd3bj scf=xqc pop=npa geom=c
 heck
 ----------------------------------------------------------------------

 --------------------------------------
 CID_87580650_JID_3514_Energie_neutraal
 --------------------------------------
 Structure from the checkpoint file:  "JID_3514.chk"
 Charge =  0 Multiplicity = 1

 SCF Done:  E(RB3LYP) =  -619.027131397     A.U. after   14 cycles
 Normal termination of Gaussian 16 at Wed Dec  9 23:53:05 2020.

 ----------------------------------------------------------------------
 # B3LYP/6-311++G(d,p) empiricaldispersion=gd3bj scf=xqc pop=npa geom=c
 heck
 ----------------------------------------------------------------------

 ------------------------------------
 CID_87580650_JID_3514_Energie_kation
 ------------------------------------
 Structure from the checkpoint file:  "JID_3514.chk"
 Charge =  1 Multiplicity = 2

 SCF Done:  E(UB3LYP) =  -618.700800291     A.U. after   23 cycles
 Normal termination of Gaussian 16 at Thu Dec 10 00:01:18 2020.
 Gaussian 16:  ES64L-G16RevA.03 25-Dec-2016

 ----------------------------------------------------------------------
 # B3LYP/6-311++G(d,p) empiricaldispersion=gd3bj scf=xqc pop=npa geom=c
 heck
 ----------------------------------------------------------------------

 -----------------------------------
 CID_87580650_JID_3514_Energie_anion
 -----------------------------------
 Structure from the checkpoint file:  "JID_3514.chk"
 Charge = -1 Multiplicity = 2

                         Standard orientation:
 ---------------------------------------------------------------------
 Center     Atomic      Atomic             Coordinates (Angstroms)
 Number     Number       Type             X           Y           Z
 ---------------------------------------------------------------------
      1          6           0        2.762494   -1.664352    1.086102
      2          6           0        2.391666   -1.720215   -0.396061
      3          8           0        2.276885   -0.460082   -1.034595
      4          6           0        1.092606    0.343047   -0.899768
      5          6           0       -0.217164   -0.459360   -1.053965
      6          6           0       -0.787241   -1.208731    0.173454
      7          6           0       -1.820113   -0.426485    1.019477
      8          6           0       -3.015411   -0.025150    0.193169
      9          8           0       -3.182708    1.050353   -0.343914
     10          8           0       -3.899938   -1.044497    0.054654
     11          6           0        1.141699    1.303442    0.310578
     12          6           0        2.542277    1.902835    0.485878
     13          6           0        0.118826    2.437769    0.130529
     14          1           0        3.695754   -1.110722    1.227272
     15          1           0        2.905398   -2.680738    1.472967
     16          1           0        1.989030   -1.179896    1.690071
     17          1           0        3.194770   -2.229006   -0.941455
     18          1           0        1.485980   -2.324007   -0.542322
     19          1           0        1.159978    0.981556   -1.791132
     20          1           0       -0.980143    0.226979   -1.435987
     21          1           0       -0.042080   -1.179917   -1.861265
     22          1           0       -1.272828   -2.129398   -0.170162
     23          1           0        0.009089   -1.520190    0.853248
     24          1           0       -2.154999   -1.063167    1.844437
     25          1           0       -1.381234    0.481251    1.434745
     26          1           0       -4.607043   -0.710496   -0.529213
     27          1           0        0.892415    0.746035    1.224513
     28          1           0        2.834817    2.460607   -0.412629
     29          1           0        2.556204    2.599723    1.331797
     30          1           0        3.297538    1.133812    0.654181
     31          1           0       -0.906705    2.087834   -0.013348
     32          1           0        0.127779    3.101254    1.002867
     33          1           0        0.384535    3.045487   -0.744113
 ---------------------------------------------------------------------

 SCF Done:  E(UB3LYP) =  -619.014483103     A.U. after   33 cycles
 SCF Done:  E(UB3LYP) =  -619.014483103     a.u. after    1 cycles

 The electronic state is 2-A.
 Alpha  occ. eigenvalues --  -19.06631 -19.02021 -19.01534 -10.20406 -10.12491
 Alpha  occ. eigenvalues --  -10.11819 -10.08228 -10.07917 -10.07895 -10.07277
 Alpha  occ. eigenvalues --  -10.06268 -10.06232 -10.06212  -1.00789  -0.93070
 Alpha  occ. eigenvalues --   -0.91905  -0.72392  -0.69789  -0.66117  -0.63584
 Alpha  occ. eigenvalues --   -0.58879  -0.57483  -0.53236  -0.50603  -0.49081
 Alpha  occ. eigenvalues --   -0.45626  -0.41100  -0.39630  -0.38857  -0.37895
 Alpha  occ. eigenvalues --   -0.36425  -0.35396  -0.34942  -0.33958  -0.32486
 Alpha  occ. eigenvalues --   -0.31717  -0.31134  -0.30196  -0.29992  -0.28793
 Alpha  occ. eigenvalues --   -0.28243  -0.27251  -0.26701  -0.25829  -0.25367
 Alpha  occ. eigenvalues --   -0.24244  -0.23185  -0.22820  -0.22448  -0.19565
 Alpha  occ. eigenvalues --   -0.18112  -0.15820   0.04405
 Alpha virt. eigenvalues --    0.06348   0.07140   0.07459   0.08494   0.09291
 Alpha virt. eigenvalues --    0.09608   0.09747   0.09912   0.10347   0.11426
 Alpha virt. eigenvalues --    0.12310   0.12536   0.13053   0.13270   0.13639

  Beta  occ. eigenvalues --  -19.06570 -19.02018 -19.01508 -10.20379 -10.12490
  Beta  occ. eigenvalues --  -10.11803 -10.08200 -10.07891 -10.07885 -10.07270
  Beta  occ. eigenvalues --  -10.06230 -10.06225 -10.06203  -1.00700  -0.93062
  Beta  occ. eigenvalues --   -0.91828  -0.72369  -0.69747  -0.66084  -0.63531
  Beta  occ. eigenvalues --   -0.58860  -0.57423  -0.53154  -0.50549  -0.48981
  Beta  occ. eigenvalues --   -0.45589  -0.41073  -0.39568  -0.38823  -0.37860
  Beta  occ. eigenvalues --   -0.36362  -0.35340  -0.34911  -0.33921  -0.32457
  Beta  occ. eigenvalues --   -0.31672  -0.31093  -0.30153  -0.29965  -0.28780
  Beta  occ. eigenvalues --   -0.28198  -0.27217  -0.26666  -0.25797  -0.25346
  Beta  occ. eigenvalues --   -0.24217  -0.23156  -0.22786  -0.22360  -0.19550
  Beta  occ. eigenvalues --   -0.18057  -0.15800
  Beta virt. eigenvalues --    0.06650   0.07501   0.07723   0.07879   0.09025
  Beta virt. eigenvalues --    0.09537   0.09920   0.09984   0.10374   0.10699
  Beta virt. eigenvalues --    0.11683   0.12643   0.12788   0.13120   0.13405

 Mulliken charges and spin densities:
               1          2
     1  C    0.954544  -1.388975
     2  C   -0.478682   0.226175
     3  O   -0.097345   0.010652
     4  C   -0.113116  -0.184899
     5  C   -0.353366  -0.025312
     6  C    0.087818  -0.233580
     7  C    1.188267  -1.518293
     8  C    0.127173  -0.367982
     9  O   -0.256592   0.005753
    10  O   -0.182818   0.085298
    11  C   -0.498112   0.972824
    12  C   -0.044930  -0.533500
    13  C   -0.001460  -0.703136
    14  H    0.051882   0.100021
    15  H   -0.573173   0.721801
    16  H   -0.373437   0.517198
    17  H   -0.287135   0.461685
    18  H    0.047930   0.095557
    19  H    0.183188   0.019169
    20  H    0.044028   0.097870
    21  H    0.023764   0.194249
    22  H   -0.251044   0.450843
    23  H    0.240318  -0.091843
    24  H   -0.554124   0.802615
    25  H   -0.100503   0.268080
    26  H   -0.474130   0.771463
    27  H    0.050932   0.088121
    28  H    0.088161   0.046988
    29  H   -0.058819   0.188591
    30  H    0.205342  -0.085383
    31  H    0.310990  -0.160057
    32  H   -0.011573   0.149937
    33  H    0.106021   0.018067
 Sum of Mulliken charges =  -1.00000   1.00000

 Dipole moment (field-independent basis, Debye):
    X=              4.0011    Y=              4.5857    Z=             -2.4660  Tot=              6.5665
 Quadrupole moment (field-independent basis, Debye-Ang):
   XX=           -164.0842   YY=           -127.1448   ZZ=           -116.8106
   XY=              1.7286   XZ=             -4.1888   YZ=              5.3242

 Summary of Natural Population Analysis:

                                       Natural Population
                Natural  -----------------------------------------------
    Atom  No    Charge         Core      Valence    Rydberg      Total
 -----------------------------------------------------------------------
      C    1   -0.30079      0.99966     2.29582    0.00530     3.30079
      C    2   -0.01106      0.99958     1.99829    0.01320     3.01106
      O    3   -0.30992      0.99988     3.30055    0.00949     4.30992
      C    4    0.07822      0.99950     1.90833    0.01395     2.92178
      C    5   -0.21267      0.99959     2.20436    0.00872     3.21267
      C    6   -0.19430      0.99961     2.18525    0.00944     3.19430
      C    7   -0.23748      0.99957     2.22836    0.00955     3.23748
      C    8    0.41107      0.99971     1.56385    0.02537     2.58893
      O    9   -0.31279      0.99987     3.30696    0.00596     4.31279
      O   10   -0.34317      0.99988     3.33624    0.00705     4.34317
      C   11   -0.13053      0.99959     2.12154    0.00941     3.13053
      C   12   -0.28119      0.99965     2.27609    0.00546     3.28119
      C   13   -0.29067      0.99965     2.28600    0.00502     3.29067
      H   14    0.09784      0.00000     0.40114    0.00102     0.40216
      H   15    0.10292      0.00000     0.39546    0.00162     0.39708
      H   16    0.09751      0.00000     0.40075    0.00175     0.40249
      H   17    0.08640      0.00000     0.41232    0.00127     0.41360
      H   18    0.07966      0.00000     0.41867    0.00167     0.42034
      H   19    0.08691      0.00000     0.41179    0.00130     0.41309
      H   20    0.10993      0.00000     0.38886    0.00121     0.39007
      H   21    0.10461      0.00000     0.39439    0.00100     0.39539
      H   22    0.10502      0.00000     0.39342    0.00157     0.39498
      H   23    0.10357      0.00000     0.39422    0.00221     0.39643
      H   24    0.11586      0.00000     0.38199    0.00214     0.38414
      H   25    0.10812      0.00000     0.39020    0.00168     0.39188
      H   26    0.24346      0.00000     0.23851    0.01802     0.25654
      H   27    0.09499      0.00000     0.40253    0.00248     0.40501
      H   28    0.09395      0.00000     0.40515    0.00090     0.40605
      H   29    0.09508      0.00000     0.40410    0.00082     0.40492
      H   30    0.10540      0.00000     0.39351    0.00108     0.39460
      H   31    0.11215      0.00000     0.38670    0.00114     0.38785
      H   32    0.09827      0.00000     0.40093    0.00080     0.40173
      H   33    0.09362      0.00000     0.40550    0.00088     0.40638
 =======================================================================
   * Total *   -0.00000     12.99573    38.83180    0.17248    52.00000

 Normal termination of Gaussian 16 at Thu Dec 10 00:12:50 2020.
