 Gaussian 16, Revision A.03,

 -----------------------------------------------------------
 # opt freq B3LYP/6-31G(d) empiricaldispersion=gd3bj scf=xqc
 -----------------------------------------------------------

 -------------------------------
 CID_63780967_JID_10685_neutraal
 -------------------------------
 Symbolic Z-matrix:
 Charge =  0 Multiplicity = 1

 SCF Done:  E(RB3LYP) =  -2069.69852985     A.U. after   15 cycles
 SCF Done:  E(RB3LYP) =  -2069.71160754     A.U. after   13 cycles
 SCF Done:  E(RB3LYP) =  -2069.71363687     A.U. after   13 cycles
 SCF Done:  E(RB3LYP) =  -2069.71412026     A.U. after   13 cycles
 SCF Done:  E(RB3LYP) =  -2069.71413202     A.U. after   12 cycles
 SCF Done:  E(RB3LYP) =  -2069.71436261     A.U. after   12 cycles
 SCF Done:  E(RB3LYP) =  -2069.71441048     A.U. after   11 cycles
 SCF Done:  E(RB3LYP) =  -2069.71444238     A.U. after   11 cycles
 SCF Done:  E(RB3LYP) =  -2069.71445923     A.U. after   11 cycles
 SCF Done:  E(RB3LYP) =  -2069.71447824     A.U. after   11 cycles
 SCF Done:  E(RB3LYP) =  -2069.71503404     A.U. after    9 cycles
 SCF Done:  E(RB3LYP) =  -2069.71503518     A.U. after    8 cycles
 SCF Done:  E(RB3LYP) =  -2069.71503563     A.U. after    9 cycles
 SCF Done:  E(RB3LYP) =  -2069.71503589     A.U. after    7 cycles
 Optimization completed.
    -- Stationary point found.
 Normal termination of Gaussian 16 at Sat Dec 12 17:00:00 2020.

 --------------------------------------------------------------------
 #N Geom=AllCheck Guess=TCheck SCRF=Check GenChk RB3LYP/6-31G(d) Freq
 --------------------------------------------------------------------

 Structure from the checkpoint file:  "JID_10685.chk"
 -------------------------------
 CID_63780967_JID_10685_neutraal
 -------------------------------
 Charge =  0 Multiplicity = 1

 SCF Done:  E(RB3LYP) =  -2069.71503589     A.U. after    1 cycles

  Exact polarizability: 212.731  13.109 168.863 -10.824  12.291 149.222
 Approx polarizability: 316.883  33.764 271.179 -28.526  29.030 247.364

                      1                      2                      3
                      A                      A                      A
 Frequencies --     15.6030                26.5118                36.2888
 Red. masses --      5.0281                 4.7351                 7.6402
 Frc consts  --      0.0007                 0.0020                 0.0059
 IR Inten    --      2.3459                 0.1046                 1.2515

                      4                      5                      6
                      A                      A                      A
 Frequencies --     54.1266                57.2602                89.7869
 Red. masses --      9.1325                10.9435                 2.7774
 Frc consts  --      0.0158                 0.0211                 0.0132
 IR Inten    --      0.8101                 1.1223                 0.5179

                      7                      8                      9
                      A                      A                      A
 Frequencies --     97.0502               104.9822               120.7087
 Red. masses --      1.0678                 6.8174                 4.1441
 Frc consts  --      0.0059                 0.0443                 0.0356
 IR Inten    --      0.0458                 0.7086                 0.1083

                     10                     11                     12
                      A                      A                      A
 Frequencies --    128.7226               167.1629               175.6466
 Red. masses --      9.0553                 5.9545                 3.5894
 Frc consts  --      0.0884                 0.0980                 0.0652
 IR Inten    --      1.5173                 2.1429                 0.6152

                     13                     14                     15
                      A                      A                      A
 Frequencies --    178.8336               200.8169               232.0326
 Red. masses --      3.5103                 2.7888                 5.7761
 Frc consts  --      0.0661                 0.0663                 0.1832
 IR Inten    --      2.5250                 0.3610                 1.5344

                     16                     17                     18
                      A                      A                      A
 Frequencies --    243.0382               261.4891               278.4803
 Red. masses --      1.5413                 3.7584                 8.2023
 Frc consts  --      0.0536                 0.1514                 0.3748
 IR Inten    --      0.9857                 1.2603                 4.7003

                     19                     20                     21
                      A                      A                      A
 Frequencies --    291.7267               322.8438               326.1016
 Red. masses --      9.6160                 7.8955                 5.1944
 Frc consts  --      0.4822                 0.4849                 0.3255
 IR Inten    --      0.0568                 0.2709                 4.5890

                     22                     23                     24
                      A                      A                      A
 Frequencies --    342.8026               375.5878               403.6505
 Red. masses --      5.4419                 6.5119                 4.6804
 Frc consts  --      0.3768                 0.5412                 0.4493
 IR Inten    --      2.2523                 1.0199                 1.1639

                     25                     26                     27
                      A                      A                      A
 Frequencies --    441.2197               455.0310               473.2447
 Red. masses --      8.8105                 4.5470                 6.7303
 Frc consts  --      1.0106                 0.5547                 0.8881
 IR Inten    --      6.3993                 3.5961                 2.1077

                     28                     29                     30
                      A                      A                      A
 Frequencies --    518.9990               533.6889               556.4078
 Red. masses --      2.2950                 7.4404                 2.6258
 Frc consts  --      0.3642                 1.2486                 0.4790
 IR Inten    --     11.0275                36.7428               127.8135

                     31                     32                     33
                      A                      A                      A
 Frequencies --    585.2620               598.9361               601.7731
 Red. masses --      3.8310                 2.2067                 3.7358
 Frc consts  --      0.7731                 0.4664                 0.7971
 IR Inten    --     28.8646               104.6805                14.8596

                     34                     35                     36
                      A                      A                      A
 Frequencies --    605.6338               632.4002               642.0294
 Red. masses --      3.5883                 2.4686                10.3092
 Frc consts  --      0.7755                 0.5817                 2.5037
 IR Inten    --      5.4243                72.9056                21.4312

                     37                     38                     39
                      A                      A                      A
 Frequencies --    658.0489               682.2673               689.9847
 Red. masses --      9.7184                 3.4936                 4.3605
 Frc consts  --      2.4795                 0.9581                 1.2231
 IR Inten    --     21.9411                12.4767                93.2514

                     40                     41                     42
                      A                      A                      A
 Frequencies --    720.5129               776.8437               780.3675
 Red. masses --      3.5500                 3.1940                 3.9239
 Frc consts  --      1.0858                 1.1357                 1.4079
 IR Inten    --     55.6135                 8.1262                19.6314

                     43                     44                     45
                      A                      A                      A
 Frequencies --    829.7128               905.8659               941.4290
 Red. masses --      1.4851                 2.2107                 3.9096
 Frc consts  --      0.6024                 1.0688                 2.0415
 IR Inten    --      1.4282                 4.1290                42.4923

                     46                     47                     48
                      A                      A                      A
 Frequencies --    946.0066               955.1010               981.7553
 Red. masses --      2.8817                 2.8628                 3.4805
 Frc consts  --      1.5194                 1.5387                 1.9765
 IR Inten    --     11.4531                40.9450               159.6577

                     49                     50                     51
                      A                      A                      A
 Frequencies --   1037.7630              1056.8433              1060.8748
 Red. masses --      1.5492                 2.1961                 2.5506
 Frc consts  --      0.9830                 1.4452                 1.6913
 IR Inten    --      2.2442                18.9250                25.9466

                     52                     53                     54
                      A                      A                      A
 Frequencies --   1081.2203              1087.7877              1102.0303
 Red. masses --      1.5672                 5.3839                 1.6830
 Frc consts  --      1.0794                 3.7535                 1.2042
 IR Inten    --      3.3363               108.1533                 6.8062

                     55                     56                     57
                      A                      A                      A
 Frequencies --   1138.2923              1142.5671              1146.1628
 Red. masses --      3.0176                 4.4214                 3.2197
 Frc consts  --      2.3036                 3.4008                 2.4921
 IR Inten    --     71.2477                61.9825                22.7959

                     58                     59                     60
                      A                      A                      A
 Frequencies --   1166.8882              1202.7643              1212.9982
 Red. masses --      4.7137                 2.0647                 1.9245
 Frc consts  --      3.7816                 1.7598                 1.6683
 IR Inten    --     31.2371               173.1589                39.7171

                     61                     62                     63
                      A                      A                      A
 Frequencies --   1257.7291              1273.8414              1290.7629
 Red. masses --      1.2554                 1.3079                 2.2466
 Frc consts  --      1.1701                 1.2505                 2.2053
 IR Inten    --     18.0306                 2.3733                56.2347

                     64                     65                     66
                      A                      A                      A
 Frequencies --   1318.9197              1334.8774              1346.6554
 Red. masses --      7.1383                 1.2493                 1.3658
 Frc consts  --      7.3161                 1.3116                 1.4593
 IR Inten    --    122.3186                24.4078                13.3218

                     67                     68                     69
                      A                      A                      A
 Frequencies --   1350.5501              1384.0812              1395.8666
 Red. masses --      1.2678                 1.2021                 2.7367
 Frc consts  --      1.3624                 1.3568                 3.1417
 IR Inten    --      9.7574                19.0222                48.9589

                     70                     71                     72
                      A                      A                      A
 Frequencies --   1406.6695              1440.4769              1441.6230
 Red. masses --      1.3999                 1.2455                 1.2403
 Frc consts  --      1.6320                 1.5227                 1.5188
 IR Inten    --      9.3839                 4.6772                 5.4532

                     73                     74                     75
                      A                      A                      A
 Frequencies --   1453.9349              1503.8582              1510.7727
 Red. masses --      2.3862                 1.0864                 1.1598
 Frc consts  --      2.9720                 1.4477                 1.5597
 IR Inten    --    104.5987                 1.2287                 0.5631

                     76                     77                     78
                      A                      A                      A
 Frequencies --   1512.1708              1525.3761              1527.2750
 Red. masses --      1.0855                 1.0431                 1.0439
 Frc consts  --      1.4624                 1.4300                 1.4346
 IR Inten    --      2.9595                 8.0710                 6.4353

                     79                     80                     81
                      A                      A                      A
 Frequencies --   1538.9630              1650.8446              1836.4091
 Red. masses --      1.0568                 5.8368                11.2884
 Frc consts  --      1.4747                 9.3722                22.4295
 IR Inten    --      7.3618                94.4271               736.6391

                     82                     83                     84
                      A                      A                      A
 Frequencies --   1856.0400              3048.3310              3051.5766
 Red. masses --     10.1758                 1.0392                 1.0426
 Frc consts  --     20.6535                 5.6894                 5.7202
 IR Inten    --    269.3160                19.2530                23.3777

                     85                     86                     87
                      A                      A                      A
 Frequencies --   3062.9640              3089.9293              3093.1480
 Red. masses --      1.0601                 1.0714                 1.0915
 Frc consts  --      5.8599                 6.0268                 6.1528
 IR Inten    --     12.4125                 8.1431                 6.1666

                     88                     89                     90
                      A                      A                      A
 Frequencies --   3102.4417              3106.4369              3108.6877
 Red. masses --      1.1010                 1.0894                 1.0838
 Frc consts  --      6.2440                 6.1939                 6.1708
 IR Inten    --      9.0992                 7.3681                 2.9272

                     91                     92                     93
                      A                      A                      A
 Frequencies --   3119.2534              3132.4427              3170.5848
 Red. masses --      1.0995                 1.1026                 1.1031
 Frc consts  --      6.3028                 6.3746                 6.5334
 IR Inten    --     34.8632                22.6768                 1.3722

                     94                     95                     96
                      A                      A                      A
 Frequencies --   3215.5426              3613.3535              3687.4337
 Red. masses --      1.0955                 1.0787                 1.0641
 Frc consts  --      6.6738                 8.2979                 8.5247
 IR Inten    --      5.1151                71.2950                66.9261

 - Thermochemistry -
 -------------------
 Temperature   298.150 Kelvin.  Pressure   1.00000 Atm.
 Atom     1 has atomic number  6 and mass  12.00000

 Molecular mass:   338.00649 amu.
 Principal axes and moments of inertia in atomic units:
                           1         2         3
     Eigenvalues --  4709.552488279.496619317.51205
           X            0.99959   0.01830   0.02201
           Y           -0.01760   0.99935  -0.03136
           Z           -0.02257   0.03096   0.99927
 This molecule is an asymmetric top.
 Rotational symmetry number  1.
 Warning -- assumption of classical behavior for rotation
           may cause significant error
 Rotational temperatures (Kelvin)      0.01839     0.01046     0.00930
 Rotational constants (GHZ):           0.38321     0.21798     0.19369
 Zero-point vibrational energy     665361.7 (Joules/Mol)
                                  159.02527 (Kcal/Mol)
 Warning -- explicit consideration of  34 degrees of freedom as
           vibrations may cause significant error
 Vibrational temperatures:     22.45    38.14    52.21    77.88    82.38
          (Kelvin)            129.18   139.63   151.05   173.67   185.20
                              240.51   252.72   257.30   288.93   333.84
                              349.68   376.22   400.67   419.73   464.50
                              469.19   493.22   540.39   580.76   634.82
                              654.69   680.89   746.72   767.86   800.55
                              842.06   861.74   865.82   871.37   909.88
                              923.74   946.79   981.63   992.73  1036.66
                             1117.70  1122.77  1193.77  1303.34  1354.51
                             1361.09  1374.18  1412.53  1493.11  1520.56
                             1526.36  1555.63  1565.08  1585.58  1637.75
                             1643.90  1649.07  1678.89  1730.51  1745.23
                             1809.59  1832.77  1857.12  1897.63  1920.59
                             1937.54  1943.14  1991.38  2008.34  2023.88
                             2072.52  2074.17  2091.89  2163.72  2173.66
                             2175.68  2194.68  2197.41  2214.22  2375.20
                             2642.18  2670.43  4385.87  4390.54  4406.92
                             4445.72  4450.35  4463.72  4469.47  4472.71
                             4487.91  4506.89  4561.76  4626.45  5198.81
                             5305.39

 Zero-point correction=                           0.253423 (Hartree/Particle)
 Thermal correction to Energy=                    0.274341
 Thermal correction to Enthalpy=                  0.275285
 Thermal correction to Gibbs Free Energy=         0.201322
 Sum of electronic and zero-point Energies=          -2069.461613
 Sum of electronic and thermal Energies=             -2069.440695
 Sum of electronic and thermal Enthalpies=           -2069.439751
 Sum of electronic and thermal Free Energies=        -2069.513714

                     E (Thermal)             CV                S
                      KCal/Mol        Cal/Mol-Kelvin    Cal/Mol-Kelvin
 Total                  172.152             76.083            155.669
 Electronic               0.000              0.000              0.000
 Translational            0.889              2.981             43.348
 Rotational               0.889              2.981             34.251
 Vibrational            170.374             70.122             78.069
 Vibration     1          0.593              1.986              7.127
 Vibration     2          0.593              1.984              6.075
 Vibration     3          0.594              1.982              5.452
 Vibration     4          0.596              1.976              4.661
 Vibration     5          0.596              1.975              4.549
 Vibration     6          0.602              1.956              3.665
 Vibration     7          0.603              1.951              3.513
 Vibration     8          0.605              1.945              3.360
 Vibration     9          0.609              1.932              3.089
 Vibration    10          0.611              1.925              2.965
 Vibration    11          0.624              1.883              2.467
 Vibration    12          0.628              1.872              2.374
 Vibration    13          0.629              1.868              2.341
 Vibration    14          0.638              1.839              2.126
 Vibration    15          0.653              1.792              1.863
 Vibration    16          0.659              1.774              1.781
 Vibration    17          0.669              1.743              1.652
 Vibration    18          0.679              1.713              1.543
 Vibration    19          0.687              1.689              1.464
 Vibration    20          0.708              1.630              1.296
 Vibration    21          0.710              1.623              1.279
 Vibration    22          0.722              1.590              1.199
 Vibration    23          0.746              1.522              1.057
 Vibration    24          0.769              1.462              0.949
 Vibration    25          0.801              1.380              0.823
 Vibration    26          0.813              1.350              0.781
 Vibration    27          0.830              1.309              0.729
 Vibration    28          0.874              1.208              0.612
 Vibration    29          0.889              1.175              0.579
 Vibration    30          0.912              1.126              0.531
 Vibration    31          0.942              1.063              0.476
 Vibration    32          0.957              1.034              0.451
 Vibration    33          0.960              1.028              0.447
 Vibration    34          0.964              1.020              0.440

 Optimization completed.
    -- Stationary point found.
 Normal termination of Gaussian 16 at Sat Dec 12 17:18:59 2020.

 ----------------------------------------------------------------------
 # B3LYP/6-311++G(d,p) empiricaldispersion=gd3bj scf=xqc pop=npa geom=c
 heck
 ----------------------------------------------------------------------

 ---------------------------------------
 CID_63780967_JID_10685_Energie_neutraal
 ---------------------------------------
 Structure from the checkpoint file:  "JID_10685.chk"
 Charge =  0 Multiplicity = 1

 SCF Done:  E(RB3LYP) =  -2070.05802594     A.U. after   17 cycles
 Normal termination of Gaussian 16 at Sat Dec 12 17:26:57 2020.

 ----------------------------------------------------------------------
 # B3LYP/6-311++G(d,p) empiricaldispersion=gd3bj scf=xqc pop=npa geom=c
 heck
 ----------------------------------------------------------------------

 -------------------------------------
 CID_63780967_JID_10685_Energie_kation
 -------------------------------------
 Structure from the checkpoint file:  "JID_10685.chk"
 Charge =  1 Multiplicity = 2

 SCF Done:  E(UB3LYP) =  -2069.74878789     A.U. after   33 cycles
 SCF Done:  E(UB3LYP) =  -2069.74878789     a.u. after    1 cycles
 Normal termination of Gaussian 16 at Sat Dec 12 17:47:57 2020.
 Gaussian 16:  ES64L-G16RevA.03 25-Dec-2016

 ----------------------------------------------------------------------
 # B3LYP/6-311++G(d,p) empiricaldispersion=gd3bj scf=xqc pop=npa geom=c
 heck
 ----------------------------------------------------------------------

 ------------------------------------
 CID_63780967_JID_10685_Energie_anion
 ------------------------------------
 Structure from the checkpoint file:  "JID_10685.chk"
 Charge = -1 Multiplicity = 2

                         Standard orientation:
 ---------------------------------------------------------------------
 Center     Atomic      Atomic             Coordinates (Angstroms)
 Number     Number       Type             X           Y           Z
 ---------------------------------------------------------------------
      1          6           0       -0.642424    3.248810   -1.879690
      2          6           0       -0.627795    1.764366   -1.519250
      3          6           0       -1.222497    1.482297   -0.138438
      4          7           0       -1.071739    0.057799    0.229779
      5          6           0       -2.313560   -0.731279    0.276612
      6          6           0       -3.356252    0.083215   -0.503622
      7         16           0       -3.036589    1.818438   -0.030174
      8          6           0       -2.190493   -2.119642   -0.333663
      9          8           0       -2.944927   -3.022438   -0.059058
     10          8           0       -1.221725   -2.209458   -1.269208
     11         16           0        0.061461   -0.310420    1.419549
     12          8           0        0.075147    0.713933    2.471252
     13          8           0       -0.184537   -1.711807    1.758575
     14          6           0        1.566079   -0.175292    0.512856
     15          6           0        2.652744    0.586179    0.819107
     16          7           0        3.684078    0.376857   -0.078703
     17          6           0        3.494702   -0.546670   -1.100347
     18          8           0        4.297329   -0.841846   -1.953813
     19         16           0        1.821975   -1.197608   -0.913524
     20          6           0        2.887790    1.567949    1.922994
     21          1           0       -1.665543    3.636751   -1.917266
     22          1           0       -0.180841    3.414432   -2.858308
     23          1           0       -0.084492    3.839566   -1.142308
     24          1           0       -1.167520    1.175062   -2.269346
     25          1           0        0.401078    1.385829   -1.514641
     26          1           0       -0.742963    2.105991    0.621065
     27          1           0       -2.663604   -0.873913    1.302225
     28          1           0       -3.234274   -0.051223   -1.582120
     29          1           0       -4.368365   -0.205433   -0.217727
     30          1           0       -1.245678   -3.128899   -1.595223
     31          1           0        4.575761    0.852355   -0.014994
     32          1           0        3.115606    2.555885    1.504073
     33          1           0        2.015734    1.644481    2.567535
     34          1           0        3.749114    1.253299    2.524572
 ---------------------------------------------------------------------

 SCF Done:  E(UB3LYP) =  -2070.06019250     A.U. after   33 cycles
 SCF Done:  E(UB3LYP) =  -2070.06019250     a.u. after    1 cycles

 The electronic state is 2-A.
 Alpha  occ. eigenvalues --  -88.97098 -88.76968 -88.76092 -19.08812 -19.03019
 Alpha  occ. eigenvalues --  -19.02173 -19.01856 -19.00624 -14.26681 -14.25795
 Alpha  occ. eigenvalues --  -10.22050 -10.19877 -10.15645 -10.14955 -10.13212
 Alpha  occ. eigenvalues --  -10.13002 -10.11040 -10.08645 -10.08121 -10.07580
 Alpha  occ. eigenvalues --   -8.03116  -7.85587  -7.84744  -5.99426  -5.99362
 Alpha  occ. eigenvalues --   -5.99231  -5.81923  -5.81577  -5.81118  -5.81045
 Alpha  occ. eigenvalues --   -5.80818  -5.80090  -1.03028  -1.02443  -0.96083
 Alpha  occ. eigenvalues --   -0.93973  -0.91461  -0.87371  -0.86872  -0.73336
 Alpha  occ. eigenvalues --   -0.71980  -0.71278  -0.67809  -0.65937  -0.61612
 Alpha  occ. eigenvalues --   -0.58364  -0.56196  -0.55430  -0.51585  -0.51132
 Alpha  occ. eigenvalues --   -0.50401  -0.49024  -0.44095  -0.41811  -0.40869
 Alpha  occ. eigenvalues --   -0.40286  -0.39884  -0.38989  -0.37468  -0.37032
 Alpha  occ. eigenvalues --   -0.36509  -0.35937  -0.34940  -0.34294  -0.33644
 Alpha  occ. eigenvalues --   -0.33327  -0.32455  -0.31998  -0.31398  -0.30317
 Alpha  occ. eigenvalues --   -0.29641  -0.29369  -0.28260  -0.27070  -0.26475
 Alpha  occ. eigenvalues --   -0.25419  -0.24954  -0.24377  -0.24138  -0.22962
 Alpha  occ. eigenvalues --   -0.22509  -0.21563  -0.20444  -0.19445  -0.17624
 Alpha  occ. eigenvalues --   -0.16667  -0.15218  -0.12529   0.03806
 Alpha virt. eigenvalues --    0.05678   0.06159   0.06666   0.07160   0.07850
 Alpha virt. eigenvalues --    0.08474   0.09098   0.09579   0.09883   0.10111
 Alpha virt. eigenvalues --    0.10461   0.10994   0.11313   0.11848   0.12281

  Beta  occ. eigenvalues --  -88.97090 -88.76951 -88.76075 -19.08791 -19.02973
  Beta  occ. eigenvalues --  -19.02152 -19.01795 -19.00572 -14.26673 -14.25789
  Beta  occ. eigenvalues --  -10.21993 -10.19791 -10.15625 -10.14922 -10.13179
  Beta  occ. eigenvalues --  -10.12699 -10.10953 -10.08642 -10.08115 -10.07566
  Beta  occ. eigenvalues --   -8.03107  -7.85570  -7.84728  -5.99414  -5.99340
  Beta  occ. eigenvalues --   -5.99225  -5.81900  -5.81570  -5.81063  -5.81006
  Beta  occ. eigenvalues --   -5.80808  -5.80081  -1.02950  -1.02341  -0.95959
  Beta  occ. eigenvalues --   -0.93903  -0.91360  -0.87190  -0.86813  -0.73202
  Beta  occ. eigenvalues --   -0.71926  -0.71158  -0.67500  -0.65873  -0.61457
  Beta  occ. eigenvalues --   -0.58245  -0.56022  -0.55350  -0.51459  -0.50994
  Beta  occ. eigenvalues --   -0.50308  -0.48950  -0.43964  -0.41755  -0.40791
  Beta  occ. eigenvalues --   -0.40127  -0.39810  -0.38905  -0.37300  -0.36975
  Beta  occ. eigenvalues --   -0.36217  -0.35647  -0.34869  -0.34192  -0.33488
  Beta  occ. eigenvalues --   -0.33208  -0.32384  -0.31709  -0.31331  -0.30248
  Beta  occ. eigenvalues --   -0.29582  -0.29331  -0.28202  -0.26972  -0.26298
  Beta  occ. eigenvalues --   -0.25339  -0.24687  -0.24213  -0.23879  -0.22877
  Beta  occ. eigenvalues --   -0.22367  -0.21474  -0.20348  -0.19302  -0.17563
  Beta  occ. eigenvalues --   -0.16597  -0.15172  -0.11817
  Beta virt. eigenvalues --    0.05927   0.06385   0.06995   0.07395   0.07948
  Beta virt. eigenvalues --    0.08186   0.08661   0.09379   0.09772   0.10139
  Beta virt. eigenvalues --    0.10332   0.10591   0.11110   0.11602   0.11917

 Mulliken charges and spin densities:
               1          2
     1  C   -0.454148  -0.260928
     2  C   -0.477702   0.133112
     3  C   -0.106402   0.013866
     4  N    0.193177   0.014265
     5  C   -0.456065   0.356866
     6  C   -0.285600  -0.480216
     7  S    0.082269   0.036452
     8  C   -0.021069  -0.116837
     9  O   -0.233729   0.012371
    10  O   -0.113444  -0.012419
    11  S    0.711523  -0.309511
    12  O   -0.103895   0.004504
    13  O   -0.065608  -0.025656
    14  C    0.789072  -0.770623
    15  C   -0.602052   0.722631
    16  N   -0.118718   0.076808
    17  C   -0.115086   0.052607
    18  O   -0.361803   0.030278
    19  S   -0.260994   0.187268
    20  C    0.051115  -0.801798
    21  H    0.097261   0.027358
    22  H    0.066134   0.074204
    23  H    0.098990   0.038224
    24  H    0.149777   0.018076
    25  H    0.207554   0.030471
    26  H    0.350979  -0.023221
    27  H    0.156821   0.143239
    28  H    0.077102   0.143214
    29  H    0.163836   0.064720
    30  H    0.219289   0.069412
    31  H   -0.265753   0.630772
    32  H    0.020205   0.146077
    33  H    0.092224   0.110485
    34  H   -0.485259   0.663928
 Sum of Mulliken charges =  -1.00000   1.00000

 Dipole moment (field-independent basis, Debye):
    X=             -6.7860    Y=              1.6248    Z=             -3.2349  Tot=              7.6912
 Quadrupole moment (field-independent basis, Debye-Ang):
   XX=           -220.0678   YY=           -170.9759   ZZ=           -175.7169
   XY=             -5.9439   XZ=              4.8744   YZ=              1.6140

 Summary of Natural Population Analysis:

                                       Natural Population
                Natural  -----------------------------------------------
    Atom  No    Charge         Core      Valence    Rydberg      Total
 -----------------------------------------------------------------------
      C    1   -0.28947      0.99966     2.28510    0.00471     3.28947
      C    2   -0.20213      0.99959     2.19309    0.00945     3.20213
      C    3   -0.05757      0.99956     2.04293    0.01509     3.05757
      N    4   -0.38353      0.99968     2.86654    0.01731     3.88353
      C    5   -0.05243      0.99952     2.03618    0.01674     3.05243
      C    6   -0.24598      0.99957     2.23686    0.00955     3.24598
      S    7    0.09786      4.99962     2.88573    0.01680     7.90214
      C    8    0.41678      0.99967     1.55752    0.02603     2.58322
      O    9   -0.30371      0.99987     3.29739    0.00645     4.30371
      O   10   -0.33643      0.99987     3.32978    0.00678     4.33643
      S   11    1.13595      4.99902     1.76356    0.10147     6.86405
      O   12   -0.46588      0.99990     3.46065    0.00532     4.46588
      O   13   -0.45586      0.99990     3.45052    0.00544     4.45586
      C   14   -0.26454      0.99929     2.25001    0.01524     3.26454
      C   15    0.15137      0.99942     1.83635    0.01286     2.84863
      N   16   -0.30765      0.99962     2.79726    0.01077     3.80765
      C   17    0.26972      0.99973     1.70024    0.03031     2.73028
      O   18   -0.30491      0.99986     3.29717    0.00788     4.30491
      S   19    0.15873      4.99944     2.82288    0.01895     7.84127
      C   20   -0.30941      0.99962     2.30386    0.00594     3.30941
      H   21    0.09990      0.00000     0.39871    0.00139     0.40010
      H   22    0.10016      0.00000     0.39888    0.00095     0.39984
      H   23    0.09651      0.00000     0.40249    0.00100     0.40349
      H   24    0.09768      0.00000     0.40093    0.00139     0.40232
      H   25    0.11147      0.00000     0.38676    0.00177     0.38853
      H   26    0.11449      0.00000     0.38398    0.00153     0.38551
      H   27    0.11703      0.00000     0.38120    0.00178     0.38297
      H   28    0.10299      0.00000     0.39513    0.00188     0.39701
      H   29    0.11498      0.00000     0.38379    0.00122     0.38502
      H   30    0.23880      0.00000     0.25742    0.00378     0.26120
      H   31    0.20785      0.00000     0.28528    0.00687     0.29215
      H   32    0.10624      0.00000     0.39267    0.00109     0.39376
      H   33    0.12659      0.00000     0.37217    0.00124     0.37341
      H   34    0.11443      0.00000     0.38127    0.00430     0.38557
 =======================================================================
   * Total *    0.00000     31.99242    55.63429    0.37329    88.00000

 Normal termination of Gaussian 16 at Sat Dec 12 18:09:10 2020.
