 Gaussian 16, Revision A.03,

 -----------------------------------------------------------
 # opt freq B3LYP/6-31G(d) empiricaldispersion=gd3bj scf=xqc
 -----------------------------------------------------------

 -------------------------------
 CID_150583933_JID_2391_neutraal
 -------------------------------
 Symbolic Z-matrix:
 Charge =  0 Multiplicity = 1

 SCF Done:  E(RB3LYP) =  -537.528195744     A.U. after   14 cycles
 SCF Done:  E(RB3LYP) =  -537.532903575     A.U. after   12 cycles
 SCF Done:  E(RB3LYP) =  -537.533473991     A.U. after   11 cycles
 SCF Done:  E(RB3LYP) =  -537.533599425     A.U. after   10 cycles
 SCF Done:  E(RB3LYP) =  -537.533799075     A.U. after   11 cycles
 SCF Done:  E(RB3LYP) =  -537.533953703     A.U. after   11 cycles
 SCF Done:  E(RB3LYP) =  -537.534114214     A.U. after   10 cycles
 SCF Done:  E(RB3LYP) =  -537.534309280     A.U. after   11 cycles
 SCF Done:  E(RB3LYP) =  -537.534537420     A.U. after   13 cycles
 SCF Done:  E(RB3LYP) =  -537.534552031     A.U. after   10 cycles
 SCF Done:  E(RB3LYP) =  -537.534725457     A.U. after    9 cycles
 SCF Done:  E(RB3LYP) =  -537.534728525     A.U. after   10 cycles
 SCF Done:  E(RB3LYP) =  -537.534729822     A.U. after    9 cycles
 SCF Done:  E(RB3LYP) =  -537.534729982     A.U. after    7 cycles
 SCF Done:  E(RB3LYP) =  -537.534730047     A.U. after    7 cycles
 Optimization completed.
    -- Stationary point found.
 Normal termination of Gaussian 16 at Wed Dec  9 17:22:04 2020.

 --------------------------------------------------------------------
 #N Geom=AllCheck Guess=TCheck SCRF=Check GenChk RB3LYP/6-31G(d) Freq
 --------------------------------------------------------------------

 Structure from the checkpoint file:  "JID_2391.chk"
 -------------------------------
 CID_150583933_JID_2391_neutraal
 -------------------------------
 Charge =  0 Multiplicity = 1

 SCF Done:  E(RB3LYP) =  -537.534730047     A.U. after    1 cycles

  Exact polarizability: 176.746   0.095 111.400  -0.001  -0.003  50.948
 Approx polarizability: 249.225   3.970 188.054  -0.001  -0.006  76.896

                      1                      2                      3
                      A                      A                      A
 Frequencies --     31.5749                55.9521                96.3855
 Red. masses --      2.2781                 1.2680                 3.4559
 Frc consts  --      0.0013                 0.0023                 0.0189
 IR Inten    --      0.4155                 0.5704                 1.1978

                      4                      5                      6
                      A                      A                      A
 Frequencies --    119.9997               129.1939               220.2098
 Red. masses --      4.0921                 1.1007                 3.9555
 Frc consts  --      0.0347                 0.0108                 0.1130
 IR Inten    --      0.9028                 0.0886                 0.2174

                      7                      8                      9
                      A                      A                      A
 Frequencies --    252.4632               268.9450               337.7257
 Red. masses --      3.1768                 3.4161                 2.9403
 Frc consts  --      0.1193                 0.1456                 0.1976
 IR Inten    --      1.2046                 0.8518                 0.0552

                     10                     11                     12
                      A                      A                      A
 Frequencies --    360.6005               382.8687               495.2395
 Red. masses --      5.4657                 6.1712                 3.7579
 Frc consts  --      0.4187                 0.5330                 0.5430
 IR Inten    --      1.8159                 1.0090                 2.5890

                     13                     14                     15
                      A                      A                      A
 Frequencies --    605.8756               617.4337               650.5828
 Red. masses --      3.2481                 3.2620                 5.2409
 Frc consts  --      0.7025                 0.7327                 1.3069
 IR Inten    --     14.6345                 1.0336                 3.1842

                     16                     17                     18
                      A                      A                      A
 Frequencies --    658.9183               680.8634               699.8721
 Red. masses --      4.9231                 4.5489                 2.7900
 Frc consts  --      1.2594                 1.2425                 0.8052
 IR Inten    --      2.1356                 3.2782                 3.2704

                     19                     20                     21
                      A                      A                      A
 Frequencies --    726.1530               739.9993               818.1345
 Red. masses --      1.4126                 1.6068                 1.3751
 Frc consts  --      0.4389                 0.5184                 0.5423
 IR Inten    --     35.8539                 4.0299                22.8605

                     22                     23                     24
                      A                      A                      A
 Frequencies --    841.3403               905.8410               937.1380
 Red. masses --      1.2567                 6.5962                 6.3336
 Frc consts  --      0.5241                 3.1890                 3.2773
 IR Inten    --      5.8417                35.7934                18.7051

                     25                     26                     27
                      A                      A                      A
 Frequencies --    999.3075              1003.1452              1031.1146
 Red. masses --      2.0292                 1.7149                 2.0184
 Frc consts  --      1.1939                 1.0168                 1.2643
 IR Inten    --      6.1450                 3.5842                 5.1376

                     28                     29                     30
                      A                      A                      A
 Frequencies --   1059.2621              1078.6772              1080.0282
 Red. masses --      2.2418                 1.4464                 1.4582
 Frc consts  --      1.4820                 0.9915                 1.0022
 IR Inten    --      9.6856                 1.0532                 2.7425

                     31                     32                     33
                      A                      A                      A
 Frequencies --   1093.8044              1122.6838              1171.5294
 Red. masses --      1.6954                 2.9923                 4.1771
 Frc consts  --      1.1951                 2.2221                 3.3778
 IR Inten    --      1.3507                39.2042                 0.4363

                     34                     35                     36
                      A                      A                      A
 Frequencies --   1203.1471              1222.6590              1268.8747
 Red. masses --      2.3508                 2.4781                 1.8290
 Frc consts  --      2.0050                 2.1826                 1.7351
 IR Inten    --      4.1290                12.1970                 3.2142

                     37                     38                     39
                      A                      A                      A
 Frequencies --   1292.5701              1337.9969              1412.8924
 Red. masses --      2.0660                 4.3075                 3.3630
 Frc consts  --      2.0337                 4.5434                 3.9554
 IR Inten    --      1.9786                 2.6216                 2.9818

                     40                     41                     42
                      A                      A                      A
 Frequencies --   1446.3705              1449.6880              1458.4596
 Red. masses --      1.2583                 1.3569                 3.9633
 Frc consts  --      1.5510                 1.6801                 4.9670
 IR Inten    --      0.9674                 0.6064                10.6942

                     43                     44                     45
                      A                      A                      A
 Frequencies --   1511.5887              1513.1961              1524.1382
 Red. masses --      2.3196                 1.0430                 1.0442
 Frc consts  --      3.1227                 1.4072                 1.4292
 IR Inten    --      4.7734                 5.4802                 5.1960

                     46                     47                     48
                      A                      A                      A
 Frequencies --   1527.7313              1530.7133              1590.4686
 Red. masses --      1.1159                 1.5173                 4.9247
 Frc consts  --      1.5345                 2.0947                 7.3397
 IR Inten    --      4.6089                 9.3979                 3.2439

                     49                     50                     51
                      A                      A                      A
 Frequencies --   1647.1303              1699.0618              3043.9383
 Red. masses --      5.3787                 8.4164                 1.0417
 Frc consts  --      8.5977                14.3151                 5.6867
 IR Inten    --     14.1974                 9.3809                55.4433

                     52                     53                     54
                      A                      A                      A
 Frequencies --   3045.4604              3087.8670              3097.1327
 Red. masses --      1.0369                 1.1008                 1.1014
 Frc consts  --      5.6660                 6.1843                 6.2245
 IR Inten    --     35.0066                22.7594                21.7170

                     55                     56                     57
                      A                      A                      A
 Frequencies --   3124.1050              3171.4813              3260.4324
 Red. masses --      1.1012                 1.0957                 1.0925
 Frc consts  --      6.3323                 6.4930                 6.8426
 IR Inten    --     19.7854                 3.5439                 6.0616

                     58                     59                     60
                      A                      A                      A
 Frequencies --   3276.6034              3294.9641              3301.6090
 Red. masses --      1.0962                 1.0983                 1.1033
 Frc consts  --      6.9343                 7.0256                 7.0861
 IR Inten    --      1.9629                 0.3699                 1.2635

 - Thermochemistry -
 -------------------
 Temperature   298.150 Kelvin.  Pressure   1.00000 Atm.
 Atom     1 has atomic number  6 and mass  12.00000

 Molecular mass:   162.06808 amu.
 Principal axes and moments of inertia in atomic units:
                           1         2         3
     Eigenvalues --   792.316883125.632943895.53175
           X            0.99976   0.02210  -0.00000
           Y           -0.02210   0.99976  -0.00000
           Z            0.00000   0.00000   1.00000
 This molecule is an asymmetric top.
 Rotational symmetry number  1.
 Warning -- assumption of classical behavior for rotation
           may cause significant error
 Rotational temperatures (Kelvin)      0.10932     0.02771     0.02223
 Rotational constants (GHZ):           2.27780     0.57740     0.46328
 Zero-point vibrational energy     464229.7 (Joules/Mol)
                                  110.95356 (Kcal/Mol)
 Warning -- explicit consideration of  14 degrees of freedom as
           vibrations may cause significant error
 Vibrational temperatures:     45.43    80.50   138.68   172.65   185.88
          (Kelvin)            316.83   363.24   386.95   485.91   518.82
                              550.86   712.54   871.72   888.35   936.04
                              948.04   979.61  1006.96  1044.77  1064.69
                             1177.11  1210.50  1303.30  1348.33  1437.78
                             1443.30  1483.54  1524.04  1551.98  1553.92
                             1573.74  1615.29  1685.57  1731.06  1759.13
                             1825.63  1859.72  1925.08  2032.84  2081.00
                             2085.78  2098.40  2174.84  2177.15  2192.89
                             2198.06  2202.35  2288.33  2369.85  2444.57
                             4379.55  4381.74  4442.75  4456.08  4494.89
                             4563.05  4691.03  4714.30  4740.72  4750.28

 Zero-point correction=                           0.176816 (Hartree/Particle)
 Thermal correction to Energy=                    0.187839
 Thermal correction to Enthalpy=                  0.188783
 Thermal correction to Gibbs Free Energy=         0.138726
 Sum of electronic and zero-point Energies=           -537.357914
 Sum of electronic and thermal Energies=              -537.346891
 Sum of electronic and thermal Enthalpies=            -537.345947
 Sum of electronic and thermal Free Energies=         -537.396004

                     E (Thermal)             CV                S
                      KCal/Mol        Cal/Mol-Kelvin    Cal/Mol-Kelvin
 Total                  117.871             40.650            105.354
 Electronic               0.000              0.000              0.000
 Translational            0.889              2.981             41.157
 Rotational               0.889              2.981             30.646
 Vibrational            116.093             34.689             33.551
 Vibration     1          0.594              1.983              5.728
 Vibration     2          0.596              1.975              4.595
 Vibration     3          0.603              1.952              3.526
 Vibration     4          0.609              1.933              3.100
 Vibration     5          0.612              1.924              2.958
 Vibration     6          0.647              1.810              1.957
 Vibration     7          0.664              1.759              1.713
 Vibration     8          0.673              1.730              1.603
 Vibration     9          0.718              1.600              1.223
 Vibration    10          0.735              1.553              1.120
 Vibration    11          0.752              1.507              1.028
 Vibration    12          0.851              1.261              0.670
 Vibration    13          0.965              1.019              0.440
 Vibration    14          0.977              0.995              0.421

                           ! Non-Optimized Parameters !
 Normal termination of Gaussian 16 at Wed Dec  9 17:26:20 2020.

 ----------------------------------------------------------------------
 # B3LYP/6-311++G(d,p) empiricaldispersion=gd3bj scf=xqc pop=npa geom=c
 heck
 ----------------------------------------------------------------------

 ---------------------------------------
 CID_150583933_JID_2391_Energie_neutraal
 ---------------------------------------
 Structure from the checkpoint file:  "JID_2391.chk"
 Charge =  0 Multiplicity = 1

 SCF Done:  E(RB3LYP) =  -537.678731817     A.U. after   14 cycles
 Normal termination of Gaussian 16 at Wed Dec  9 17:27:57 2020.

 ----------------------------------------------------------------------
 # B3LYP/6-311++G(d,p) empiricaldispersion=gd3bj scf=xqc pop=npa geom=c
 heck
 ----------------------------------------------------------------------

 -------------------------------------
 CID_150583933_JID_2391_Energie_kation
 -------------------------------------
 Structure from the checkpoint file:  "JID_2391.chk"
 Charge =  1 Multiplicity = 2

 SCF Done:  E(UB3LYP) =  -537.415442663     A.U. after   18 cycles
 Normal termination of Gaussian 16 at Wed Dec  9 17:31:03 2020.
 Gaussian 16:  ES64L-G16RevA.03 25-Dec-2016

 ----------------------------------------------------------------------
 # B3LYP/6-311++G(d,p) empiricaldispersion=gd3bj scf=xqc pop=npa geom=c
 heck
 ----------------------------------------------------------------------

 ------------------------------------
 CID_150583933_JID_2391_Energie_anion
 ------------------------------------
 Structure from the checkpoint file:  "JID_2391.chk"
 Charge = -1 Multiplicity = 2

                         Standard orientation:
 ---------------------------------------------------------------------
 Center     Atomic      Atomic             Coordinates (Angstroms)
 Number     Number       Type             X           Y           Z
 ---------------------------------------------------------------------
      1          6           0        2.104652    2.084611    0.000124
      2          6           0        2.070261    0.586505    0.000073
      3          6           0        0.974226   -0.245043    0.000025
      4          8           0        1.376405   -1.560322   -0.000081
      5          6           0        2.739184   -1.560480   -0.000082
      6          6           0        3.212456   -0.286094   -0.000001
      7          6           0       -0.450374   -0.048047    0.000008
      8          6           0       -1.501796   -0.926295    0.000115
      9          6           0       -2.703307   -0.139392    0.000037
     10          6           0       -2.290003    1.159485   -0.000136
     11          8           0       -0.922540    1.238061   -0.000151
     12          6           0       -4.114283   -0.642640    0.000065
     13          1           0        2.636113    2.464554    0.881684
     14          1           0        2.633840    2.464710   -0.882755
     15          1           0        1.098972    2.506379    0.001393
     16          1           0        3.206186   -2.533190   -0.000114
     17          1           0        4.250580    0.017418    0.000047
     18          1           0       -1.426032   -2.004061    0.000277
     19          1           0       -2.812001    2.103945   -0.000231
     20          1           0       -4.317136   -1.261188   -0.882519
     21          1           0       -4.317101   -1.261244    0.882617
     22          1           0       -4.830433    0.185111    0.000103
 ---------------------------------------------------------------------

 SCF Done:  E(UB3LYP) =  -537.653251244     A.U. after   33 cycles
 SCF Done:  E(UB3LYP) =  -537.653251244     a.u. after    1 cycles

 The electronic state is 2-A.
 Alpha  occ. eigenvalues --  -19.00915 -19.00785 -10.05420 -10.05007 -10.04948
 Alpha  occ. eigenvalues --  -10.04937 -10.04908 -10.02611 -10.02395 -10.01422
 Alpha  occ. eigenvalues --  -10.00417  -9.99168  -0.94388  -0.93749  -0.66098
 Alpha  occ. eigenvalues --   -0.65378  -0.62380  -0.57881  -0.56232  -0.53813
 Alpha  occ. eigenvalues --   -0.44402  -0.43852  -0.41285  -0.37762  -0.36691
 Alpha  occ. eigenvalues --   -0.33960  -0.30914  -0.29566  -0.29261  -0.28420
 Alpha  occ. eigenvalues --   -0.27514  -0.27483  -0.26611  -0.25453  -0.24403
 Alpha  occ. eigenvalues --   -0.22701  -0.22613  -0.21205  -0.18876  -0.12307
 Alpha  occ. eigenvalues --   -0.11934  -0.11041  -0.04152   0.08260
 Alpha virt. eigenvalues --    0.08595   0.09382   0.10124   0.10957   0.11649
 Alpha virt. eigenvalues --    0.12147   0.12586   0.12765   0.14200   0.16219
 Alpha virt. eigenvalues --    0.16258   0.17033   0.17111   0.17424   0.18518

  Beta  occ. eigenvalues --  -19.00618 -19.00464 -10.05169 -10.04903 -10.04825
  Beta  occ. eigenvalues --  -10.04787 -10.04733 -10.02633 -10.02475 -10.01505
  Beta  occ. eigenvalues --  -10.00172  -9.98977  -0.93884  -0.93246  -0.65934
  Beta  occ. eigenvalues --   -0.65030  -0.61852  -0.57680  -0.56042  -0.53513
  Beta  occ. eigenvalues --   -0.44086  -0.43415  -0.41079  -0.37486  -0.36481
  Beta  occ. eigenvalues --   -0.33724  -0.30186  -0.29146  -0.29004  -0.28342
  Beta  occ. eigenvalues --   -0.27168  -0.26743  -0.25805  -0.25313  -0.24300
  Beta  occ. eigenvalues --   -0.22542  -0.22450  -0.20989  -0.18669  -0.11104
  Beta  occ. eigenvalues --   -0.10621  -0.09787  -0.02571
  Beta virt. eigenvalues --    0.08519   0.09286   0.10068   0.10877   0.11530
  Beta virt. eigenvalues --    0.12075   0.12498   0.12678   0.13835   0.14048
  Beta virt. eigenvalues --    0.16106   0.16849   0.16890   0.16974   0.17824

 Mulliken charges and spin densities:
               1          2
     1  C   -0.643468  -0.027676
     2  C    0.232892   0.105985
     3  C   -0.214328   0.100151
     4  O   -0.059120   0.040592
     5  C   -0.108102   0.284613
     6  C   -0.231505  -0.097418
     7  C   -0.324664   0.130948
     8  C    0.011541   0.171196
     9  C    0.287760  -0.089158
    10  C   -0.527232   0.267261
    11  O   -0.039874   0.036506
    12  C   -0.525964   0.047376
    13  H    0.066396   0.039207
    14  H    0.066311   0.039356
    15  H    0.187506   0.000376
    16  H    0.111183  -0.016463
    17  H    0.099050   0.004934
    18  H    0.125641  -0.014080
    19  H    0.102896  -0.017406
    20  H    0.126371  -0.002671
    21  H    0.126316  -0.002621
    22  H    0.130394  -0.001009
 Sum of Mulliken charges =  -1.00000   1.00000

 Dipole moment (field-independent basis, Debye):
    X=             -1.0518    Y=              0.1778    Z=              0.0002  Tot=              1.0667
 Quadrupole moment (field-independent basis, Debye-Ang):
   XX=            -98.2016   YY=            -84.3647   ZZ=            -83.8799
   XY=              1.9811   XZ=              0.0039   YZ=             -0.0005

 Summary of Natural Population Analysis:

                                       Natural Population
                Natural  -----------------------------------------------
    Atom  No    Charge         Core      Valence    Rydberg      Total
 -----------------------------------------------------------------------
      C    1   -0.29364      0.99961     2.28890    0.00513     3.29364
      C    2   -0.02728      0.99952     2.01737    0.01040     3.02728
      C    3    0.14895      0.99931     1.83613    0.01561     2.85105
      O    4   -0.21632      0.99986     3.20713    0.00933     4.21632
      C    5    0.09651      0.99953     1.88737    0.01659     2.90349
      C    6   -0.18186      0.99953     2.17281    0.00952     3.18186
      C    7    0.16494      0.99944     1.82289    0.01273     2.83506
      C    8   -0.11984      0.99942     2.11097    0.00945     3.11984
      C    9   -0.08917      0.99953     2.08140    0.00824     3.08917
      C   10    0.08102      0.99944     1.90321    0.01633     2.91898
      O   11   -0.21760      0.99986     3.20896    0.00878     4.21760
      C   12   -0.28599      0.99964     2.28173    0.00462     3.28599
      H   13    0.09297      0.00000     0.40591    0.00111     0.40703
      H   14    0.09299      0.00000     0.40589    0.00111     0.40701
      H   15    0.11420      0.00000     0.38482    0.00099     0.38580
      H   16    0.08075      0.00000     0.41832    0.00092     0.41925
      H   17    0.09522      0.00000     0.40403    0.00076     0.40478
      H   18    0.10025      0.00000     0.39904    0.00071     0.39975
      H   19    0.08157      0.00000     0.41756    0.00087     0.41843
      H   20    0.09377      0.00000     0.40476    0.00147     0.40623
      H   21    0.09377      0.00000     0.40476    0.00147     0.40623
      H   22    0.09503      0.00000     0.40406    0.00092     0.40497
 =======================================================================
   * Total *    0.00023     11.99468    30.86803    0.13705    42.99977

 Normal termination of Gaussian 16 at Wed Dec  9 17:36:42 2020.
