 Gaussian 16, Revision A.03,

 -----------------------------------------------------------
 # opt freq B3LYP/6-31G(d) empiricaldispersion=gd3bj scf=xqc
 -----------------------------------------------------------

 -------------------------------
 CID_113362048_JID_8355_neutraal
 -------------------------------
 Symbolic Z-matrix:
 Charge =  0 Multiplicity = 1

 SCF Done:  E(RB3LYP) =  -826.582952467     A.U. after   14 cycles
 SCF Done:  E(RB3LYP) =  -826.588696926     A.U. after   12 cycles
 SCF Done:  E(RB3LYP) =  -826.589178767     A.U. after   11 cycles
 SCF Done:  E(RB3LYP) =  -826.589878270     A.U. after   12 cycles
 SCF Done:  E(RB3LYP) =  -826.590362091     A.U. after   11 cycles
 SCF Done:  E(RB3LYP) =  -826.591114487     A.U. after   12 cycles
 SCF Done:  E(RB3LYP) =  -826.591703249     A.U. after   12 cycles
 SCF Done:  E(RB3LYP) =  -826.592738744     A.U. after   11 cycles
 SCF Done:  E(RB3LYP) =  -826.593596942     A.U. after   12 cycles
 SCF Done:  E(RB3LYP) =  -826.593757773     A.U. after   11 cycles
 SCF Done:  E(RB3LYP) =  -826.593895582     A.U. after    8 cycles
 SCF Done:  E(RB3LYP) =  -826.593895992     A.U. after    7 cycles
 SCF Done:  E(RB3LYP) =  -826.593896169     A.U. after    8 cycles
 SCF Done:  E(RB3LYP) =  -826.593896185     A.U. after    7 cycles
 SCF Done:  E(RB3LYP) =  -826.593896176     A.U. after    6 cycles
 Optimization completed.
    -- Stationary point found.
 Normal termination of Gaussian 16 at Fri Dec 11 20:17:26 2020.

 --------------------------------------------------------------------
 #N Geom=AllCheck Guess=TCheck SCRF=Check GenChk RB3LYP/6-31G(d) Freq
 --------------------------------------------------------------------

 Structure from the checkpoint file:  "JID_8355.chk"
 -------------------------------
 CID_113362048_JID_8355_neutraal
 -------------------------------
 Charge =  0 Multiplicity = 1

 SCF Done:  E(RB3LYP) =  -826.593896176     A.U. after    1 cycles

  Exact polarizability: 197.397 -21.688 134.835  10.647   5.083 142.165
 Approx polarizability: 254.545 -39.852 200.433  18.419  23.935 235.173

                      1                      2                      3
                      A                      A                      A
 Frequencies --     18.8739                35.5449                42.1973
 Red. masses --      4.6262                 3.2300                 3.2337
 Frc consts  --      0.0010                 0.0024                 0.0034
 IR Inten    --      0.2414                 0.7495                 0.2842

                      4                      5                      6
                      A                      A                      A
 Frequencies --     50.9606                64.3801                68.5011
 Red. masses --      3.4154                 2.9031                 3.3670
 Frc consts  --      0.0052                 0.0071                 0.0093
 IR Inten    --      1.5393                 0.3105                 1.9699

                      7                      8                      9
                      A                      A                      A
 Frequencies --    104.2654               127.2022               153.7863
 Red. masses --      3.3954                 3.9897                 2.2860
 Frc consts  --      0.0217                 0.0380                 0.0319
 IR Inten    --      2.1919                 8.0869                 3.3344

                     10                     11                     12
                      A                      A                      A
 Frequencies --    157.4512               192.9763               211.4339
 Red. masses --      3.0851                 3.6381                 1.9870
 Frc consts  --      0.0451                 0.0798                 0.0523
 IR Inten    --      0.5687                 0.3972                 1.9627

                     13                     14                     15
                      A                      A                      A
 Frequencies --    238.9590               246.5233               267.6111
 Red. masses --      3.1916                 4.1396                 2.8952
 Frc consts  --      0.1074                 0.1482                 0.1222
 IR Inten    --      1.4822                 1.6961                 4.4185

                     16                     17                     18
                      A                      A                      A
 Frequencies --    301.2595               304.7113               343.6952
 Red. masses --      1.4931                 1.5158                 3.4717
 Frc consts  --      0.0798                 0.0829                 0.2416
 IR Inten    --     55.3240                75.2534                 7.2662

                     19                     20                     21
                      A                      A                      A
 Frequencies --    374.2129               398.6839               445.9138
 Red. masses --      2.1163                 1.9345                 2.6220
 Frc consts  --      0.1746                 0.1812                 0.3072
 IR Inten    --      2.3495                 0.0332                 0.8518

                     22                     23                     24
                      A                      A                      A
 Frequencies --    467.1566               503.5918               543.0025
 Red. masses --      4.6173                 4.4117                 4.1783
 Frc consts  --      0.5937                 0.6592                 0.7259
 IR Inten    --      3.7764                 1.2286                 5.2472

                     25                     26                     27
                      A                      A                      A
 Frequencies --    603.9455               621.7133               686.8306
 Red. masses --      4.7828                 5.1103                 5.9942
 Frc consts  --      1.0278                 1.1638                 1.6660
 IR Inten    --      5.2023                 7.0681                 5.5763

                     28                     29                     30
                      A                      A                      A
 Frequencies --    692.3553               724.7388               737.8062
 Red. masses --      3.4624                 3.0207                 2.8129
 Frc consts  --      0.9779                 0.9348                 0.9022
 IR Inten    --      2.6454                 6.5417                 2.1090

                     31                     32                     33
                      A                      A                      A
 Frequencies --    745.8765               788.4682               838.9055
 Red. masses --      3.0993                 1.5018                 1.6010
 Frc consts  --      1.0159                 0.5501                 0.6638
 IR Inten    --     19.1902                 1.6809                 1.8695

                     34                     35                     36
                      A                      A                      A
 Frequencies --    870.7885               882.3766               897.7792
 Red. masses --      2.3408                 2.0964                 2.1764
 Frc consts  --      1.0458                 0.9617                 1.0335
 IR Inten    --     18.1039                15.0006                 0.9471

                     37                     38                     39
                      A                      A                      A
 Frequencies --    902.7162               919.4621               930.8845
 Red. masses --      2.3182                 1.5417                 3.0628
 Frc consts  --      1.1130                 0.7679                 1.5637
 IR Inten    --      1.2049                 7.9906                18.1705

                     40                     41                     42
                      A                      A                      A
 Frequencies --    938.8129               941.7441               949.1216
 Red. masses --      2.0264                 1.9752                 1.4509
 Frc consts  --      1.0523                 1.0321                 0.7701
 IR Inten    --     14.2309                 2.1231                 6.2283

                     43                     44                     45
                      A                      A                      A
 Frequencies --    955.8841               982.9530               998.9168
 Red. masses --      1.5761                 2.2474                 2.1808
 Frc consts  --      0.8485                 1.2794                 1.2821
 IR Inten    --      0.3478                24.4271                22.0464

                     46                     47                     48
                      A                      A                      A
 Frequencies --   1023.0143              1036.4288              1043.7832
 Red. masses --      2.0033                 2.6460                 3.0144
 Frc consts  --      1.2353                 1.6746                 1.9350
 IR Inten    --     36.0176                 5.8991                11.9094

                     49                     50                     51
                      A                      A                      A
 Frequencies --   1083.3247              1095.9671              1114.3190
 Red. masses --      2.1642                 2.6808                 2.3312
 Frc consts  --      1.4965                 1.8972                 1.7055
 IR Inten    --     25.5062                52.1253                67.4524

                     52                     53                     54
                      A                      A                      A
 Frequencies --   1119.1656              1143.8798              1162.7774
 Red. masses --      4.6138                 2.0347                 1.8101
 Frc consts  --      3.4049                 1.5686                 1.4419
 IR Inten    --     16.2444                 8.1429                58.4750

                     55                     56                     57
                      A                      A                      A
 Frequencies --   1181.9748              1187.4813              1205.4196
 Red. masses --      2.0035                 1.7552                 1.4828
 Frc consts  --      1.6491                 1.4582                 1.2694
 IR Inten    --     22.1852                 3.9598                34.8376

                     58                     59                     60
                      A                      A                      A
 Frequencies --   1216.0784              1227.1233              1235.1153
 Red. masses --      1.6273                 1.3424                 1.2241
 Frc consts  --      1.4179                 1.1910                 1.1002
 IR Inten    --     18.0978                23.5318                29.1461

                     61                     62                     63
                      A                      A                      A
 Frequencies --   1251.4962              1258.1079              1287.7618
 Red. masses --      1.1798                 1.2069                 1.1655
 Frc consts  --      1.0887                 1.1255                 1.1387
 IR Inten    --      5.2541                22.1698                 3.0186

                     64                     65                     66
                      A                      A                      A
 Frequencies --   1301.9224              1316.0133              1324.7248
 Red. masses --      1.4852                 2.3297                 1.5044
 Frc consts  --      1.4833                 2.3772                 1.5555
 IR Inten    --      0.7925                15.4620                58.0847

                     67                     68                     69
                      A                      A                      A
 Frequencies --   1325.9722              1332.2565              1342.4202
 Red. masses --      1.4314                 2.6800                 1.3373
 Frc consts  --      1.4828                 2.8026                 1.4198
 IR Inten    --     13.5283               229.5225                 4.1407

                     70                     71                     72
                      A                      A                      A
 Frequencies --   1363.0069              1369.9316              1373.8990
 Red. masses --      1.3238                 1.2993                 1.2934
 Frc consts  --      1.4490                 1.4367                 1.4385
 IR Inten    --     24.8943                 9.9043                 4.1029

                     73                     74                     75
                      A                      A                      A
 Frequencies --   1400.9817              1417.8702              1430.1207
 Red. masses --      1.3863                 1.4518                 1.4097
 Frc consts  --      1.6032                 1.7196                 1.6987
 IR Inten    --      1.9134                10.0361                 1.7419

                     76                     77                     78
                      A                      A                      A
 Frequencies --   1434.3316              1448.0403              1453.9373
 Red. masses --      1.3850                 1.2861                 1.5903
 Frc consts  --      1.6788                 1.5888                 1.9807
 IR Inten    --      5.9844                25.0695                23.2935

                     79                     80                     81
                      A                      A                      A
 Frequencies --   1488.2917              1508.5763              1510.6746
 Red. masses --      2.8684                 1.3163                 1.2967
 Frc consts  --      3.7434                 1.7650                 1.7435
 IR Inten    --    101.0632                38.4438                25.2687

                     82                     83                     84
                      A                      A                      A
 Frequencies --   1516.4274              1526.0848              1526.7960
 Red. masses --      1.4335                 1.0618                 1.1163
 Frc consts  --      1.9422                 1.4570                 1.5332
 IR Inten    --     25.9817                 5.5045                 4.6967

                     85                     86                     87
                      A                      A                      A
 Frequencies --   1539.8455              1546.3216              1547.7956
 Red. masses --      1.0624                 1.0891                 1.1282
 Frc consts  --      1.4842                 1.5343                 1.5924
 IR Inten    --      5.3550                 0.8225                 1.7521

                     88                     89                     90
                      A                      A                      A
 Frequencies --   1564.7184              1621.5501              1664.1694
 Red. masses --      1.0967                 5.3556                 5.9445
 Frc consts  --      1.5820                 8.2970                 9.6997
 IR Inten    --      0.7697                19.9006                53.9408

                     91                     92                     93
                      A                      A                      A
 Frequencies --   2978.4551              2982.2433              3015.8464
 Red. masses --      1.0828                 1.0720                 1.0559
 Frc consts  --      5.6596                 5.6176                 5.6583
 IR Inten    --     50.8409                91.3241                28.8891

                     94                     95                     96
                      A                      A                      A
 Frequencies --   3016.8478              3032.6354              3047.1979
 Red. masses --      1.0714                 1.0607                 1.0723
 Frc consts  --      5.7452                 5.7474                 5.8662
 IR Inten    --     54.7662                66.7718                10.1719

                     97                     98                     99
                      A                      A                      A
 Frequencies --   3052.9344              3061.8188              3063.3480
 Red. masses --      1.0388                 1.0962                 1.1002
 Frc consts  --      5.7046                 6.0549                 6.0830
 IR Inten    --     21.7457                57.3665                17.8195

                    100                    101                    102
                      A                      A                      A
 Frequencies --   3079.0279              3082.4215              3087.8290
 Red. masses --      1.0883                 1.0809                 1.1017
 Frc consts  --      6.0787                 6.0508                 6.1890
 IR Inten    --     19.1039                24.6859                22.6715

                    103                    104                    105
                      A                      A                      A
 Frequencies --   3094.6125              3098.5298              3118.3442
 Red. masses --      1.0921                 1.0855                 1.1011
 Frc consts  --      6.1618                 6.1402                 6.3085
 IR Inten    --     49.3703                28.8190                43.3572

                    106                    107                    108
                      A                      A                      A
 Frequencies --   3139.1353              3160.4024              3194.2939
 Red. masses --      1.1020                 1.0957                 1.0908
 Frc consts  --      6.3983                 6.4480                 6.5574
 IR Inten    --     33.7581                12.1816                 4.6677

                    109                    110                    111
                      A                      A                      A
 Frequencies --   3201.1058              3224.3921              3750.1576
 Red. masses --      1.0891                 1.0908                 1.0662
 Frc consts  --      6.5752                 6.6817                 8.8343
 IR Inten    --     28.5514                 3.6598                13.5006

 - Thermochemistry -
 -------------------
 Temperature   298.150 Kelvin.  Pressure   1.00000 Atm.
 Atom     1 has atomic number  6 and mass  12.00000

 Molecular mass:   251.15214 amu.
 Principal axes and moments of inertia in atomic units:
                           1         2         3
     Eigenvalues --  2753.118158782.729809924.96931
           X            0.99992  -0.01155  -0.00476
           Y            0.01146   0.99978  -0.01773
           Z            0.00497   0.01767   0.99983
 This molecule is an asymmetric top.
 Rotational symmetry number  1.
 Warning -- assumption of classical behavior for rotation
           may cause significant error
 Rotational temperatures (Kelvin)      0.03146     0.00986     0.00873
 Rotational constants (GHZ):           0.65553     0.20549     0.18184
 Zero-point vibrational energy     890179.9 (Joules/Mol)
                                  212.75809 (Kcal/Mol)
 Warning -- explicit consideration of  25 degrees of freedom as
           vibrations may cause significant error
 Vibrational temperatures:     27.16    51.14    60.71    73.32    92.63
          (Kelvin)             98.56   150.01   183.02   221.26   226.54
                              277.65   304.21   343.81   354.69   385.03
                              433.45   438.41   494.50   538.41   573.62
                              641.57   672.13   724.56   781.26   868.94
                              894.51   988.20   996.14  1042.74  1061.54
                             1073.15  1134.43  1207.00  1252.87  1269.54
                             1291.70  1298.81  1322.90  1339.34  1350.74
                             1354.96  1365.57  1375.30  1414.25  1437.22
                             1471.89  1491.19  1501.77  1558.66  1576.85
                             1603.26  1610.23  1645.79  1672.98  1700.60
                             1708.52  1734.33  1749.67  1765.56  1777.06
                             1800.62  1810.14  1852.80  1873.18  1893.45
                             1905.98  1907.78  1916.82  1931.44  1961.06
                             1971.03  1976.73  2015.70  2040.00  2057.62
                             2063.68  2083.41  2091.89  2141.32  2170.50
                             2173.52  2181.80  2195.70  2196.72  2215.49
                             2224.81  2226.93  2251.28  2333.05  2394.37
                             4285.33  4290.78  4339.13  4340.57  4363.29
                             4384.24  4392.49  4405.27  4407.47  4430.03
                             4434.92  4442.70  4452.46  4458.09  4486.60
                             4516.52  4547.11  4595.88  4605.68  4639.18
                             5395.64

 Zero-point correction=                           0.339052 (Hartree/Particle)
 Thermal correction to Energy=                    0.357081
 Thermal correction to Enthalpy=                  0.358025
 Thermal correction to Gibbs Free Energy=         0.290420
 Sum of electronic and zero-point Energies=           -826.254845
 Sum of electronic and thermal Energies=              -826.236816
 Sum of electronic and thermal Enthalpies=            -826.235871
 Sum of electronic and thermal Free Energies=         -826.303476

                     E (Thermal)             CV                S
                      KCal/Mol        Cal/Mol-Kelvin    Cal/Mol-Kelvin
 Total                  224.071             67.068            142.286
 Electronic               0.000              0.000              0.000
 Translational            0.889              2.981             42.463
 Rotational               0.889              2.981             33.839
 Vibrational            222.294             61.106             65.984
 Vibration     1          0.593              1.986              6.749
 Vibration     2          0.594              1.982              5.493
 Vibration     3          0.595              1.980              5.153
 Vibration     4          0.595              1.977              4.780
 Vibration     5          0.597              1.971              4.318
 Vibration     6          0.598              1.969              4.196
 Vibration     7          0.605              1.946              3.373
 Vibration     8          0.611              1.926              2.988
 Vibration     9          0.619              1.898              2.625
 Vibration    10          0.621              1.894              2.580
 Vibration    11          0.635              1.850              2.199
 Vibration    12          0.643              1.823              2.031
 Vibration    13          0.657              1.781              1.811
 Vibration    14          0.661              1.769              1.755
 Vibration    15          0.673              1.733              1.612
 Vibration    16          0.693              1.671              1.410
 Vibration    17          0.696              1.665              1.391
 Vibration    18          0.722              1.588              1.195
 Vibration    19          0.745              1.525              1.062
 Vibration    20          0.765              1.473              0.967
 Vibration    21          0.805              1.370              0.808
 Vibration    22          0.824              1.323              0.746
 Vibration    23          0.859              1.242              0.649
 Vibration    24          0.898              1.155              0.559
 Vibration    25          0.962              1.023              0.443

 Optimization completed.
    -- Stationary point found.
 Normal termination of Gaussian 16 at Fri Dec 11 20:33:31 2020.

 ----------------------------------------------------------------------
 # B3LYP/6-311++G(d,p) empiricaldispersion=gd3bj scf=xqc pop=npa geom=c
 heck
 ----------------------------------------------------------------------

 ---------------------------------------
 CID_113362048_JID_8355_Energie_neutraal
 ---------------------------------------
 Structure from the checkpoint file:  "JID_8355.chk"
 Charge =  0 Multiplicity = 1

 SCF Done:  E(RB3LYP) =  -826.831480358     A.U. after   15 cycles
 Normal termination of Gaussian 16 at Fri Dec 11 20:40:06 2020.

 ----------------------------------------------------------------------
 # B3LYP/6-311++G(d,p) empiricaldispersion=gd3bj scf=xqc pop=npa geom=c
 heck
 ----------------------------------------------------------------------

 -------------------------------------
 CID_113362048_JID_8355_Energie_kation
 -------------------------------------
 Structure from the checkpoint file:  "JID_8355.chk"
 Charge =  1 Multiplicity = 2

 SCF Done:  E(UB3LYP) =  -826.529734850     A.U. after   26 cycles
 Normal termination of Gaussian 16 at Fri Dec 11 20:55:42 2020.
 Gaussian 16:  ES64L-G16RevA.03 25-Dec-2016

 ----------------------------------------------------------------------
 # B3LYP/6-311++G(d,p) empiricaldispersion=gd3bj scf=xqc pop=npa geom=c
 heck
 ----------------------------------------------------------------------

 ------------------------------------
 CID_113362048_JID_8355_Energie_anion
 ------------------------------------
 Structure from the checkpoint file:  "JID_8355.chk"
 Charge = -1 Multiplicity = 2

                         Standard orientation:
 ---------------------------------------------------------------------
 Center     Atomic      Atomic             Coordinates (Angstroms)
 Number     Number       Type             X           Y           Z
 ---------------------------------------------------------------------
      1          6           0        5.517137   -0.734522   -1.381655
      2          6           0        4.988601   -1.410478   -0.114573
      3          6           0        3.967792   -0.563659    0.629635
      4          8           0        2.841776   -0.383272   -0.232355
      5          6           0        1.811811    0.390485    0.202318
      6          6           0        1.742724    1.014678    1.456253
      7          7           0        0.707699    1.777154    1.826747
      8          6           0       -0.305853    1.939989    0.972568
      9          6           0       -0.343662    1.342712   -0.294667
     10          6           0        0.743861    0.566727   -0.681416
     11          6           0       -1.542916    1.469448   -1.206478
     12          6           0       -2.420810    0.200096   -1.218270
     13          6           0       -3.044656   -0.158681    0.141624
     14          6           0       -2.150946   -1.067568    1.014099
     15          6           0       -2.500173   -2.485284    0.511522
     16          8           0       -3.724771   -2.379814   -0.226528
     17          6           0       -4.261340   -1.078114   -0.013368
     18          8           0       -2.293675    2.608438   -0.790434
     19          1           0        6.010520    0.215627   -1.143342
     20          1           0        4.699418   -0.522857   -2.076650
     21          1           0        6.245584   -1.372322   -1.893062
     22          1           0        4.527258   -2.374154   -0.363059
     23          1           0        5.813818   -1.622484    0.577423
     24          1           0        3.646933   -1.056794    1.557618
     25          1           0        4.391909    0.416368    0.891779
     26          1           0        2.540490    0.904967    2.184702
     27          1           0       -1.126776    2.568890    1.299172
     28          1           0        0.783660    0.084256   -1.654520
     29          1           0       -1.173835    1.623468   -2.233908
     30          1           0       -3.221805    0.371089   -1.953559
     31          1           0       -1.833370   -0.639655   -1.608581
     32          1           0       -3.311591    0.766384    0.662360
     33          1           0       -2.426689   -0.951999    2.067548
     34          1           0       -1.087053   -0.845332    0.926653
     35          1           0       -1.736548   -2.887035   -0.165721
     36          1           0       -2.621582   -3.194260    1.341528
     37          1           0       -4.882061   -1.052592    0.898406
     38          1           0       -4.898872   -0.836522   -0.870253
     39          1           0       -3.089362    2.647086   -1.342772
 ---------------------------------------------------------------------

 SCF Done:  E(UB3LYP) =  -826.824268616     A.U. after   33 cycles
 SCF Done:  E(UB3LYP) =  -826.824268616     a.u. after    1 cycles

 The electronic state is 2-A.
 Alpha  occ. eigenvalues --  -19.06276 -19.03167 -19.02886 -14.20321 -10.14042
 Alpha  occ. eigenvalues --  -10.13882 -10.13266 -10.12616 -10.12342 -10.09730
 Alpha  occ. eigenvalues --  -10.09153 -10.08721 -10.08513 -10.08180 -10.07825
 Alpha  occ. eigenvalues --  -10.07687 -10.07662 -10.07423  -0.98008  -0.94857
 Alpha  occ. eigenvalues --   -0.93340  -0.83661  -0.72673  -0.71603  -0.69675
 Alpha  occ. eigenvalues --   -0.66165  -0.65384  -0.62469  -0.60507  -0.55949
 Alpha  occ. eigenvalues --   -0.53071  -0.52122  -0.50564  -0.49099  -0.47590
 Alpha  occ. eigenvalues --   -0.44058  -0.42627  -0.41385  -0.40717  -0.40061
 Alpha  occ. eigenvalues --   -0.39581  -0.37437  -0.36821  -0.35577  -0.34891
 Alpha  occ. eigenvalues --   -0.34487  -0.33688  -0.32597  -0.30909  -0.30867
 Alpha  occ. eigenvalues --   -0.30369  -0.29728  -0.28807  -0.27829  -0.27037
 Alpha  occ. eigenvalues --   -0.26517  -0.26070  -0.25309  -0.24839  -0.24278
 Alpha  occ. eigenvalues --   -0.23980  -0.23454  -0.22831  -0.19455  -0.16838
 Alpha  occ. eigenvalues --   -0.16405  -0.15262  -0.13655   0.03841
 Alpha virt. eigenvalues --    0.05193   0.05908   0.06786   0.07257   0.07642
 Alpha virt. eigenvalues --    0.08039   0.08783   0.09346   0.09469   0.09619
 Alpha virt. eigenvalues --    0.10037   0.10686   0.10986   0.11283   0.11652

  Beta  occ. eigenvalues --  -19.06276 -19.03167 -19.02852 -14.20207 -10.14065
  Beta  occ. eigenvalues --  -10.13869 -10.13256 -10.12612 -10.12328 -10.09672
  Beta  occ. eigenvalues --  -10.09170 -10.08701 -10.08509 -10.08122 -10.07820
  Beta  occ. eigenvalues --  -10.07659 -10.07558 -10.07401  -0.98006  -0.94852
  Beta  occ. eigenvalues --   -0.93266  -0.83497  -0.72575  -0.71565  -0.69576
  Beta  occ. eigenvalues --   -0.66094  -0.65353  -0.62406  -0.60454  -0.55835
  Beta  occ. eigenvalues --   -0.52957  -0.52065  -0.50544  -0.49051  -0.47521
  Beta  occ. eigenvalues --   -0.44016  -0.42558  -0.41359  -0.40644  -0.40024
  Beta  occ. eigenvalues --   -0.39546  -0.37382  -0.36757  -0.35557  -0.34848
  Beta  occ. eigenvalues --   -0.34462  -0.33636  -0.32559  -0.30839  -0.30750
  Beta  occ. eigenvalues --   -0.30304  -0.29690  -0.28735  -0.27733  -0.26988
  Beta  occ. eigenvalues --   -0.26481  -0.26026  -0.25256  -0.24805  -0.24249
  Beta  occ. eigenvalues --   -0.23850  -0.23429  -0.22799  -0.19270  -0.16723
  Beta  occ. eigenvalues --   -0.16095  -0.15130  -0.13436
  Beta virt. eigenvalues --    0.05839   0.06382   0.06890   0.07259   0.07634
  Beta virt. eigenvalues --    0.07769   0.08253   0.09005   0.09515   0.09672
  Beta virt. eigenvalues --    0.09931   0.10337   0.10685   0.11023   0.11431

 Mulliken charges and spin densities:
               1          2
     1  C    0.231970  -0.705889
     2  C   -0.209641  -0.214915
     3  C    0.002980  -0.081039
     4  O   -0.084309   0.023624
     5  C   -0.018779  -0.256745
     6  C   -0.106551  -0.336704
     7  N   -0.026869   0.056145
     8  C   -0.655043   0.295992
     9  C   -0.595919   0.892782
    10  C   -0.786305   0.589042
    11  C    1.723082  -1.808961
    12  C    0.706307  -0.930350
    13  C   -0.318771   0.641455
    14  C   -0.023540  -0.273587
    15  C   -0.444384  -0.038251
    16  O   -0.130333   0.016745
    17  C    0.091709  -0.578722
    18  O   -0.200849   0.023012
    19  H   -0.002893   0.118050
    20  H    0.032762   0.124321
    21  H   -0.209415   0.353542
    22  H    0.019557   0.121245
    23  H   -0.304011   0.455455
    24  H   -0.145011   0.295359
    25  H    0.159664  -0.005442
    26  H    0.083099   0.101751
    27  H    0.177337   0.044367
    28  H    0.055813   0.133977
    29  H   -0.351779   0.581118
    30  H   -0.450302   0.640476
    31  H    0.153521  -0.011223
    32  H    0.172677   0.017251
    33  H    0.126070   0.052632
    34  H    0.230676  -0.106026
    35  H    0.108901   0.065368
    36  H    0.098991   0.023590
    37  H    0.077624   0.053810
    38  H   -0.118918   0.300364
    39  H   -0.069116   0.326380
 Sum of Mulliken charges =  -1.00000   1.00000

 Dipole moment (field-independent basis, Debye):
    X=             -0.6474    Y=             -1.8414    Z=              3.0975  Tot=              3.6612
 Quadrupole moment (field-independent basis, Debye-Ang):
   XX=           -205.6129   YY=           -153.6198   ZZ=           -149.9199
   XY=             11.4002   XZ=            -11.5578   YZ=              0.1250

 Summary of Natural Population Analysis:

                                       Natural Population
                Natural  -----------------------------------------------
    Atom  No    Charge         Core      Valence    Rydberg      Total
 -----------------------------------------------------------------------
      C    1   -0.28674      0.99966     2.28234    0.00473     3.28674
      C    2   -0.19889      0.99964     2.19049    0.00876     3.19889
      C    3   -0.01132      0.99956     1.99804    0.01372     3.01132
      O    4   -0.27911      0.99985     3.26967    0.00959     4.27911
      C    5    0.14227      0.99938     1.84682    0.01153     2.85773
      C    6   -0.01418      0.99955     2.00186    0.01278     3.01418
      N    7   -0.21269      0.99971     2.70164    0.01134     3.71269
      C    8    0.00990      0.99952     1.97740    0.01318     2.99010
      C    9   -0.02733      0.99949     2.01682    0.01102     3.02733
      C   10   -0.09010      0.99947     2.08102    0.00960     3.09010
      C   11    0.06152      0.99951     1.92350    0.01547     2.93848
      C   12   -0.19667      0.99959     2.18548    0.01160     3.19667
      C   13   -0.13158      0.99959     2.12072    0.01127     3.13158
      C   14   -0.20634      0.99962     2.19983    0.00689     3.20634
      C   15   -0.01181      0.99961     2.00177    0.01043     3.01181
      O   16   -0.30505      0.99990     3.29686    0.00830     4.30505
      C   17   -0.00605      0.99958     1.99281    0.01367     3.00605
      O   18   -0.37129      0.99989     3.36543    0.00597     4.37129
      H   19    0.09453      0.00000     0.40431    0.00116     0.40547
      H   20    0.10372      0.00000     0.39483    0.00145     0.39628
      H   21    0.09845      0.00000     0.40036    0.00119     0.40155
      H   22    0.09855      0.00000     0.40011    0.00133     0.40145
      H   23    0.09895      0.00000     0.39959    0.00146     0.40105
      H   24    0.08724      0.00000     0.41125    0.00151     0.41276
      H   25    0.08232      0.00000     0.41620    0.00148     0.41768
      H   26    0.09026      0.00000     0.40787    0.00187     0.40974
      H   27    0.09901      0.00000     0.39924    0.00175     0.40099
      H   28    0.10473      0.00000     0.39344    0.00184     0.39527
      H   29    0.08682      0.00000     0.41042    0.00275     0.41318
      H   30    0.10147      0.00000     0.39581    0.00272     0.39853
      H   31    0.10232      0.00000     0.39602    0.00166     0.39768
      H   32    0.11090      0.00000     0.38770    0.00140     0.38910
      H   33    0.09776      0.00000     0.40113    0.00111     0.40224
      H   34    0.11371      0.00000     0.38488    0.00141     0.38629
      H   35    0.08456      0.00000     0.41400    0.00144     0.41544
      H   36    0.08009      0.00000     0.41852    0.00139     0.41991
      H   37    0.07506      0.00000     0.42386    0.00107     0.42494
      H   38    0.09254      0.00000     0.40601    0.00145     0.40746
      H   39    0.23246      0.00000     0.26303    0.00450     0.26754
 =======================================================================
   * Total *    0.00000     17.99313    49.78107    0.22580    68.00000

 Normal termination of Gaussian 16 at Fri Dec 11 21:15:54 2020.
