 Gaussian 16, Revision A.03,

 -----------------------------------------------------------
 # opt freq B3LYP/6-31G(d) empiricaldispersion=gd3bj scf=xqc
 -----------------------------------------------------------

 ------------------------------
 CID_65344148_JID_9910_neutraal
 ------------------------------
 Symbolic Z-matrix:
 Charge =  0 Multiplicity = 1

 SCF Done:  E(RB3LYP) =  -842.410617981     A.U. after   15 cycles
 SCF Done:  E(RB3LYP) =  -842.414939852     A.U. after   13 cycles
 SCF Done:  E(RB3LYP) =  -842.415223834     A.U. after   12 cycles
 SCF Done:  E(RB3LYP) =  -842.414174603     A.U. after   13 cycles
 SCF Done:  E(RB3LYP) =  -842.415616631     A.U. after   12 cycles
 SCF Done:  E(RB3LYP) =  -842.415706007     A.U. after   11 cycles
 SCF Done:  E(RB3LYP) =  -842.415758313     A.U. after   11 cycles
 SCF Done:  E(RB3LYP) =  -842.415773518     A.U. after   10 cycles
 SCF Done:  E(RB3LYP) =  -842.415785389     A.U. after   10 cycles
 SCF Done:  E(RB3LYP) =  -842.415790272     A.U. after   10 cycles
 SCF Done:  E(RB3LYP) =  -842.415793188     A.U. after   10 cycles
 SCF Done:  E(RB3LYP) =  -842.415794125     A.U. after    9 cycles
 SCF Done:  E(RB3LYP) =  -842.415794295     A.U. after    8 cycles
 Optimization completed.
    -- Stationary point found.
 Normal termination of Gaussian 16 at Sun Dec 13 12:39:13 2020.

 --------------------------------------------------------------------
 #N Geom=AllCheck Guess=TCheck SCRF=Check GenChk RB3LYP/6-31G(d) Freq
 --------------------------------------------------------------------

 Structure from the checkpoint file:  "JID_9910.chk"
 ------------------------------
 CID_65344148_JID_9910_neutraal
 ------------------------------
 Charge =  0 Multiplicity = 1

 SCF Done:  E(RB3LYP) =  -842.415794295     A.U. after    1 cycles

  Exact polarizability: 201.712 -26.852 153.676   2.801  13.626 156.948
 Approx polarizability: 261.881 -55.016 250.927   3.970  33.011 260.930

                      1                      2                      3
                      A                      A                      A
 Frequencies --     23.4950                30.1828                46.8681
 Red. masses --      5.8284                 5.6566                 4.9606
 Frc consts  --      0.0019                 0.0030                 0.0064
 IR Inten    --      2.0302                 1.4919                 4.5270

                      4                      5                      6
                      A                      A                      A
 Frequencies --     54.7007                62.1623                73.2132
 Red. masses --      2.5863                 3.3432                 4.1460
 Frc consts  --      0.0046                 0.0076                 0.0131
 IR Inten    --      4.1342                 0.5365                 1.4643

                      7                      8                      9
                      A                      A                      A
 Frequencies --    121.4143               136.4451               147.3476
 Red. masses --      3.8463                 7.8560                 1.9636
 Frc consts  --      0.0334                 0.0862                 0.0251
 IR Inten    --      2.4814                 4.2813                 1.6400

                     10                     11                     12
                      A                      A                      A
 Frequencies --    163.8503               207.7937               217.2327
 Red. masses --      2.2800                 3.7703                 3.9349
 Frc consts  --      0.0361                 0.0959                 0.1094
 IR Inten    --      2.3349                 0.6093                 4.4099

                     13                     14                     15
                      A                      A                      A
 Frequencies --    239.1569               252.9643               294.9907
 Red. masses --      2.6507                 2.4138                 2.3760
 Frc consts  --      0.0893                 0.0910                 0.1218
 IR Inten    --      0.7421                 1.2242                 0.1426

                     16                     17                     18
                      A                      A                      A
 Frequencies --    333.0224               350.1353               368.0002
 Red. masses --      5.5147                 2.4508                 5.2727
 Frc consts  --      0.3603                 0.1770                 0.4207
 IR Inten    --      0.3214                 1.6656                 2.5258

                     19                     20                     21
                      A                      A                      A
 Frequencies --    400.0264               409.8037               416.1069
 Red. masses --      3.6463                 2.9131                 2.0853
 Frc consts  --      0.3438                 0.2882                 0.2127
 IR Inten    --      8.5163                 4.9963                 0.7696

                     22                     23                     24
                      A                      A                      A
 Frequencies --    449.9128               464.5526               493.3322
 Red. masses --      3.8285                 5.2647                 2.7456
 Frc consts  --      0.4566                 0.6694                 0.3937
 IR Inten    --      1.4095                13.3701                 1.2064

                     25                     26                     27
                      A                      A                      A
 Frequencies --    525.8615               552.5678               564.7044
 Red. masses --      5.6070                 4.1100                 3.9874
 Frc consts  --      0.9135                 0.7394                 0.7492
 IR Inten    --      1.7585                 9.6946                16.1275

                     28                     29                     30
                      A                      A                      A
 Frequencies --    599.2245               607.3923               689.6271
 Red. masses --      4.6185                 3.1916                 3.7533
 Frc consts  --      0.9771                 0.6937                 1.0517
 IR Inten    --      1.4483                 2.2248                 8.3900

                     31                     32                     33
                      A                      A                      A
 Frequencies --    733.4139               754.2225               778.0486
 Red. masses --      4.5295                 5.1904                 3.1907
 Frc consts  --      1.4355                 1.7396                 1.1380
 IR Inten    --     12.0964                 3.6602                 6.0282

                     34                     35                     36
                      A                      A                      A
 Frequencies --    795.9316               834.8564               868.5984
 Red. masses --      3.9746                 1.4978                 1.6094
 Frc consts  --      1.4835                 0.6151                 0.7154
 IR Inten    --      9.1053                 0.4280                20.3078

                     37                     38                     39
                      A                      A                      A
 Frequencies --    881.4927               898.9686               922.3541
 Red. masses --      2.3066                 2.2198                 1.5416
 Frc consts  --      1.0560                 1.0569                 0.7727
 IR Inten    --      8.0360                 0.2102                 7.0233

                     40                     41                     42
                      A                      A                      A
 Frequencies --    941.5205               974.6190               982.4113
 Red. masses --      2.9614                 1.3364                 2.0974
 Frc consts  --      1.5467                 0.7479                 1.1927
 IR Inten    --      4.8566                 0.2369                 4.3344

                     43                     44                     45
                      A                      A                      A
 Frequencies --    990.4041              1004.1133              1034.8300
 Red. masses --      2.0675                 1.3465                 2.8252
 Frc consts  --      1.1949                 0.7999                 1.7825
 IR Inten    --     54.1891                 1.6019                 5.1539

                     46                     47                     48
                      A                      A                      A
 Frequencies --   1042.0421              1044.3176              1091.4774
 Red. masses --      8.0714                 1.7950                 2.6550
 Frc consts  --      5.1638                 1.1534                 1.8636
 IR Inten    --     66.7774                 0.2800                 8.2208

                     49                     50                     51
                      A                      A                      A
 Frequencies --   1119.7974              1135.7252              1146.7417
 Red. masses --      2.6884                 2.6526                 2.2240
 Frc consts  --      1.9862                 2.0159                 1.7231
 IR Inten    --      4.7781                27.8845                29.8422

                     52                     53                     54
                      A                      A                      A
 Frequencies --   1160.9199              1174.4344              1186.3514
 Red. masses --      2.1324                 1.4927                 1.2574
 Frc consts  --      1.6932                 1.2131                 1.0427
 IR Inten    --     17.7735                 0.9647                 4.5664

                     55                     56                     57
                      A                      A                      A
 Frequencies --   1189.2047              1202.6439              1218.3846
 Red. masses --      2.3142                 1.2474                 1.3530
 Frc consts  --      1.9283                 1.0630                 1.1833
 IR Inten    --     39.3405                 0.6937                 0.7825

                     58                     59                     60
                      A                      A                      A
 Frequencies --   1254.1314              1258.7906              1276.9534
 Red. masses --      1.7351                 1.6636                 1.4729
 Frc consts  --      1.6079                 1.5531                 1.4150
 IR Inten    --      0.4898                 0.8986                10.2761

                     61                     62                     63
                      A                      A                      A
 Frequencies --   1294.9636              1310.7010              1314.4246
 Red. masses --      3.9962                 1.5660                 1.2438
 Frc consts  --      3.9484                 1.5851                 1.2661
 IR Inten    --    157.2230                42.7967                 5.4693

                     64                     65                     66
                      A                      A                      A
 Frequencies --   1339.7243              1346.5543              1355.5911
 Red. masses --      2.4212                 1.7828                 1.3341
 Frc consts  --      2.5604                 1.9046                 1.4445
 IR Inten    --     16.6009                 2.2480                 5.5960

                     67                     68                     69
                      A                      A                      A
 Frequencies --   1368.7914              1388.7178              1393.3771
 Red. masses --      1.8262                 1.2556                 1.3435
 Frc consts  --      2.0159                 1.4267                 1.5368
 IR Inten    --      9.4338                33.1510                 0.2975

                     70                     71                     72
                      A                      A                      A
 Frequencies --   1405.6420              1410.8435              1438.9045
 Red. masses --      1.3914                 1.4836                 1.2740
 Frc consts  --      1.6198                 1.7399                 1.5541
 IR Inten    --      0.4671                 1.9838                 2.4348

                     73                     74                     75
                      A                      A                      A
 Frequencies --   1446.2592              1458.8185              1495.7656
 Red. masses --      1.3624                 2.6801                 1.3208
 Frc consts  --      1.6790                 3.3605                 1.7410
 IR Inten    --     17.8888                16.2975                19.6360

                     76                     77                     78
                      A                      A                      A
 Frequencies --   1501.9218              1505.0401              1518.3327
 Red. masses --      1.0976                 1.0937                 1.0924
 Frc consts  --      1.4588                 1.4597                 1.4837
 IR Inten    --      9.4071                 1.0291                13.0906

                     79                     80                     81
                      A                      A                      A
 Frequencies --   1520.3056              1527.6207              1534.0295
 Red. masses --      1.0699                 1.0811                 1.0522
 Frc consts  --      1.4570                 1.4864                 1.4588
 IR Inten    --     11.5353                 0.8851                13.5692

                     82                     83                     84
                      A                      A                      A
 Frequencies --   1541.1883              1548.5239              1621.8611
 Red. masses --      1.1065                 2.3246                 6.2796
 Frc consts  --      1.5486                 3.2842                 9.7322
 IR Inten    --      9.1680                75.2119                 4.6015

                     85                     86                     87
                      A                      A                      A
 Frequencies --   1663.5181              1835.0774              2348.4222
 Red. masses --      5.9455                10.0603                12.6764
 Frc consts  --      9.6938                19.9603                41.1905
 IR Inten    --     27.8015               209.7800                32.9852

                     88                     89                     90
                      A                      A                      A
 Frequencies --   2874.1045              2939.5946              2946.4001
 Red. masses --      1.0825                 1.0723                 1.0715
 Frc consts  --      5.2684                 5.4595                 5.4806
 IR Inten    --    112.3744                15.6958                79.8468

                     91                     92                     93
                      A                      A                      A
 Frequencies --   3046.0513              3046.4852              3047.8119
 Red. masses --      1.0611                 1.0372                 1.0616
 Frc consts  --      5.8008                 5.6714                 5.8100
 IR Inten    --     11.6040                59.0858                27.1227

                     94                     95                     96
                      A                      A                      A
 Frequencies --   3048.8430              3064.9396              3070.3085
 Red. masses --      1.0610                 1.0844                 1.0873
 Frc consts  --      5.8108                 6.0017                 6.0391
 IR Inten    --     25.7353                 9.5877                45.9451

                     97                     98                     99
                      A                      A                      A
 Frequencies --   3074.5531              3093.9189              3095.4169
 Red. masses --      1.0870                 1.1059                 1.1036
 Frc consts  --      6.0540                 6.2374                 6.2303
 IR Inten    --     35.0015                21.0352                22.0900

                    100                    101                    102
                      A                      A                      A
 Frequencies --   3099.3040              3125.9642              3170.9888
 Red. masses --      1.1036                 1.1010                 1.1041
 Frc consts  --      6.2459                 6.3386                 6.5410
 IR Inten    --     41.3056                20.8562                22.1735

                    103                    104                    105
                      A                      A                      A
 Frequencies --   3189.7273              3203.4160              3222.0260
 Red. masses --      1.0890                 1.0910                 1.0934
 Frc consts  --      6.5284                 6.5963                 6.6876
 IR Inten    --     10.1564                 4.1747                 4.9281

 - Thermochemistry -
 -------------------
 Temperature   298.150 Kelvin.  Pressure   1.00000 Atm.
 Atom     1 has atomic number  6 and mass  12.00000

 Molecular mass:   258.13683 amu.
 Principal axes and moments of inertia in atomic units:
                           1         2         3
     Eigenvalues --  2721.16092********************
           X            0.99988  -0.00930   0.01269
           Y            0.00967   0.99951  -0.02976
           Z           -0.01241   0.02988   0.99948
 This molecule is an asymmetric top.
 Rotational symmetry number  1.
 Warning -- assumption of classical behavior for rotation
           may cause significant error
 Rotational temperatures (Kelvin)      0.03183     0.00806     0.00783
 Rotational constants (GHZ):           0.66322     0.16785     0.16312
 Zero-point vibrational energy     813392.2 (Joules/Mol)
                                  194.40541 (Kcal/Mol)
 Warning -- explicit consideration of  29 degrees of freedom as
           vibrations may cause significant error
 Vibrational temperatures:     33.80    43.43    67.43    78.70    89.44
          (Kelvin)            105.34   174.69   196.31   212.00   235.74
                              298.97   312.55   344.09   363.96   424.43
                              479.14   503.77   529.47   575.55   589.62
                              598.69   647.32   668.39   709.79   756.60
                              795.02   812.48   862.15   873.90   992.22
                             1055.22  1085.16  1119.44  1145.17  1201.17
                             1249.72  1268.27  1293.42  1327.06  1354.64
                             1402.26  1413.47  1424.97  1444.70  1488.89
                             1499.27  1502.54  1570.39  1611.14  1634.06
                             1649.91  1670.30  1689.75  1706.90  1711.00
                             1730.34  1752.98  1804.42  1811.12  1837.25
                             1863.16  1885.81  1891.16  1927.56  1937.39
                             1950.39  1969.39  1998.06  2004.76  2022.41
                             2029.89  2070.26  2080.84  2098.91  2152.07
                             2160.93  2165.42  2184.54  2187.38  2197.91
                             2207.13  2217.43  2227.98  2333.50  2393.43
                             2640.27  3378.86  4135.20  4229.42  4239.21
                             4382.59  4383.21  4385.12  4386.61  4409.76
                             4417.49  4423.60  4451.46  4453.61  4459.21
                             4497.57  4562.35  4589.31  4609.00  4635.78

 Zero-point correction=                           0.309805 (Hartree/Particle)
 Thermal correction to Energy=                    0.327875
 Thermal correction to Enthalpy=                  0.328819
 Thermal correction to Gibbs Free Energy=         0.261437
 Sum of electronic and zero-point Energies=           -842.105990
 Sum of electronic and thermal Energies=              -842.087920
 Sum of electronic and thermal Enthalpies=            -842.086976
 Sum of electronic and thermal Free Energies=         -842.154357

                     E (Thermal)             CV                S
                      KCal/Mol        Cal/Mol-Kelvin    Cal/Mol-Kelvin
 Total                  205.744             67.378            141.817
 Electronic               0.000              0.000              0.000
 Translational            0.889              2.981             42.545
 Rotational               0.889              2.981             34.136
 Vibrational            203.967             61.416             65.136
 Vibration     1          0.593              1.985              6.314
 Vibration     2          0.594              1.984              5.817
 Vibration     3          0.595              1.979              4.945
 Vibration     4          0.596              1.976              4.640
 Vibration     5          0.597              1.972              4.387
 Vibration     6          0.599              1.967              4.065
 Vibration     7          0.609              1.931              3.078
 Vibration     8          0.614              1.917              2.853
 Vibration     9          0.617              1.906              2.706
 Vibration    10          0.623              1.887              2.505
 Vibration    11          0.641              1.829              2.063
 Vibration    12          0.646              1.815              1.982
 Vibration    13          0.657              1.781              1.809
 Vibration    14          0.664              1.758              1.710
 Vibration    15          0.689              1.683              1.445
 Vibration    16          0.715              1.610              1.245
 Vibration    17          0.727              1.575              1.166
 Vibration    18          0.741              1.538              1.088
 Vibration    19          0.766              1.470              0.963
 Vibration    20          0.774              1.449              0.927
 Vibration    21          0.779              1.435              0.905
 Vibration    22          0.809              1.361              0.796
 Vibration    23          0.822              1.329              0.753
 Vibration    24          0.849              1.265              0.675
 Vibration    25          0.881              1.193              0.597
 Vibration    26          0.908              1.134              0.539
 Vibration    27          0.921              1.108              0.515
 Vibration    28          0.957              1.033              0.451
 Vibration    29          0.966              1.016              0.437

                           ! Non-Optimized Parameters !
 Normal termination of Gaussian 16 at Sun Dec 13 12:58:36 2020.

 ----------------------------------------------------------------------
 # B3LYP/6-311++G(d,p) empiricaldispersion=gd3bj scf=xqc pop=npa geom=c
 heck
 ----------------------------------------------------------------------

 --------------------------------------
 CID_65344148_JID_9910_Energie_neutraal
 --------------------------------------
 Structure from the checkpoint file:  "JID_9910.chk"
 Charge =  0 Multiplicity = 1

 SCF Done:  E(RB3LYP) =  -842.645055262     A.U. after   15 cycles
 Normal termination of Gaussian 16 at Sun Dec 13 13:07:17 2020.

 ----------------------------------------------------------------------
 # B3LYP/6-311++G(d,p) empiricaldispersion=gd3bj scf=xqc pop=npa geom=c
 heck
 ----------------------------------------------------------------------

 ------------------------------------
 CID_65344148_JID_9910_Energie_kation
 ------------------------------------
 Structure from the checkpoint file:  "JID_9910.chk"
 Charge =  1 Multiplicity = 2

 SCF Done:  E(UB3LYP) =  -842.343031725     A.U. after   24 cycles
 Normal termination of Gaussian 16 at Sun Dec 13 13:27:38 2020.
 Gaussian 16:  ES64L-G16RevA.03 25-Dec-2016

 ----------------------------------------------------------------------
 # B3LYP/6-311++G(d,p) empiricaldispersion=gd3bj scf=xqc pop=npa geom=c
 heck
 ----------------------------------------------------------------------

 -----------------------------------
 CID_65344148_JID_9910_Energie_anion
 -----------------------------------
 Structure from the checkpoint file:  "JID_9910.chk"
 Charge = -1 Multiplicity = 2

                         Standard orientation:
 ---------------------------------------------------------------------
 Center     Atomic      Atomic             Coordinates (Angstroms)
 Number     Number       Type             X           Y           Z
 ---------------------------------------------------------------------
      1          6           0       -4.229930    1.688040   -1.620139
      2          8           0       -4.279366    0.301530   -1.256275
      3          6           0       -3.149744   -0.212954   -0.687913
      4          6           0       -2.729172    0.148801    0.609195
      5          6           0       -1.585628   -0.448723    1.163402
      6          6           0       -0.854068   -1.404689    0.459502
      7          6           0       -1.301099   -1.767333   -0.818834
      8          6           0       -2.427416   -1.179284   -1.388018
      9          6           0        0.421624   -1.990912    1.041115
     10          7           0        1.652961   -1.258327    0.732856
     11          6           0        1.987800   -1.247320   -0.688276
     12          6           0        3.401771   -0.705062   -0.902396
     13          6           0        3.542757    0.706931   -0.300655
     14          6           0        3.098106    0.679910    1.174306
     15          6           0        1.696099    0.083203    1.308545
     16          6           0        4.972990    1.181083   -0.412337
     17          8           0        5.339306    2.152230   -1.035474
     18          6           0       -3.476425    1.091366    1.382530
     19          7           0       -4.070327    1.862070    2.020315
     20          1           0       -5.187816    1.903542   -2.095575
     21          1           0       -3.414958    1.867190   -2.332247
     22          1           0       -4.106919    2.333005   -0.745158
     23          1           0       -1.284882   -0.162762    2.166760
     24          1           0       -0.757405   -2.524790   -1.377351
     25          1           0       -2.774283   -1.461636   -2.376433
     26          1           0        0.336602   -2.042205    2.132906
     27          1           0        0.551243   -3.016678    0.676193
     28          1           0        1.273394   -0.643459   -1.279931
     29          1           0        1.926450   -2.276072   -1.063038
     30          1           0        3.631448   -0.685198   -1.973985
     31          1           0        4.118124   -1.382182   -0.419663
     32          1           0        2.917861    1.411368   -0.863129
     33          1           0        3.800376    0.070164    1.757161
     34          1           0        3.108989    1.692832    1.592886
     35          1           0        1.425948    0.010595    2.368706
     36          1           0        0.964093    0.763853    0.833533
     37          1           0        5.707793    0.547816    0.140007
 ---------------------------------------------------------------------

 SCF Done:  E(UB3LYP) =  -842.659563764     A.U. after   28 cycles

 The electronic state is 2-A.
 Alpha  occ. eigenvalues --  -19.02966 -19.01146 -14.20773 -14.16466 -10.14315
 Alpha  occ. eigenvalues --  -10.11351 -10.10666 -10.09767 -10.09651 -10.09431
 Alpha  occ. eigenvalues --  -10.08520 -10.08148 -10.08095 -10.06734 -10.06111
 Alpha  occ. eigenvalues --  -10.05477 -10.05159 -10.04749 -10.03917  -0.94577
 Alpha  occ. eigenvalues --   -0.94290  -0.83442  -0.76928  -0.73686  -0.71868
 Alpha  occ. eigenvalues --   -0.66559  -0.65421  -0.64003  -0.60948  -0.57815
 Alpha  occ. eigenvalues --   -0.54092  -0.53562  -0.51297  -0.47985  -0.47631
 Alpha  occ. eigenvalues --   -0.46449  -0.42389  -0.40181  -0.38382  -0.38192
 Alpha  occ. eigenvalues --   -0.36814  -0.36699  -0.35625  -0.35513  -0.34431
 Alpha  occ. eigenvalues --   -0.33935  -0.32335  -0.31840  -0.31635  -0.31340
 Alpha  occ. eigenvalues --   -0.29911  -0.29055  -0.27211  -0.26482  -0.26313
 Alpha  occ. eigenvalues --   -0.25893  -0.25292  -0.24528  -0.24024  -0.23723
 Alpha  occ. eigenvalues --   -0.22772  -0.22667  -0.21150  -0.19943  -0.17113
 Alpha  occ. eigenvalues --   -0.15142  -0.13770  -0.12543  -0.11760   0.03672
 Alpha virt. eigenvalues --    0.05457   0.07017   0.07873   0.08286   0.08643
 Alpha virt. eigenvalues --    0.09036   0.09908   0.10539   0.10790   0.10916
 Alpha virt. eigenvalues --    0.11224   0.11730   0.11881   0.12808   0.13322

  Beta  occ. eigenvalues --  -19.02966 -19.00943 -14.20778 -14.16186 -10.14128
  Beta  occ. eigenvalues --  -10.11324 -10.10544 -10.09757 -10.09636 -10.09426
  Beta  occ. eigenvalues --  -10.08535 -10.08122 -10.08076 -10.06728 -10.05856
  Beta  occ. eigenvalues --  -10.05545 -10.04986 -10.04755 -10.03540  -0.94516
  Beta  occ. eigenvalues --   -0.93904  -0.83435  -0.76501  -0.73375  -0.71731
  Beta  occ. eigenvalues --   -0.66526  -0.65180  -0.63468  -0.60807  -0.57643
  Beta  occ. eigenvalues --   -0.54020  -0.53377  -0.50627  -0.47830  -0.47381
  Beta  occ. eigenvalues --   -0.46392  -0.42272  -0.40085  -0.38272  -0.38029
  Beta  occ. eigenvalues --   -0.36742  -0.36630  -0.35455  -0.35352  -0.34292
  Beta  occ. eigenvalues --   -0.33773  -0.32181  -0.31717  -0.31517  -0.31204
  Beta  occ. eigenvalues --   -0.29855  -0.28460  -0.26913  -0.26007  -0.25996
  Beta  occ. eigenvalues --   -0.25734  -0.25243  -0.24245  -0.23874  -0.23338
  Beta  occ. eigenvalues --   -0.22524  -0.22391  -0.20159  -0.19699  -0.16976
  Beta  occ. eigenvalues --   -0.14993  -0.12526  -0.12067  -0.10877
  Beta virt. eigenvalues --    0.06906   0.07422   0.07722   0.08269   0.08627
  Beta virt. eigenvalues --    0.08897   0.09259   0.09869   0.10685   0.10794
  Beta virt. eigenvalues --    0.10911   0.11291   0.11701   0.11860   0.12740

 Mulliken charges and spin densities:
               1          2
     1  C   -0.220174  -0.068984
     2  O   -0.180148   0.006762
     3  C   -1.208955   0.075598
     4  C    1.931417   0.201859
     5  C   -0.220570   0.156993
     6  C    0.489747  -0.085343
     7  C    0.066601   0.305096
     8  C   -0.035181   0.027117
     9  C   -0.811189  -0.020579
    10  N    0.242942  -0.001359
    11  C   -0.257267   0.088858
    12  C   -0.664495  -0.087462
    13  C    0.442253  -0.045619
    14  C   -0.819925   0.048047
    15  C   -0.139097  -0.016373
    16  C   -0.314739   0.152545
    17  O   -0.269854   0.056547
    18  C   -1.210917  -0.059813
    19  N   -0.324098   0.149761
    20  H    0.113780   0.012238
    21  H    0.082088   0.035978
    22  H    0.139359   0.019523
    23  H    0.178287  -0.008431
    24  H    0.106995  -0.009398
    25  H    0.141918   0.011576
    26  H    0.162900  -0.001502
    27  H    0.136256   0.033419
    28  H    0.174056  -0.005353
    29  H    0.129953   0.005820
    30  H    0.151856   0.000466
    31  H    0.125252   0.030872
    32  H    0.189103   0.001603
    33  H    0.156211  -0.000404
    34  H    0.155973  -0.001710
    35  H    0.133325   0.001440
    36  H    0.169644   0.000758
    37  H    0.056692  -0.010543
 Sum of Mulliken charges =  -1.00000   1.00000

 Dipole moment (field-independent basis, Debye):
    X=              4.0866    Y=             -3.9465    Z=             -1.6950  Tot=              5.9286
 Quadrupole moment (field-independent basis, Debye-Ang):
   XX=           -212.6445   YY=           -140.6382   ZZ=           -130.8132
   XY=             -8.2821   XZ=             23.8732   YZ=             -3.5205

 Summary of Natural Population Analysis:

                                       Natural Population
                Natural  -----------------------------------------------
    Atom  No    Charge         Core      Valence    Rydberg      Total
 -----------------------------------------------------------------------
      C    1   -0.09463      0.99959     2.08731    0.00773     3.09463
      O    2   -0.29097      0.99986     3.28116    0.00995     4.29097
      C    3    0.19421      0.99935     1.79195    0.01449     2.80579
      C    4   -0.07850      0.99937     2.06972    0.00941     3.07850
      C    5   -0.04204      0.99950     2.03347    0.00908     3.04204
      C    6   -0.05800      0.99950     2.05009    0.00841     3.05800
      C    7   -0.02315      0.99953     2.01576    0.00787     3.02315
      C    8   -0.12722      0.99952     2.11926    0.00844     3.12722
      C    9   -0.08196      0.99959     2.07146    0.01092     3.08196
      N   10   -0.28414      0.99971     2.76925    0.01518     3.78414
      C   11   -0.08482      0.99962     2.07445    0.01075     3.08482
      C   12   -0.18697      0.99961     2.17926    0.00809     3.18697
      C   13   -0.15976      0.99958     2.15033    0.00986     3.15976
      C   14   -0.18627      0.99961     2.17972    0.00694     3.18627
      C   15   -0.08344      0.99962     2.07462    0.00920     3.08344
      C   16    0.25467      0.99970     1.72388    0.02175     2.74533
      O   17   -0.26468      0.99988     3.25654    0.00826     4.26468
      C   18    0.14731      0.99964     1.83382    0.01923     2.85269
      N   19   -0.16615      0.99979     2.65539    0.01097     3.66615
      H   20    0.08409      0.00000     0.41475    0.00116     0.41591
      H   21    0.07786      0.00000     0.42029    0.00185     0.42214
      H   22    0.09115      0.00000     0.40684    0.00202     0.40885
      H   23    0.09521      0.00000     0.40364    0.00115     0.40479
      H   24    0.08716      0.00000     0.41114    0.00170     0.41284
      H   25    0.09756      0.00000     0.40080    0.00163     0.40244
      H   26    0.09412      0.00000     0.40486    0.00102     0.40588
      H   27    0.09378      0.00000     0.40495    0.00127     0.40622
      H   28    0.08841      0.00000     0.40991    0.00168     0.41159
      H   29    0.09447      0.00000     0.40427    0.00126     0.40553
      H   30    0.09881      0.00000     0.39960    0.00159     0.40119
      H   31    0.09532      0.00000     0.40250    0.00218     0.40468
      H   32    0.10229      0.00000     0.39569    0.00201     0.39771
      H   33    0.09565      0.00000     0.40290    0.00145     0.40435
      H   34    0.09995      0.00000     0.39920    0.00085     0.40005
      H   35    0.09509      0.00000     0.40385    0.00106     0.40491
      H   36    0.08935      0.00000     0.40914    0.00151     0.41065
      H   37    0.03625      0.00000     0.46166    0.00209     0.46375
 =======================================================================
   * Total *   -0.00000     18.99257    49.77343    0.23400    69.00000

 Normal termination of Gaussian 16 at Sun Dec 13 13:50:33 2020.
