 Gaussian 16, Revision A.03,

 -----------------------------------------------------------
 # opt freq B3LYP/6-31G(d) empiricaldispersion=gd3bj scf=xqc
 -----------------------------------------------------------

 ------------------------------
 CID_60836166_JID_7151_neutraal
 ------------------------------
 Symbolic Z-matrix:
 Charge =  0 Multiplicity = 1

 SCF Done:  E(RB3LYP) =  -781.014098551     A.U. after   16 cycles
 SCF Done:  E(RB3LYP) =  -781.037180113     A.U. after   13 cycles
 SCF Done:  E(RB3LYP) =  -781.038250850     A.U. after   13 cycles
 SCF Done:  E(RB3LYP) =  -781.039532788     A.U. after   12 cycles
 SCF Done:  E(RB3LYP) =  -781.040368903     A.U. after   13 cycles
 SCF Done:  E(RB3LYP) =  -781.041210539     A.U. after   15 cycles
 SCF Done:  E(RB3LYP) =  -781.042854347     A.U. after   12 cycles
 SCF Done:  E(RB3LYP) =  -781.043388527     A.U. after   12 cycles
 SCF Done:  E(RB3LYP) =  -781.043742577     A.U. after   13 cycles
 SCF Done:  E(RB3LYP) =  -781.044018363     A.U. after   12 cycles
 SCF Done:  E(RB3LYP) =  -781.044152945     A.U. after   11 cycles
 SCF Done:  E(RB3LYP) =  -781.044159870     A.U. after   10 cycles
 SCF Done:  E(RB3LYP) =  -781.044161901     A.U. after    9 cycles
 SCF Done:  E(RB3LYP) =  -781.044162921     A.U. after    9 cycles
 SCF Done:  E(RB3LYP) =  -781.044163120     A.U. after    8 cycles
 Optimization completed.
    -- Stationary point found.
 Normal termination of Gaussian 16 at Fri Dec 11 11:58:38 2020.

 --------------------------------------------------------------------
 #N Geom=AllCheck Guess=TCheck SCRF=Check GenChk RB3LYP/6-31G(d) Freq
 --------------------------------------------------------------------

 Structure from the checkpoint file:  "JID_7151.chk"
 ------------------------------
 CID_60836166_JID_7151_neutraal
 ------------------------------
 Charge =  0 Multiplicity = 1

 SCF Done:  E(RB3LYP) =  -781.044163120     A.U. after    1 cycles

  Exact polarizability: 197.501   3.632 164.106  -6.629   4.386  87.790
 Approx polarizability: 275.738  12.401 251.614 -19.034   9.960 134.649

                      1                      2                      3
                      A                      A                      A
 Frequencies --     24.8643                35.0723                42.0983
 Red. masses --      5.2078                 5.2978                 4.9140
 Frc consts  --      0.0019                 0.0038                 0.0051
 IR Inten    --      1.5932                 0.2313                 0.7619

                      4                      5                      6
                      A                      A                      A
 Frequencies --     63.2252                68.1794               104.5095
 Red. masses --      6.0034                 4.4318                 3.0427
 Frc consts  --      0.0141                 0.0121                 0.0196
 IR Inten    --      1.2193                 0.9707                11.9298

                      7                      8                      9
                      A                      A                      A
 Frequencies --    109.0106               138.9578               197.4029
 Red. masses --      6.0728                 3.7764                 3.8288
 Frc consts  --      0.0425                 0.0430                 0.0879
 IR Inten    --      4.6524                 2.9303                 3.4935

                     10                     11                     12
                      A                      A                      A
 Frequencies --    233.6797               240.3655               252.3017
 Red. masses --      4.4528                 6.0069                 4.3381
 Frc consts  --      0.1433                 0.2045                 0.1627
 IR Inten    --      3.8978                 0.5846                 1.2013

                     13                     14                     15
                      A                      A                      A
 Frequencies --    267.1336               302.7105               316.7236
 Red. masses --      1.2104                 5.9747                 1.1006
 Frc consts  --      0.0509                 0.3226                 0.0651
 IR Inten    --      0.5728                 5.1195                39.0468

                     16                     17                     18
                      A                      A                      A
 Frequencies --    374.1676               382.6866               387.3661
 Red. masses --      2.3731                 4.3341                 3.7982
 Frc consts  --      0.1957                 0.3740                 0.3358
 IR Inten    --      4.1689                 4.1027                 1.1430

                     19                     20                     21
                      A                      A                      A
 Frequencies --    409.1066               441.5421               460.7460
 Red. masses --      5.4211                 3.0407                 3.0841
 Frc consts  --      0.5346                 0.3493                 0.3857
 IR Inten    --      4.6746                 5.6983                 1.2762

                     22                     23                     24
                      A                      A                      A
 Frequencies --    485.4172               514.4442               532.6513
 Red. masses --      3.5838                 2.7910                 2.1743
 Frc consts  --      0.4975                 0.4352                 0.3635
 IR Inten    --      9.0171                 4.1184                20.6260

                     25                     26                     27
                      A                      A                      A
 Frequencies --    592.3617               631.5997               639.5105
 Red. masses --      4.1952                 2.0069                 5.4788
 Frc consts  --      0.8673                 0.4717                 1.3202
 IR Inten    --      6.5678                74.8275                13.8128

                     28                     29                     30
                      A                      A                      A
 Frequencies --    660.4287               697.8275               706.8420
 Red. masses --      5.0983                 4.0523                 2.3629
 Frc consts  --      1.3102                 1.1627                 0.6956
 IR Inten    --      0.5790                19.1008                21.1077

                     31                     32                     33
                      A                      A                      A
 Frequencies --    778.0872               808.8194               823.8133
 Red. masses --      1.5567                 4.5654                 3.4109
 Frc consts  --      0.5553                 1.7597                 1.3639
 IR Inten    --     33.8561                 6.2328                13.1432

                     34                     35                     36
                      A                      A                      A
 Frequencies --    869.2400               883.7358               889.6742
 Red. masses --      1.4483                 2.8098                 1.5363
 Frc consts  --      0.6447                 1.2929                 0.7165
 IR Inten    --      0.1560                15.5953                18.3925

                     37                     38                     39
                      A                      A                      A
 Frequencies --    916.5206               951.1303               963.2507
 Red. masses --      1.6997                 2.2307                 1.2638
 Frc consts  --      0.8412                 1.1890                 0.6909
 IR Inten    --     44.4733               180.3008                 0.2071

                     40                     41                     42
                      A                      A                      A
 Frequencies --    972.8282               975.5032              1004.0399
 Red. masses --      1.5650                 3.7332                 2.9941
 Frc consts  --      0.8726                 2.0931                 1.7784
 IR Inten    --     58.9896                14.6804                 0.8708

                     43                     44                     45
                      A                      A                      A
 Frequencies --   1019.7712              1048.4713              1052.6429
 Red. masses --      5.9270                 1.4395                 1.6237
 Frc consts  --      3.6315                 0.9323                 1.0601
 IR Inten    --      0.8305                 1.6174                 1.3732

                     46                     47                     48
                      A                      A                      A
 Frequencies --   1094.6958              1111.4277              1129.5992
 Red. masses --      3.0901                 1.5209                 1.6943
 Frc consts  --      2.1818                 1.1069                 1.2738
 IR Inten    --     89.8309               120.2945                 0.6839

                     49                     50                     51
                      A                      A                      A
 Frequencies --   1137.2272              1203.0298              1225.1687
 Red. masses --      1.6210                 1.2603                 1.9696
 Frc consts  --      1.2352                 1.0747                 1.7419
 IR Inten    --     21.1637                84.3781                81.3794

                     52                     53                     54
                      A                      A                      A
 Frequencies --   1247.8365              1264.9343              1270.1819
 Red. masses --      1.5907                 1.5840                 1.0623
 Frc consts  --      1.4594                 1.4933                 1.0098
 IR Inten    --    152.6251                 9.7142                 1.1958

                     55                     56                     57
                      A                      A                      A
 Frequencies --   1285.2952              1322.5356              1339.8518
 Red. masses --      2.1382                 1.8409                 1.7934
 Frc consts  --      2.0812                 1.8972                 1.8969
 IR Inten    --     47.9480               112.4234                69.2468

                     58                     59                     60
                      A                      A                      A
 Frequencies --   1354.8600              1377.6857              1413.4058
 Red. masses --      1.5739                 3.9467                 1.5244
 Frc consts  --      1.7022                 4.4135                 1.7943
 IR Inten    --    151.9912                16.5508                80.6757

                     61                     62                     63
                      A                      A                      A
 Frequencies --   1422.9233              1433.7644              1453.1068
 Red. masses --      1.4048                 1.3331                 1.3797
 Frc consts  --      1.6759                 1.6146                 1.7165
 IR Inten    --     72.2316                15.4131                11.7624

                     64                     65                     66
                      A                      A                      A
 Frequencies --   1468.1854              1510.0650              1514.0932
 Red. masses --      2.1480                 1.2763                 1.8134
 Frc consts  --      2.7281                 1.7147                 2.4494
 IR Inten    --     32.9963                16.7123                 7.5748

                     67                     68                     69
                      A                      A                      A
 Frequencies --   1521.9313              1527.2567              1535.0927
 Red. masses --      1.0765                 1.2210                 1.0489
 Frc consts  --      1.4692                 1.6780                 1.4563
 IR Inten    --     13.1998                28.4428                 8.9323

                     70                     71                     72
                      A                      A                      A
 Frequencies --   1548.9386              1645.4136              1671.3953
 Red. masses --      2.4512                 5.8161                 6.2816
 Frc consts  --      3.4650                 9.2776                10.3390
 IR Inten    --    118.1649                83.3600               189.4989

                     73                     74                     75
                      A                      A                      A
 Frequencies --   1719.2175              1762.9931              2389.7926
 Red. masses --      1.0888                 7.3643                12.6171
 Frc consts  --      1.8961                13.4860                42.4552
 IR Inten    --     29.7139               358.4244                 0.1103

                     76                     77                     78
                      A                      A                      A
 Frequencies --   3023.7189              3043.5219              3050.8463
 Red. masses --      1.0545                 1.0814                 1.0390
 Frc consts  --      5.6805                 5.9018                 5.6979
 IR Inten    --     21.8390                21.1305                26.6784

                     79                     80                     81
                      A                      A                      A
 Frequencies --   3058.5276              3060.3745              3113.4897
 Red. masses --      1.0715                 1.1070                 1.1019
 Frc consts  --      5.9056                 6.1086                 6.2934
 IR Inten    --     16.6914                13.0675                28.6581

                     82                     83                     84
                      A                      A                      A
 Frequencies --   3134.7500              3143.5809              3197.7903
 Red. masses --      1.0931                 1.1002                 1.0871
 Frc consts  --      6.3288                 6.4055                 6.5496
 IR Inten    --     23.6663                29.2024                 5.0945

                     85                     86                     87
                      A                      A                      A
 Frequencies --   3213.1201              3232.6107              3249.3533
 Red. masses --      1.0939                 1.0926                 1.0909
 Frc consts  --      6.6537                 6.7271                 6.7863
 IR Inten    --     14.9020                 9.9210                 0.6265

                     88                     89                     90
                      A                      A                      A
 Frequencies --   3453.1666              3533.8323              3572.8835
 Red. masses --      1.0499                 1.0910                 1.0752
 Frc consts  --      7.3764                 8.0269                 8.0865
 IR Inten    --      8.2883                 7.3117                29.9783

 - Thermochemistry -
 -------------------
 Temperature   298.150 Kelvin.  Pressure   1.00000 Atm.
 Atom     1 has atomic number  6 and mass  12.00000

 Molecular mass:   233.11643 amu.
 Principal axes and moments of inertia in atomic units:
                           1         2         3
     Eigenvalues --  2769.252787371.639729744.38924
           X            0.99943  -0.03389   0.00052
           Y            0.03389   0.99942   0.00388
           Z           -0.00065  -0.00386   0.99999
 This molecule is an asymmetric top.
 Rotational symmetry number  1.
 Warning -- assumption of classical behavior for rotation
           may cause significant error
 Rotational temperatures (Kelvin)      0.03128     0.01175     0.00889
 Rotational constants (GHZ):           0.65171     0.24482     0.18521
 Zero-point vibrational energy     689371.6 (Joules/Mol)
                                  164.76377 (Kcal/Mol)
 Warning -- explicit consideration of  25 degrees of freedom as
           vibrations may cause significant error
 Vibrational temperatures:     35.77    50.46    60.57    90.97    98.09
          (Kelvin)            150.37   156.84   199.93   284.02   336.21
                              345.83   363.01   384.35   435.53   455.69
                              538.34   550.60   557.33   588.61   635.28
                              662.91   698.41   740.17   766.37   852.28
                              908.73   920.11   950.21  1004.02  1016.99
                             1119.49  1163.71  1185.28  1250.64  1271.50
                             1280.04  1318.67  1368.46  1385.90  1399.68
                             1403.53  1444.59  1467.22  1508.52  1514.52
                             1575.02  1599.10  1625.24  1636.22  1730.89
                             1762.74  1795.36  1819.96  1827.51  1849.25
                             1902.83  1927.75  1949.34  1982.18  2033.58
                             2047.27  2062.87  2090.70  2112.39  2172.65
                             2178.44  2189.72  2197.38  2208.66  2228.58
                             2367.38  2404.77  2473.57  2536.55  3438.38
                             4350.46  4378.95  4389.49  4400.54  4403.20
                             4479.62  4510.21  4522.91  4600.91  4622.96
                             4651.01  4675.09  4968.34  5084.40  5140.58

 Zero-point correction=                           0.262568 (Hartree/Particle)
 Thermal correction to Energy=                    0.279352
 Thermal correction to Enthalpy=                  0.280297
 Thermal correction to Gibbs Free Energy=         0.216133
 Sum of electronic and zero-point Energies=           -780.781595
 Sum of electronic and thermal Energies=              -780.764811
 Sum of electronic and thermal Enthalpies=            -780.763867
 Sum of electronic and thermal Free Energies=         -780.828030

                     E (Thermal)             CV                S
                      KCal/Mol        Cal/Mol-Kelvin    Cal/Mol-Kelvin
 Total                  175.296             62.445            135.043
 Electronic               0.000              0.000              0.000
 Translational            0.889              2.981             42.241
 Rotational               0.889              2.981             33.653
 Vibrational            173.519             56.483             59.150
 Vibration     1          0.593              1.985              6.202
 Vibration     2          0.594              1.982              5.520
 Vibration     3          0.595              1.980              5.158
 Vibration     4          0.597              1.972              4.354
 Vibration     5          0.598              1.969              4.205
 Vibration     6          0.605              1.946              3.368
 Vibration     7          0.606              1.942              3.286
 Vibration     8          0.615              1.914              2.818
 Vibration     9          0.637              1.844              2.157
 Vibration    10          0.654              1.789              1.850
 Vibration    11          0.657              1.779              1.800
 Vibration    12          0.664              1.759              1.714
 Vibration    13          0.672              1.733              1.615
 Vibration    14          0.694              1.669              1.402
 Vibration    15          0.704              1.642              1.327
 Vibration    16          0.745              1.525              1.063
 Vibration    17          0.752              1.507              1.029
 Vibration    18          0.756              1.497              1.010
 Vibration    19          0.773              1.450              0.930
 Vibration    20          0.801              1.380              0.822
 Vibration    21          0.819              1.337              0.764
 Vibration    22          0.841              1.282              0.696
 Vibration    23          0.869              1.218              0.623
 Vibration    24          0.888              1.178              0.581
 Vibration    25          0.950              1.048              0.463

                           ! Non-Optimized Parameters !
 Normal termination of Gaussian 16 at Fri Dec 11 12:09:24 2020.

 ----------------------------------------------------------------------
 # B3LYP/6-311++G(d,p) empiricaldispersion=gd3bj scf=xqc pop=npa geom=c
 heck
 ----------------------------------------------------------------------

 --------------------------------------
 CID_60836166_JID_7151_Energie_neutraal
 --------------------------------------
 Structure from the checkpoint file:  "JID_7151.chk"
 Charge =  0 Multiplicity = 1

 SCF Done:  E(RB3LYP) =  -781.272376091     A.U. after   16 cycles
 Normal termination of Gaussian 16 at Fri Dec 11 12:15:03 2020.

 ----------------------------------------------------------------------
 # B3LYP/6-311++G(d,p) empiricaldispersion=gd3bj scf=xqc pop=npa geom=c
 heck
 ----------------------------------------------------------------------

 ------------------------------------
 CID_60836166_JID_7151_Energie_kation
 ------------------------------------
 Structure from the checkpoint file:  "JID_7151.chk"
 Charge =  1 Multiplicity = 2

 SCF Done:  E(UB3LYP) =  -780.968134337     A.U. after   28 cycles
 Normal termination of Gaussian 16 at Fri Dec 11 12:28:18 2020.
 Gaussian 16:  ES64L-G16RevA.03 25-Dec-2016

 ----------------------------------------------------------------------
 # B3LYP/6-311++G(d,p) empiricaldispersion=gd3bj scf=xqc pop=npa geom=c
 heck
 ----------------------------------------------------------------------

 -----------------------------------
 CID_60836166_JID_7151_Energie_anion
 -----------------------------------
 Structure from the checkpoint file:  "JID_7151.chk"
 Charge = -1 Multiplicity = 2

                         Standard orientation:
 ---------------------------------------------------------------------
 Center     Atomic      Atomic             Coordinates (Angstroms)
 Number     Number       Type             X           Y           Z
 ---------------------------------------------------------------------
      1          6           0       -2.204944    2.281151    0.753150
      2          6           0       -2.853377    1.802768   -0.548425
      3          6           0       -2.367142    0.375273   -0.941403
      4          6           0       -2.690426   -0.662468    0.116595
      5          8           0       -3.826229   -0.800649    0.562945
      6          7           0       -1.697716   -1.515172    0.562125
      7          6           0       -0.319523   -1.589316    0.254571
      8          6           0        0.500965   -0.465034    0.328915
      9          6           0        1.861555   -0.574245    0.025273
     10          6           0        2.422026   -1.808801   -0.309878
     11          6           0        1.593025   -2.934567   -0.344484
     12          6           0        0.234057   -2.836607   -0.075791
     13          8           0        2.563326    0.601767    0.111668
     14          6           0        3.956584    0.540808   -0.129638
     15          6           0        4.506287    1.890307    0.036739
     16          7           0        4.971927    2.944468    0.159885
     17          7           0       -4.305901    1.944499   -0.439491
     18          1           0       -2.480582    1.628506    1.590277
     19          1           0       -2.552859    3.290480    0.987389
     20          1           0       -1.111795    2.299520    0.674776
     21          1           0       -2.524996    2.468799   -1.356661
     22          1           0       -2.908143    0.063969   -1.844357
     23          1           0       -1.304775    0.385937   -1.193303
     24          1           0       -2.076203   -2.257980    1.139844
     25          1           0        0.110901    0.494102    0.644375
     26          1           0        3.475793   -1.913816   -0.537644
     27          1           0        2.021613   -3.898505   -0.601641
     28          1           0       -0.408083   -3.709916   -0.132993
     29          1           0        4.454416   -0.139646    0.575581
     30          1           0        4.170880    0.190470   -1.149207
     31          1           0       -4.730462    1.748321   -1.345877
     32          1           0       -4.645182    1.208635    0.181159
 ---------------------------------------------------------------------

 SCF Done:  E(UB3LYP) =  -781.272169772     A.U. after   33 cycles
 SCF Done:  E(UB3LYP) =  -781.272169772     a.u. after    1 cycles

 The electronic state is 2-A.
 Alpha  occ. eigenvalues --  -19.08006 -18.99764 -14.25295 -14.23986 -14.19953
 Alpha  occ. eigenvalues --  -10.18547 -10.18221 -10.14815 -10.13670 -10.12093
 Alpha  occ. eigenvalues --  -10.12041 -10.08773 -10.08097 -10.07718 -10.07492
 Alpha  occ. eigenvalues --  -10.07457 -10.07363  -0.99877  -0.95130  -0.84292
 Alpha  occ. eigenvalues --   -0.83366  -0.80182  -0.75751  -0.69711  -0.67705
 Alpha  occ. eigenvalues --   -0.65410  -0.63618  -0.62238  -0.54694  -0.52530
 Alpha  occ. eigenvalues --   -0.51293  -0.48203  -0.46450  -0.44706  -0.41912
 Alpha  occ. eigenvalues --   -0.41769  -0.40474  -0.39849  -0.38898  -0.37439
 Alpha  occ. eigenvalues --   -0.36679  -0.34043  -0.33819  -0.32630  -0.31719
 Alpha  occ. eigenvalues --   -0.31518  -0.30683  -0.29708  -0.29047  -0.28657
 Alpha  occ. eigenvalues --   -0.28271  -0.26742  -0.26500  -0.26090  -0.25731
 Alpha  occ. eigenvalues --   -0.25381  -0.24090  -0.20055  -0.17680  -0.15288
 Alpha  occ. eigenvalues --   -0.14877  -0.13646   0.03668
 Alpha virt. eigenvalues --    0.05810   0.06419   0.06952   0.07672   0.07910
 Alpha virt. eigenvalues --    0.08251   0.08632   0.08767   0.09255   0.10213
 Alpha virt. eigenvalues --    0.10370   0.10519   0.11046   0.11455   0.12379

  Beta  occ. eigenvalues --  -19.07999 -18.99698 -14.25325 -14.23977 -14.19949
  Beta  occ. eigenvalues --  -10.18490 -10.18125 -10.14841 -10.13666 -10.12035
  Beta  occ. eigenvalues --  -10.11965 -10.08775 -10.08025 -10.07734 -10.07403
  Beta  occ. eigenvalues --  -10.07359 -10.07349  -0.99862  -0.94998  -0.84199
  Beta  occ. eigenvalues --   -0.83341  -0.80172  -0.75633  -0.69625  -0.67662
  Beta  occ. eigenvalues --   -0.65191  -0.63502  -0.62198  -0.54489  -0.52465
  Beta  occ. eigenvalues --   -0.51215  -0.48122  -0.46378  -0.44624  -0.41861
  Beta  occ. eigenvalues --   -0.41721  -0.40364  -0.39733  -0.38829  -0.37339
  Beta  occ. eigenvalues --   -0.36607  -0.33958  -0.33771  -0.32558  -0.31631
  Beta  occ. eigenvalues --   -0.31367  -0.30589  -0.29613  -0.28985  -0.28589
  Beta  occ. eigenvalues --   -0.28246  -0.26655  -0.26444  -0.26052  -0.25657
  Beta  occ. eigenvalues --   -0.25297  -0.23920  -0.19732  -0.17637  -0.15253
  Beta  occ. eigenvalues --   -0.14442  -0.13378
  Beta virt. eigenvalues --    0.06035   0.06730   0.07145   0.07608   0.07828
  Beta virt. eigenvalues --    0.08103   0.08328   0.08839   0.09187   0.09648
  Beta virt. eigenvalues --    0.10335   0.10494   0.10835   0.11225   0.11694

 Mulliken charges and spin densities:
               1          2
     1  C   -0.483932  -0.044940
     2  C   -0.151811  -0.241694
     3  C    0.061746  -0.214149
     4  C   -0.101763   0.096180
     5  O   -0.363323   0.037435
     6  N   -0.130482  -0.017897
     7  C   -0.277310  -0.161494
     8  C   -0.504209   0.434477
     9  C    0.837046  -0.881625
    10  C    1.284772  -0.921853
    11  C   -1.072735   0.656094
    12  C   -0.327292   0.333358
    13  O   -0.116256   0.053160
    14  C    0.833065  -0.249134
    15  C    0.548538  -1.319969
    16  N   -0.274592   0.009418
    17  N   -0.310126   0.021434
    18  H    0.147029   0.033462
    19  H    0.158969   0.016548
    20  H    0.108141   0.015697
    21  H    0.114806   0.072672
    22  H   -0.035895   0.247982
    23  H    0.230658  -0.067256
    24  H    0.151564   0.156961
    25  H    0.268560  -0.056886
    26  H   -0.710794   0.886745
    27  H   -0.484100   0.668617
    28  H   -0.181362   0.338233
    29  H   -0.175460   0.374742
    30  H   -0.473753   0.693063
    31  H    0.169408   0.038895
    32  H    0.260894  -0.008276
 Sum of Mulliken charges =  -1.00000   1.00000

 Dipole moment (field-independent basis, Debye):
    X=             -5.3462    Y=              1.2303    Z=              0.6127  Tot=              5.5201
 Quadrupole moment (field-independent basis, Debye-Ang):
   XX=           -203.1656   YY=           -156.6231   ZZ=           -123.1681
   XY=             -0.2761   XZ=             10.5980   YZ=             -3.4555

 Summary of Natural Population Analysis:

                                       Natural Population
                Natural  -----------------------------------------------
    Atom  No    Charge         Core      Valence    Rydberg      Total
 -----------------------------------------------------------------------
      C    1   -0.29082      0.99964     2.28576    0.00542     3.29082
      C    2   -0.01071      0.99963     1.99920    0.01188     3.01071
      C    3   -0.24439      0.99957     2.23611    0.00871     3.24439
      C    4    0.35816      0.99967     1.61812    0.02405     2.64184
      O    5   -0.32990      0.99987     3.32441    0.00562     4.32990
      N    6   -0.31553      0.99964     2.80589    0.00999     3.81553
      C    7    0.09749      0.99947     1.89191    0.01113     2.90251
      C    8   -0.12024      0.99947     2.11152    0.00925     3.12024
      C    9    0.15880      0.99938     1.82820    0.01362     2.84120
      C   10   -0.13513      0.99951     2.12588    0.00974     3.13513
      C   11   -0.07314      0.99958     2.06298    0.01058     3.07314
      C   12   -0.12663      0.99952     2.11748    0.00963     3.12663
      O   13   -0.26969      0.99985     3.26018    0.00966     4.26969
      C   14   -0.06532      0.99948     2.05417    0.01167     3.06532
      C   15    0.15737      0.99965     1.82768    0.01530     2.84263
      N   16   -0.17340      0.99979     2.66289    0.01072     3.67340
      N   17   -0.42660      0.99977     2.91745    0.00938     3.92660
      H   18    0.10043      0.00000     0.39877    0.00079     0.39957
      H   19    0.10375      0.00000     0.39533    0.00092     0.39625
      H   20    0.09853      0.00000     0.40075    0.00072     0.40147
      H   21    0.08742      0.00000     0.41080    0.00178     0.41258
      H   22    0.11102      0.00000     0.38762    0.00136     0.38898
      H   23    0.11184      0.00000     0.38672    0.00144     0.38816
      H   24    0.19796      0.00000     0.29934    0.00270     0.30204
      H   25    0.10765      0.00000     0.39043    0.00193     0.39235
      H   26    0.10777      0.00000     0.38825    0.00399     0.39223
      H   27    0.10219      0.00000     0.39643    0.00138     0.39781
      H   28    0.10227      0.00000     0.39661    0.00112     0.39773
      H   29    0.10820      0.00000     0.38957    0.00222     0.39180
      H   30    0.11386      0.00000     0.38249    0.00365     0.38614
      H   31    0.16987      0.00000     0.32845    0.00167     0.33013
      H   32    0.18692      0.00000     0.31114    0.00194     0.31308
 =======================================================================
   * Total *   -0.00000     16.99349    44.79256    0.21395    62.00000

 Normal termination of Gaussian 16 at Fri Dec 11 12:49:49 2020.
