 Gaussian 16, Revision A.03,

 -----------------------------------------------------------
 # opt freq B3LYP/6-31G(d) empiricaldispersion=gd3bj scf=xqc
 -----------------------------------------------------------

 -------------------------------
 CID_107898784_JID_3421_neutraal
 -------------------------------
 Symbolic Z-matrix:
 Charge =  0 Multiplicity = 1

 SCF Done:  E(RB3LYP) =  -541.931099508     A.U. after   13 cycles
 SCF Done:  E(RB3LYP) =  -541.935420217     A.U. after   11 cycles
 SCF Done:  E(RB3LYP) =  -541.935991573     A.U. after   11 cycles
 SCF Done:  E(RB3LYP) =  -541.936515635     A.U. after   11 cycles
 SCF Done:  E(RB3LYP) =  -541.936906968     A.U. after   11 cycles
 SCF Done:  E(RB3LYP) =  -541.937289745     A.U. after   10 cycles
 SCF Done:  E(RB3LYP) =  -541.937822240     A.U. after   10 cycles
 SCF Done:  E(RB3LYP) =  -541.937631816     A.U. after   10 cycles
 SCF Done:  E(RB3LYP) =  -541.938447055     A.U. after   11 cycles
 SCF Done:  E(RB3LYP) =  -541.938821638     A.U. after   11 cycles
 SCF Done:  E(RB3LYP) =  -541.939784927     A.U. after   11 cycles
 SCF Done:  E(RB3LYP) =  -541.939862667     A.U. after   11 cycles
 SCF Done:  E(RB3LYP) =  -541.939863854     A.U. after    8 cycles
 SCF Done:  E(RB3LYP) =  -541.939864088     A.U. after    8 cycles
 SCF Done:  E(RB3LYP) =  -541.939864139     A.U. after    7 cycles
 SCF Done:  E(RB3LYP) =  -541.939864123     A.U. after    6 cycles
 Optimization completed.
    -- Stationary point found.
 Normal termination of Gaussian 16 at Wed Dec  9 23:29:07 2020.

 --------------------------------------------------------------------
 #N Geom=AllCheck Guess=TCheck SCRF=Check GenChk RB3LYP/6-31G(d) Freq
 --------------------------------------------------------------------

 Structure from the checkpoint file:  "JID_3421.chk"
 -------------------------------
 CID_107898784_JID_3421_neutraal
 -------------------------------
 Charge =  0 Multiplicity = 1

 SCF Done:  E(RB3LYP) =  -541.939864123     A.U. after    1 cycles

  Exact polarizability: 165.657   8.397 120.683   8.479   2.234 108.476
 Approx polarizability: 189.559  16.940 173.274  12.849   2.358 165.214

                      1                      2                      3
                      A                      A                      A
 Frequencies --     15.6726                30.8327                39.4885
 Red. masses --      3.1252                 2.8653                 2.5933
 Frc consts  --      0.0005                 0.0016                 0.0024
 IR Inten    --      0.0411                 0.1329                 0.0931

                      4                      5                      6
                      A                      A                      A
 Frequencies --     82.5316                93.7846               109.1430
 Red. masses --      2.2389                 2.2531                 2.2805
 Frc consts  --      0.0090                 0.0117                 0.0160
 IR Inten    --      0.3350                 0.0324                 0.4519

                      7                      8                      9
                      A                      A                      A
 Frequencies --    134.3788               180.0189               192.8411
 Red. masses --      1.8575                 2.6894                 2.0337
 Frc consts  --      0.0198                 0.0513                 0.0446
 IR Inten    --      0.7397                 1.0430                 0.6104

                     10                     11                     12
                      A                      A                      A
 Frequencies --    210.8862               238.8541               253.1752
 Red. masses --      1.4133                 1.7692                 3.6121
 Frc consts  --      0.0370                 0.0595                 0.1364
 IR Inten    --      1.2345                 0.9029                 0.2948

                     13                     14                     15
                      A                      A                      A
 Frequencies --    263.9796               300.2010               343.2509
 Red. masses --      1.6535                 2.2129                 2.5064
 Frc consts  --      0.0679                 0.1175                 0.1740
 IR Inten    --      1.4903                 1.9297                 5.4266

                     16                     17                     18
                      A                      A                      A
 Frequencies --    372.9917               408.3290               470.8401
 Red. masses --      2.0096                 2.2015                 2.8419
 Frc consts  --      0.1647                 0.2163                 0.3712
 IR Inten    --      3.0524                 1.8037                 3.9302

                     19                     20                     21
                      A                      A                      A
 Frequencies --    500.6664               512.9962               589.9409
 Red. masses --      2.8102                 2.4335                 2.9995
 Frc consts  --      0.4150                 0.3773                 0.6151
 IR Inten    --      0.3196                 4.2074                 3.0906

                     22                     23                     24
                      A                      A                      A
 Frequencies --    652.8661               784.8104               788.2750
 Red. masses --      2.8789                 1.5071                 1.5110
 Frc consts  --      0.7230                 0.5469                 0.5532
 IR Inten    --      0.4218                50.5613                 8.2546

                     25                     26                     27
                      A                      A                      A
 Frequencies --    808.6592               825.5644               857.8047
 Red. masses --      1.4054                 1.2083                 2.8635
 Frc consts  --      0.5415                 0.4852                 1.2414
 IR Inten    --     32.2804                 1.5115                 2.2150

                     28                     29                     30
                      A                      A                      A
 Frequencies --    897.8678               909.1263               949.2970
 Red. masses --      2.0912                 2.1191                 1.5906
 Frc consts  --      0.9933                 1.0319                 0.8446
 IR Inten    --      3.6475                14.0482                 1.4357

                     31                     32                     33
                      A                      A                      A
 Frequencies --    963.2740               978.6517               994.3864
 Red. masses --      1.4634                 1.9895                 2.0857
 Frc consts  --      0.8000                 1.1227                 1.2151
 IR Inten    --     21.9445                 2.8278                 2.8290

                     34                     35                     36
                      A                      A                      A
 Frequencies --   1013.0044              1029.6387              1054.3915
 Red. masses --      1.0932                 1.6541                 2.1527
 Frc consts  --      0.6609                 1.0332                 1.4100
 IR Inten    --     27.2910                 5.3982                 2.5067

                     37                     38                     39
                      A                      A                      A
 Frequencies --   1062.2572              1078.9695              1084.9856
 Red. masses --      2.7993                 1.5373                 3.2395
 Frc consts  --      1.8611                 1.0544                 2.2468
 IR Inten    --     10.4771                 0.5930                 3.7254

                     40                     41                     42
                      A                      A                      A
 Frequencies --   1105.3685              1119.1796              1142.3488
 Red. masses --      2.0698                 2.0935                 1.9048
 Frc consts  --      1.4900                 1.5450                 1.4646
 IR Inten    --      5.1748                 6.3959                21.0646

                     43                     44                     45
                      A                      A                      A
 Frequencies --   1146.9798              1151.9894              1179.4303
 Red. masses --      2.8056                 2.2101                 2.3087
 Frc consts  --      2.1747                 1.7281                 1.8922
 IR Inten    --     34.6817                25.1854                 0.6983

                     46                     47                     48
                      A                      A                      A
 Frequencies --   1201.3743              1215.6628              1222.4671
 Red. masses --      2.0149                 1.3966                 1.6309
 Frc consts  --      1.7134                 1.2160                 1.4360
 IR Inten    --     24.4838                 6.3402                13.8496

                     49                     50                     51
                      A                      A                      A
 Frequencies --   1257.0180              1273.0720              1279.1325
 Red. masses --      1.3295                 1.4055                 1.4297
 Frc consts  --      1.2377                 1.3421                 1.3783
 IR Inten    --      4.6675                10.1773                 3.2821

                     52                     53                     54
                      A                      A                      A
 Frequencies --   1313.1030              1320.3381              1330.1486
 Red. masses --      1.3804                 1.2540                 1.2319
 Frc consts  --      1.4024                 1.2880                 1.2842
 IR Inten    --     21.4675                 1.6498                23.4034

                     55                     56                     57
                      A                      A                      A
 Frequencies --   1336.7420              1343.2173              1353.8936
 Red. masses --      1.2792                 1.3150                 1.2693
 Frc consts  --      1.3468                 1.3979                 1.3708
 IR Inten    --      2.3842                11.3565                 2.5509

                     58                     59                     60
                      A                      A                      A
 Frequencies --   1373.6592              1381.8657              1396.8271
 Red. masses --      1.2469                 1.3654                 1.2724
 Frc consts  --      1.3863                 1.5362                 1.4627
 IR Inten    --      7.5059                 8.5025                 9.8780

                     61                     62                     63
                      A                      A                      A
 Frequencies --   1406.7292              1425.5554              1429.9153
 Red. masses --      1.4584                 1.3392                 1.4164
 Frc consts  --      1.7003                 1.6034                 1.7063
 IR Inten    --     30.7142                 2.0681                 8.4143

                     64                     65                     66
                      A                      A                      A
 Frequencies --   1442.1143              1448.8754              1502.4720
 Red. masses --      1.2635                 1.4337                 1.0833
 Frc consts  --      1.5481                 1.7733                 1.4408
 IR Inten    --      3.2748                16.5172                 3.4100

                     67                     68                     69
                      A                      A                      A
 Frequencies --   1509.8876              1518.8807              1521.0307
 Red. masses --      1.0453                 1.2026                 1.0601
 Frc consts  --      1.4040                 1.6347                 1.4450
 IR Inten    --      5.8374                32.1807                 3.5646

                     70                     71                     72
                      A                      A                      A
 Frequencies --   1522.0171              1522.3354              1524.1598
 Red. masses --      1.0885                 1.0698                 1.0506
 Frc consts  --      1.4857                 1.4608                 1.4380
 IR Inten    --      4.3324                16.7085                 5.9254

                     73                     74                     75
                      A                      A                      A
 Frequencies --   1536.0750              1540.4211              1544.0641
 Red. masses --      1.0803                 1.0748                 1.0839
 Frc consts  --      1.5019                 1.5026                 1.5225
 IR Inten    --      2.3438                 2.5099                 5.5545

                     76                     77                     78
                      A                      A                      A
 Frequencies --   1557.5627              1754.7652              2887.8798
 Red. masses --      1.1045                 5.7557                 1.0733
 Frc consts  --      1.5787                10.4420                 5.2740
 IR Inten    --      5.6279                 5.1412                34.6784

                     79                     80                     81
                      A                      A                      A
 Frequencies --   2899.8211              2910.8821              2933.6126
 Red. masses --      1.0748                 1.0730                 1.0722
 Frc consts  --      5.3251                 5.3565                 5.4368
 IR Inten    --     29.7582               131.5726                82.9886

                     82                     83                     84
                      A                      A                      A
 Frequencies --   3030.4879              3031.2565              3041.7185
 Red. masses --      1.0534                 1.0450                 1.0854
 Frc consts  --      5.6999                 5.6575                 5.9165
 IR Inten    --     47.1823                25.8225                44.4532

                     85                     86                     87
                      A                      A                      A
 Frequencies --   3055.7121              3060.8993              3062.5675
 Red. masses --      1.0356                 1.0864                 1.0634
 Frc consts  --      5.6973                 5.9972                 5.8767
 IR Inten    --     19.9675                22.7204                40.9877

                     88                     89                     90
                      A                      A                      A
 Frequencies --   3072.9982              3074.3278              3077.1075
 Red. masses --      1.1034                 1.0861                 1.1000
 Frc consts  --      6.1393                 6.0484                 6.1367
 IR Inten    --     30.1882                13.1525                25.7693

                     91                     92                     93
                      A                      A                      A
 Frequencies --   3087.8858              3096.6935              3113.5572
 Red. masses --      1.0894                 1.0887                 1.0967
 Frc consts  --      6.1203                 6.1512                 6.2640
 IR Inten    --     41.2562                26.9752                 4.5721

                     94                     95                     96
                      A                      A                      A
 Frequencies --   3115.6893              3123.4858              3130.1270
 Red. masses --      1.0998                 1.1012                 1.1032
 Frc consts  --      6.2904                 6.3298                 6.3683
 IR Inten    --     52.7526                46.3433                28.9825

                     97                     98                     99
                      A                      A                      A
 Frequencies --   3132.4497              3146.4060              3479.0126
 Red. masses --      1.0925                 1.0875                 1.0731
 Frc consts  --      6.3160                 6.3432                 7.6528
 IR Inten    --     28.6223                41.1965                 0.9424

 - Thermochemistry -
 -------------------
 Temperature   298.150 Kelvin.  Pressure   1.00000 Atm.
 Atom     1 has atomic number  6 and mass  12.00000

 Molecular mass:   182.17830 amu.
 Principal axes and moments of inertia in atomic units:
                           1         2         3
     Eigenvalues --   992.467407167.604117617.17205
           X            1.00000   0.00151   0.00120
           Y           -0.00152   0.99994   0.01099
           Z           -0.00118  -0.01099   0.99994
 This molecule is an asymmetric top.
 Rotational symmetry number  1.
 Warning -- assumption of classical behavior for rotation
           may cause significant error
 Rotational temperatures (Kelvin)      0.08727     0.01208     0.01137
 Rotational constants (GHZ):           1.81844     0.25179     0.23693
 Zero-point vibrational energy     848115.8 (Joules/Mol)
                                  202.70454 (Kcal/Mol)
 Warning -- explicit consideration of  21 degrees of freedom as
           vibrations may cause significant error
 Vibrational temperatures:     22.55    44.36    56.82   118.74   134.94
          (Kelvin)            157.03   193.34   259.01   277.46   303.42
                              343.66   364.26   379.81   431.92   493.86
                              536.65   587.49   677.43   720.35   738.09
                              848.79   939.33  1129.17  1134.15  1163.48
                             1187.80  1234.19  1291.83  1308.03  1365.83
                             1385.94  1408.06  1430.70  1457.49  1481.42
                             1517.03  1528.35  1552.40  1561.05  1590.38
                             1610.25  1643.59  1650.25  1657.46  1696.94
                             1728.51  1749.07  1758.86  1808.57  1831.67
                             1840.39  1889.26  1899.67  1913.79  1923.27
                             1932.59  1947.95  1976.39  1988.20  2009.72
                             2023.97  2051.06  2057.33  2074.88  2084.61
                             2161.72  2172.39  2185.33  2188.42  2189.84
                             2190.30  2192.93  2210.07  2216.32  2221.56
                             2240.99  2524.72  4155.01  4172.20  4188.11
                             4220.81  4360.20  4361.30  4376.35  4396.49
                             4403.95  4406.35  4421.36  4423.27  4427.27
                             4442.78  4455.45  4479.71  4482.78  4494.00
                             4503.55  4506.90  4526.98  5005.52

 Zero-point correction=                           0.323030 (Hartree/Particle)
 Thermal correction to Energy=                    0.338184
 Thermal correction to Enthalpy=                  0.339128
 Thermal correction to Gibbs Free Energy=         0.278372
 Sum of electronic and zero-point Energies=           -541.616834
 Sum of electronic and thermal Energies=              -541.601680
 Sum of electronic and thermal Enthalpies=            -541.600736
 Sum of electronic and thermal Free Energies=         -541.661492

                     E (Thermal)             CV                S
                      KCal/Mol        Cal/Mol-Kelvin    Cal/Mol-Kelvin
 Total                  212.214             55.185            127.873
 Electronic               0.000              0.000              0.000
 Translational            0.889              2.981             41.506
 Rotational               0.889              2.981             32.360
 Vibrational            210.436             49.223             54.007
 Vibration     1          0.593              1.986              7.118
 Vibration     2          0.594              1.984              5.775
 Vibration     3          0.594              1.981              5.285
 Vibration     4          0.600              1.961              3.830
 Vibration     5          0.603              1.954              3.580
 Vibration     6          0.606              1.942              3.284
 Vibration     7          0.613              1.919              2.882
 Vibration     8          0.629              1.867              2.328
 Vibration     9          0.635              1.850              2.200
 Vibration    10          0.643              1.824              2.036
 Vibration    11          0.657              1.781              1.811
 Vibration    12          0.664              1.757              1.708
 Vibration    13          0.671              1.739              1.635
 Vibration    14          0.693              1.673              1.416
 Vibration    15          0.722              1.589              1.197
 Vibration    16          0.744              1.528              1.067
 Vibration    17          0.773              1.452              0.933
 Vibration    18          0.828              1.315              0.735
 Vibration    19          0.856              1.249              0.656
 Vibration    20          0.868              1.221              0.626
 Vibration    21          0.947              1.053              0.467

 Optimization completed on the basis of negligible forces.
    -- Stationary point found.
 Normal termination of Gaussian 16 at Wed Dec  9 23:37:08 2020.

 ----------------------------------------------------------------------
 # B3LYP/6-311++G(d,p) empiricaldispersion=gd3bj scf=xqc pop=npa geom=c
 heck
 ----------------------------------------------------------------------

 ---------------------------------------
 CID_107898784_JID_3421_Energie_neutraal
 ---------------------------------------
 Structure from the checkpoint file:  "JID_3421.chk"
 Charge =  0 Multiplicity = 1

 SCF Done:  E(RB3LYP) =  -542.094788097     A.U. after   13 cycles
 Normal termination of Gaussian 16 at Wed Dec  9 23:41:07 2020.

 ----------------------------------------------------------------------
 # B3LYP/6-311++G(d,p) empiricaldispersion=gd3bj scf=xqc pop=npa geom=c
 heck
 ----------------------------------------------------------------------

 -------------------------------------
 CID_107898784_JID_3421_Energie_kation
 -------------------------------------
 Structure from the checkpoint file:  "JID_3421.chk"
 Charge =  1 Multiplicity = 2

 SCF Done:  E(UB3LYP) =  -541.815591877     A.U. after   22 cycles
 Normal termination of Gaussian 16 at Wed Dec  9 23:50:41 2020.
 Gaussian 16:  ES64L-G16RevA.03 25-Dec-2016

 ----------------------------------------------------------------------
 # B3LYP/6-311++G(d,p) empiricaldispersion=gd3bj scf=xqc pop=npa geom=c
 heck
 ----------------------------------------------------------------------

 ------------------------------------
 CID_107898784_JID_3421_Energie_anion
 ------------------------------------
 Structure from the checkpoint file:  "JID_3421.chk"
 Charge = -1 Multiplicity = 2

                         Standard orientation:
 ---------------------------------------------------------------------
 Center     Atomic      Atomic             Coordinates (Angstroms)
 Number     Number       Type             X           Y           Z
 ---------------------------------------------------------------------
      1          6           0       -5.185824    0.973446   -0.051829
      2          6           0       -4.056420    0.288549   -0.818501
      3          7           0       -2.954678   -0.112781    0.042453
      4          6           0       -2.210663    0.992105    0.645513
      5          6           0       -0.946034    0.319341    1.208160
      6          6           0       -0.761334   -0.963061    0.342096
      7          6           0       -1.937608   -0.900486   -0.647792
      8          6           0        0.592410   -1.046014   -0.358335
      9          7           0        1.662535   -1.303013    0.601964
     10          6           0        3.009857   -1.346845    0.016764
     11          6           0        3.541820   -0.020039   -0.463055
     12          6           0        4.602618    0.597292    0.063624
     13          6           0        5.134665    1.932373   -0.368662
     14          1           0       -5.527406    0.336246    0.770529
     15          1           0       -6.033985    1.170260   -0.716513
     16          1           0       -4.866831    1.932500    0.369885
     17          1           0       -4.444819   -0.617881   -1.299389
     18          1           0       -3.702351    0.952926   -1.635087
     19          1           0       -2.804127    1.495620    1.414207
     20          1           0       -1.936138    1.752311   -0.115005
     21          1           0       -0.081834    0.990670    1.142998
     22          1           0       -1.080245    0.059332    2.261837
     23          1           0       -0.863885   -1.848253    0.977581
     24          1           0       -1.612831   -0.407217   -1.589158
     25          1           0       -2.328442   -1.889058   -0.913119
     26          1           0        0.587060   -1.878272   -1.076076
     27          1           0        0.735128   -0.122398   -0.952109
     28          1           0        1.648826   -0.576019    1.316688
     29          1           0        3.693493   -1.760854    0.768627
     30          1           0        2.974845   -2.068841   -0.810914
     31          1           0        2.995781    0.466194   -1.272702
     32          1           0        5.144593    0.103123    0.873062
     33          1           0        5.141741    2.647367    0.465197
     34          1           0        6.171804    1.852573   -0.721276
     35          1           0        4.533704    2.360263   -1.178075
 ---------------------------------------------------------------------

 SCF Done:  E(UB3LYP) =  -542.078788619     A.U. after   32 cycles

 The electronic state is 2-A.
 Alpha  occ. eigenvalues --  -14.20897 -14.20793 -10.10639 -10.10025 -10.09907
 Alpha  occ. eigenvalues --  -10.09735 -10.09544 -10.08233 -10.08066 -10.07431
 Alpha  occ. eigenvalues --  -10.07405 -10.07149 -10.06658  -0.84400  -0.81725
 Alpha  occ. eigenvalues --   -0.71272  -0.69783  -0.65129  -0.63717  -0.61877
 Alpha  occ. eigenvalues --   -0.56934  -0.53528  -0.53162  -0.48186  -0.46998
 Alpha  occ. eigenvalues --   -0.45913  -0.41602  -0.40645  -0.37689  -0.37040
 Alpha  occ. eigenvalues --   -0.36336  -0.35832  -0.33631  -0.33108  -0.32044
 Alpha  occ. eigenvalues --   -0.31842  -0.31099  -0.29814  -0.29082  -0.28265
 Alpha  occ. eigenvalues --   -0.27529  -0.26500  -0.26161  -0.26070  -0.24838
 Alpha  occ. eigenvalues --   -0.23717  -0.23307  -0.22831  -0.16849  -0.13644
 Alpha  occ. eigenvalues --   -0.12766   0.04281
 Alpha virt. eigenvalues --    0.05618   0.07001   0.07229   0.07364   0.08051
 Alpha virt. eigenvalues --    0.08376   0.09031   0.09524   0.09711   0.10035
 Alpha virt. eigenvalues --    0.10367   0.10590   0.11076   0.11417   0.12038

  Beta  occ. eigenvalues --  -14.20885 -14.20789 -10.10633 -10.10016 -10.09890
  Beta  occ. eigenvalues --  -10.09726 -10.09525 -10.08220 -10.08064 -10.07419
  Beta  occ. eigenvalues --  -10.07399 -10.07104 -10.06629  -0.84378  -0.81715
  Beta  occ. eigenvalues --   -0.71250  -0.69756  -0.65098  -0.63686  -0.61835
  Beta  occ. eigenvalues --   -0.56893  -0.53479  -0.53115  -0.48144  -0.46951
  Beta  occ. eigenvalues --   -0.45861  -0.41582  -0.40608  -0.37657  -0.37015
  Beta  occ. eigenvalues --   -0.36308  -0.35805  -0.33603  -0.33067  -0.32018
  Beta  occ. eigenvalues --   -0.31794  -0.31069  -0.29778  -0.29050  -0.28231
  Beta  occ. eigenvalues --   -0.27501  -0.26459  -0.26123  -0.26022  -0.24812
  Beta  occ. eigenvalues --   -0.23696  -0.23288  -0.22810  -0.16826  -0.13628
  Beta  occ. eigenvalues --   -0.12705
  Beta virt. eigenvalues --    0.06212   0.06647   0.07338   0.07465   0.07962
  Beta virt. eigenvalues --    0.08355   0.08669   0.09223   0.09875   0.10129
  Beta virt. eigenvalues --    0.10275   0.10620   0.10824   0.11375   0.11674

 Mulliken charges and spin densities:
               1          2
     1  C    0.755055  -1.310405
     2  C   -0.382609   0.342325
     3  N    0.039640   0.136602
     4  C   -0.075678  -0.311028
     5  C    0.581369  -1.036117
     6  C   -1.046938   1.509038
     7  C    0.110895  -0.825163
     8  C   -0.059348  -0.750198
     9  N    0.111152   0.019692
    10  C   -0.074276  -0.644593
    11  C    0.375237   0.097626
    12  C   -1.226762   1.183579
    13  C    1.910545  -2.620189
    14  H    0.016400   0.129527
    15  H   -0.386830   0.520370
    16  H   -0.287253   0.430597
    17  H   -0.279745   0.419943
    18  H    0.118557  -0.032124
    19  H    0.106574   0.056359
    20  H   -0.237774   0.377495
    21  H    0.019122   0.107820
    22  H   -0.027938   0.186261
    23  H    0.089046   0.115512
    24  H   -0.060603   0.186765
    25  H   -0.017305   0.179888
    26  H    0.081106   0.075222
    27  H    0.064338   0.053711
    28  H    0.211170   0.006504
    29  H    0.162594   0.013748
    30  H   -0.008360   0.133393
    31  H   -0.119366   0.221654
    32  H   -0.426183   0.550354
    33  H   -0.377984   0.533157
    34  H   -0.255313   0.395712
    35  H   -0.402532   0.546964
 Sum of Mulliken charges =  -1.00000   1.00000

 Dipole moment (field-independent basis, Debye):
    X=             -1.0406    Y=             -4.5887    Z=              0.6450  Tot=              4.7492
 Quadrupole moment (field-independent basis, Debye-Ang):
   XX=           -215.9553   YY=           -129.3679   ZZ=           -114.6857
   XY=            -11.9004   XZ=             -1.7196   YZ=              1.5256

 Summary of Natural Population Analysis:

                                       Natural Population
                Natural  -----------------------------------------------
    Atom  No    Charge         Core      Valence    Rydberg      Total
 -----------------------------------------------------------------------
      C    1   -0.28733      0.99967     2.28315    0.00452     3.28733
      C    2   -0.08243      0.99963     2.07084    0.01196     3.08243
      N    3   -0.27968      0.99971     2.76739    0.01259     3.77968
      C    4   -0.08757      0.99963     2.07547    0.01247     3.08757
      C    5   -0.19482      0.99962     2.18600    0.00920     3.19482
      C    6   -0.11754      0.99959     2.10746    0.01049     3.11754
      C    7   -0.07748      0.99961     2.06900    0.00887     3.07748
      C    8   -0.08240      0.99959     2.07276    0.01005     3.08240
      N    9   -0.33531      0.99975     2.82513    0.01043     3.83531
      C   10   -0.09869      0.99961     2.08789    0.01118     3.09869
      C   11   -0.11121      0.99950     2.10191    0.00980     3.11121
      C   12   -0.08220      0.99953     2.07199    0.01068     3.08220
      C   13   -0.29880      0.99965     2.29380    0.00534     3.29880
      H   14    0.09902      0.00000     0.39933    0.00166     0.40098
      H   15    0.09973      0.00000     0.39903    0.00124     0.40027
      H   16    0.09700      0.00000     0.40152    0.00148     0.40300
      H   17    0.09311      0.00000     0.40535    0.00155     0.40689
      H   18    0.07804      0.00000     0.42026    0.00169     0.42196
      H   19    0.09794      0.00000     0.40054    0.00153     0.40206
      H   20    0.07977      0.00000     0.41855    0.00169     0.42023
      H   21    0.09947      0.00000     0.39935    0.00118     0.40053
      H   22    0.10005      0.00000     0.39878    0.00116     0.39995
      H   23    0.10128      0.00000     0.39688    0.00184     0.39872
      H   24    0.07798      0.00000     0.42019    0.00183     0.42202
      H   25    0.09702      0.00000     0.40150    0.00147     0.40298
      H   26    0.09007      0.00000     0.40834    0.00158     0.40993
      H   27    0.08036      0.00000     0.41754    0.00209     0.41964
      H   28    0.17064      0.00000     0.32578    0.00358     0.32936
      H   29    0.09327      0.00000     0.40539    0.00133     0.40673
      H   30    0.09226      0.00000     0.40643    0.00132     0.40774
      H   31    0.09213      0.00000     0.40653    0.00134     0.40787
      H   32    0.08776      0.00000     0.41080    0.00144     0.41224
      H   33    0.10481      0.00000     0.39287    0.00232     0.39519
      H   34    0.10248      0.00000     0.39575    0.00177     0.39752
      H   35    0.10128      0.00000     0.39705    0.00167     0.39872
 =======================================================================
   * Total *   -0.00000     12.99509    37.84055    0.16436    51.00000

 Normal termination of Gaussian 16 at Thu Dec 10 00:04:19 2020.
