 Gaussian 16, Revision A.03,

 -----------------------------------------------------------
 # opt freq B3LYP/6-31G(d) empiricaldispersion=gd3bj scf=xqc
 -----------------------------------------------------------

 -----------------------------
 CID_3022683_JID_7298_neutraal
 -----------------------------
 Symbolic Z-matrix:
 Charge =  0 Multiplicity = 1

 SCF Done:  E(RB3LYP) =  -1448.08776877     A.U. after   15 cycles
 SCF Done:  E(RB3LYP) =  -1448.09839689     A.U. after   13 cycles
 SCF Done:  E(RB3LYP) =  -1448.09979266     A.U. after   13 cycles
 SCF Done:  E(RB3LYP) =  -1448.10023395     A.U. after   13 cycles
 SCF Done:  E(RB3LYP) =  -1448.10056501     A.U. after   12 cycles
 SCF Done:  E(RB3LYP) =  -1448.10064063     A.U. after   11 cycles
 SCF Done:  E(RB3LYP) =  -1448.10068491     A.U. after   11 cycles
 SCF Done:  E(RB3LYP) =  -1448.10070120     A.U. after   10 cycles
 SCF Done:  E(RB3LYP) =  -1448.10071682     A.U. after   10 cycles
 SCF Done:  E(RB3LYP) =  -1448.10072700     A.U. after   10 cycles
 SCF Done:  E(RB3LYP) =  -1448.10073396     A.U. after    8 cycles
 SCF Done:  E(RB3LYP) =  -1448.10073403     A.U. after    8 cycles
 SCF Done:  E(RB3LYP) =  -1448.10073407     A.U. after    7 cycles
 SCF Done:  E(RB3LYP) =  -1448.10073410     A.U. after    7 cycles
 SCF Done:  E(RB3LYP) =  -1448.10073413     A.U. after    7 cycles
 SCF Done:  E(RB3LYP) =  -1448.10073414     A.U. after    7 cycles
 Optimization completed.
    -- Stationary point found.
 Normal termination of Gaussian 16 at Fri Dec 11 12:03:04 2020.

 --------------------------------------------------------------------
 #N Geom=AllCheck Guess=TCheck SCRF=Check GenChk RB3LYP/6-31G(d) Freq
 --------------------------------------------------------------------

 Structure from the checkpoint file:  "JID_7298.chk"
 -----------------------------
 CID_3022683_JID_7298_neutraal
 -----------------------------
 Charge =  0 Multiplicity = 1

 SCF Done:  E(RB3LYP) =  -1448.10073414     A.U. after    1 cycles

  Exact polarizability: 379.435  10.585 191.009   2.580   0.379  96.237
 Approx polarizability: 564.006  13.014 325.259   2.611   2.971 153.474

                      1                      2                      3
                      A                      A                      A
 Frequencies --     18.2033                40.5624                65.8684
 Red. masses --      3.6489                 5.2669                 5.4929
 Frc consts  --      0.0007                 0.0051                 0.0140
 IR Inten    --      0.0653                 0.8770                 0.1709

                      4                      5                      6
                      A                      A                      A
 Frequencies --     77.1701               107.8557               120.7560
 Red. masses --      5.8414                 4.4788                 2.6807
 Frc consts  --      0.0205                 0.0307                 0.0230
 IR Inten    --      0.2113                 3.2181                 5.9138

                      7                      8                      9
                      A                      A                      A
 Frequencies --    127.0733               140.0959               160.0249
 Red. masses --      1.9644                 1.0649                 1.8558
 Frc consts  --      0.0187                 0.0123                 0.0280
 IR Inten    --      2.6689                 0.1692                 3.7924

                     10                     11                     12
                      A                      A                      A
 Frequencies --    182.3912               203.2855               215.5477
 Red. masses --      3.4578                 2.0910                 1.6801
 Frc consts  --      0.0678                 0.0509                 0.0460
 IR Inten    --      0.6352                 0.8401                 2.5381

                     13                     14                     15
                      A                      A                      A
 Frequencies --    222.2812               228.2245               241.5629
 Red. masses --      4.6928                 1.6137                 2.5552
 Frc consts  --      0.1366                 0.0495                 0.0878
 IR Inten    --      1.3458                 3.7939                 8.4257

                     16                     17                     18
                      A                      A                      A
 Frequencies --    261.9735               320.0616               328.4265
 Red. masses --      5.9524                 2.9349                 7.0148
 Frc consts  --      0.2407                 0.1771                 0.4458
 IR Inten    --      2.5326                 1.1286                 2.5758

                     19                     20                     21
                      A                      A                      A
 Frequencies --    369.7996               389.7639               423.1731
 Red. masses --      4.9656                 4.5931                 3.5735
 Frc consts  --      0.4001                 0.4111                 0.3770
 IR Inten    --     14.9732                 7.3252                 1.7263

                     22                     23                     24
                      A                      A                      A
 Frequencies --    477.8393               502.4918               520.7883
 Red. masses --      7.9816                 6.9162                 2.2469
 Frc consts  --      1.0738                 1.0289                 0.3590
 IR Inten    --      5.8365                72.9186                16.3631

                     25                     26                     27
                      A                      A                      A
 Frequencies --    552.9470               560.8727               584.1937
 Red. masses --      8.7876                15.4789                 3.6390
 Frc consts  --      1.5830                 2.8689                 0.7317
 IR Inten    --      0.1523                 1.4477                 3.8212

                     28                     29                     30
                      A                      A                      A
 Frequencies --    598.4464               613.7667               665.8754
 Red. masses --      3.2965                 4.7734                 2.7734
 Frc consts  --      0.6956                 1.0595                 0.7245
 IR Inten    --      4.4592                 1.1293                13.4192

                     31                     32                     33
                      A                      A                      A
 Frequencies --    742.8483               771.4488               798.3190
 Red. masses --     10.5338                 3.7657                 3.8202
 Frc consts  --      3.4248                 1.3204                 1.4344
 IR Inten    --     11.2453                 2.3345                 2.1213

                     34                     35                     36
                      A                      A                      A
 Frequencies --    830.9715               888.0566               898.7376
 Red. masses --      1.4660                 2.0345                 1.7958
 Frc consts  --      0.5964                 0.9454                 0.8546
 IR Inten    --     23.0537                69.3436                39.0873

                     37                     38                     39
                      A                      A                      A
 Frequencies --    938.5005               959.1666               974.6725
 Red. masses --      3.0702                 2.4152                 5.5189
 Frc consts  --      1.5932                 1.3092                 3.0890
 IR Inten    --     28.4658                 5.3347                27.6060

                     40                     41                     42
                      A                      A                      A
 Frequencies --    988.5686              1004.7655              1045.2654
 Red. masses --      2.5652                 4.0484                 2.0948
 Frc consts  --      1.4770                 2.4080                 1.3485
 IR Inten    --      8.6474                 4.2407                 6.3317

                     43                     44                     45
                      A                      A                      A
 Frequencies --   1068.7692              1081.9577              1104.8151
 Red. masses --      1.5099                 1.7552                 1.6107
 Frc consts  --      1.0162                 1.2106                 1.1584
 IR Inten    --      3.8691                20.6631                 2.4996

                     46                     47                     48
                      A                      A                      A
 Frequencies --   1133.1668              1147.3842              1151.2698
 Red. masses --      2.0408                 3.0344                 1.2998
 Frc consts  --      1.5440                 2.3537                 1.0151
 IR Inten    --     25.5410                52.1798                20.2044

                     49                     50                     51
                      A                      A                      A
 Frequencies --   1166.1217              1166.3061              1204.9668
 Red. masses --      1.3636                 2.5663                 1.2869
 Frc consts  --      1.0925                 2.0567                 1.1009
 IR Inten    --     42.4613               419.9433                13.2428

                     52                     53                     54
                      A                      A                      A
 Frequencies --   1244.5776              1266.4902              1298.1862
 Red. masses --      1.5106                 1.2578                 3.0855
 Frc consts  --      1.3786                 1.1887                 3.0638
 IR Inten    --     16.4073                 8.1169                12.7444

                     55                     56                     57
                      A                      A                      A
 Frequencies --   1309.7679              1325.9472              1328.8962
 Red. masses --      3.1750                 2.3826                 1.4312
 Frc consts  --      3.2091                 2.4680                 1.4891
 IR Inten    --   1244.5273               211.0361                15.8096

                     58                     59                     60
                      A                      A                      A
 Frequencies --   1364.0071              1380.8485              1394.2943
 Red. masses --      1.3469                 2.6389                 3.8709
 Frc consts  --      1.4765                 2.9646                 4.4337
 IR Inten    --     53.8482                 7.3434                79.8189

                     61                     62                     63
                      A                      A                      A
 Frequencies --   1431.4095              1434.8940              1469.2868
 Red. masses --      1.9848                 1.2500                 2.0262
 Frc consts  --      2.3961                 1.5164                 2.5772
 IR Inten    --    143.6298                80.6626                26.7360

                     64                     65                     66
                      A                      A                      A
 Frequencies --   1476.8481              1491.4342              1498.8885
 Red. masses --      1.4653                 1.3090                 1.2012
 Frc consts  --      1.8830                 1.7156                 1.5901
 IR Inten    --     72.9508                56.7713                74.3593

                     67                     68                     69
                      A                      A                      A
 Frequencies --   1511.2076              1514.6245              1516.1727
 Red. masses --      1.1440                 1.0704                 1.0429
 Frc consts  --      1.5393                 1.4467                 1.4125
 IR Inten    --    106.3071                17.1676                 9.9830

                     70                     71                     72
                      A                      A                      A
 Frequencies --   1527.1411              1527.9934              1541.2780
 Red. masses --      1.1119                 1.0599                 1.0578
 Frc consts  --      1.5278                 1.4581                 1.4806
 IR Inten    --     22.2898                38.7200                33.4387

                     73                     74                     75
                      A                      A                      A
 Frequencies --   1542.2309              1555.8269              1601.1012
 Red. masses --      1.0775                 1.1374                 3.1005
 Frc consts  --      1.5100                 1.6222                 4.6829
 IR Inten    --     44.0660                14.6231               400.2904

                     76                     77                     78
                      A                      A                      A
 Frequencies --   1653.5767              1758.1163              2996.7384
 Red. masses --      4.9896                11.0195                 1.0721
 Frc consts  --      8.0382                20.0681                 5.6728
 IR Inten    --   1064.8846               222.1460                99.5235

                     79                     80                     81
                      A                      A                      A
 Frequencies --   3026.5480              3054.1517              3058.6597
 Red. masses --      1.0452                 1.0494                 1.0696
 Frc consts  --      5.6410                 5.7673                 5.8955
 IR Inten    --     52.0748                35.1466                10.7965

                     82                     83                     84
                      A                      A                      A
 Frequencies --   3080.8427              3082.8458              3093.3195
 Red. masses --      1.0685                 1.0325                 1.0948
 Frc consts  --      5.9752                 5.7816                 6.1720
 IR Inten    --     12.1638                26.1079                16.8538

                     85                     86                     87
                      A                      A                      A
 Frequencies --   3096.1066              3114.9077              3138.8172
 Red. masses --      1.0872                 1.0953                 1.1025
 Frc consts  --      6.1403                 6.2612                 6.3999
 IR Inten    --     63.5655                17.7252                26.1135

                     88                     89                     90
                      A                      A                      A
 Frequencies --   3149.4225              3151.9786              3160.2359
 Red. masses --      1.1058                 1.1003                 1.0925
 Frc consts  --      6.4621                 6.4408                 6.4285
 IR Inten    --     10.4108                15.7610                 8.6846

                     91                     92                     93
                      A                      A                      A
 Frequencies --   3196.5442              3197.2260              3206.1980
 Red. masses --      1.1035                 1.0851                 1.0961
 Frc consts  --      6.6435                 6.5354                 6.6384
 IR Inten    --      1.1383                 6.1648                 2.8404

 - Thermochemistry -
 -------------------
 Temperature   298.150 Kelvin.  Pressure   1.00000 Atm.
 Atom     1 has atomic number  6 and mass  12.00000

 Molecular mass:   268.07041 amu.
 Principal axes and moments of inertia in atomic units:
                           1         2         3
     Eigenvalues --  2132.812199994.25220**********
           X            0.99993  -0.01195   0.00016
           Y            0.01195   0.99993  -0.00257
           Z           -0.00013   0.00257   1.00000
 This molecule is an asymmetric top.
 Rotational symmetry number  1.
 Warning -- assumption of classical behavior for rotation
           may cause significant error
 Rotational temperatures (Kelvin)      0.04061     0.00867     0.00719
 Rotational constants (GHZ):           0.84618     0.18058     0.14987
 Zero-point vibrational energy     706735.7 (Joules/Mol)
                                  168.91390 (Kcal/Mol)
 Warning -- explicit consideration of  29 degrees of freedom as
           vibrations may cause significant error
 Vibrational temperatures:     26.19    58.36    94.77   111.03   155.18
          (Kelvin)            173.74   182.83   201.57   230.24   262.42
                              292.48   310.13   319.81   328.36   347.56
                              376.92   460.50   472.53   532.06   560.78
                              608.85   687.50   722.97   749.30   795.57
                              806.97   840.52   861.03   883.07   958.05
                             1068.79  1109.94  1148.60  1195.58  1277.72
                             1293.08  1350.29  1380.03  1402.34  1422.33
                             1445.63  1503.90  1537.72  1556.70  1589.58
                             1630.37  1650.83  1656.42  1677.79  1678.05
                             1733.68  1790.67  1822.20  1867.80  1884.46
                             1907.74  1911.99  1962.50  1986.73  2006.08
                             2059.48  2064.49  2113.98  2124.85  2145.84
                             2156.57  2174.29  2179.21  2181.43  2197.22
                             2198.44  2217.56  2218.93  2238.49  2303.63
                             2379.13  2529.54  4311.64  4354.53  4394.24
                             4400.73  4432.65  4435.53  4450.60  4454.61
                             4481.66  4516.06  4531.32  4534.99  4546.87
                             4599.11  4600.10  4613.00

 Zero-point correction=                           0.269181 (Hartree/Particle)
 Thermal correction to Energy=                    0.286860
 Thermal correction to Enthalpy=                  0.287804
 Thermal correction to Gibbs Free Energy=         0.222132
 Sum of electronic and zero-point Energies=          -1447.831553
 Sum of electronic and thermal Energies=             -1447.813874
 Sum of electronic and thermal Enthalpies=           -1447.812930
 Sum of electronic and thermal Free Energies=        -1447.878602

                     E (Thermal)             CV                S
                      KCal/Mol        Cal/Mol-Kelvin    Cal/Mol-Kelvin
 Total                  180.007             64.589            138.218
 Electronic               0.000              0.000              0.000
 Translational            0.889              2.981             42.657
 Rotational               0.889              2.981             33.906
 Vibrational            178.230             58.628             61.655
 Vibration     1          0.593              1.986              6.821
 Vibration     2          0.594              1.981              5.231
 Vibration     3          0.597              1.971              4.273
 Vibration     4          0.599              1.964              3.962
 Vibration     5          0.606              1.943              3.307
 Vibration     6          0.609              1.932              3.088
 Vibration     7          0.611              1.926              2.990
 Vibration     8          0.615              1.913              2.803
 Vibration     9          0.622              1.891              2.549
 Vibration    10          0.630              1.864              2.304
 Vibration    11          0.639              1.835              2.103
 Vibration    12          0.645              1.817              1.996
 Vibration    13          0.648              1.807              1.940
 Vibration    14          0.651              1.798              1.893
 Vibration    15          0.658              1.777              1.791
 Vibration    16          0.669              1.742              1.649
 Vibration    17          0.706              1.635              1.310
 Vibration    18          0.712              1.619              1.268
 Vibration    19          0.742              1.534              1.081
 Vibration    20          0.758              1.492              1.001
 Vibration    21          0.785              1.420              0.881
 Vibration    22          0.834              1.299              0.716
 Vibration    23          0.858              1.244              0.652
 Vibration    24          0.876              1.204              0.608
 Vibration    25          0.908              1.133              0.538
 Vibration    26          0.917              1.116              0.522
 Vibration    27          0.941              1.066              0.478
 Vibration    28          0.956              1.035              0.452
 Vibration    29          0.973              1.003              0.427

 Optimization completed.
    -- Stationary point found.
 Normal termination of Gaussian 16 at Fri Dec 11 12:15:03 2020.

 ----------------------------------------------------------------------
 # B3LYP/6-311++G(d,p) empiricaldispersion=gd3bj scf=xqc pop=npa geom=c
 heck
 ----------------------------------------------------------------------

 -------------------------------------
 CID_3022683_JID_7298_Energie_neutraal
 -------------------------------------
 Structure from the checkpoint file:  "JID_7298.chk"
 Charge =  0 Multiplicity = 1

 SCF Done:  E(RB3LYP) =  -1448.32596795     A.U. after   16 cycles
 Normal termination of Gaussian 16 at Fri Dec 11 12:21:30 2020.

 ----------------------------------------------------------------------
 # B3LYP/6-311++G(d,p) empiricaldispersion=gd3bj scf=xqc pop=npa geom=c
 heck
 ----------------------------------------------------------------------

 -----------------------------------
 CID_3022683_JID_7298_Energie_kation
 -----------------------------------
 Structure from the checkpoint file:  "JID_7298.chk"
 Charge =  1 Multiplicity = 2

 SCF Done:  E(UB3LYP) =  -1448.07381159     A.U. after   24 cycles
 Normal termination of Gaussian 16 at Fri Dec 11 12:36:10 2020.
 Gaussian 16:  ES64L-G16RevA.03 25-Dec-2016

 ----------------------------------------------------------------------
 # B3LYP/6-311++G(d,p) empiricaldispersion=gd3bj scf=xqc pop=npa geom=c
 heck
 ----------------------------------------------------------------------

 ----------------------------------
 CID_3022683_JID_7298_Energie_anion
 ----------------------------------
 Structure from the checkpoint file:  "JID_7298.chk"
 Charge = -1 Multiplicity = 2

                         Standard orientation:
 ---------------------------------------------------------------------
 Center     Atomic      Atomic             Coordinates (Angstroms)
 Number     Number       Type             X           Y           Z
 ---------------------------------------------------------------------
      1          6           0        0.849493    2.355666    0.047011
      2          6           0        0.485918    0.889611    0.018042
      3          6           0       -0.840356    0.509453    0.002151
      4          6           0       -2.020602    1.375077    0.026147
      5          8           0       -2.085796    2.599129    0.053698
      6          7           0       -3.201652    0.584839    0.013891
      7          6           0       -3.065959   -0.772833   -0.023844
      8         16           0       -4.289291   -1.886952   -0.048761
      9         16           0       -1.355823   -1.197983   -0.045720
     10          6           0       -4.510535    1.223201    0.035966
     11          6           0        1.500485   -0.122481    0.010662
     12          6           0        2.867905    0.005538   -0.012334
     13          6           0        3.737921    1.249801    0.019566
     14          6           0        5.149879    0.731577   -0.311654
     15          6           0        5.108727   -0.722767    0.164010
     16          7           0        3.704768   -1.076737   -0.031316
     17          6           0        3.248571   -2.442089    0.114224
     18          1           0       -0.033144    2.975513    0.181912
     19          1           0        1.327958    2.646905   -0.895942
     20          1           0        1.559244    2.560772    0.854071
     21          1           0       -4.338333    2.298434    0.063636
     22          1           0       -5.074898    0.941929   -0.856527
     23          1           0       -5.067555    0.894911    0.916910
     24          1           0        1.135841   -1.143763    0.028255
     25          1           0        3.400047    2.019626   -0.673670
     26          1           0        3.705920    1.685319    1.026264
     27          1           0        5.940632    1.312020    0.169072
     28          1           0        5.314069    0.759588   -1.393613
     29          1           0        5.394735   -0.815470    1.224278
     30          1           0        5.753595   -1.389143   -0.417797
     31          1           0        4.103004   -3.114156    0.012145
     32          1           0        2.775889   -2.613632    1.092012
     33          1           0        2.520690   -2.688160   -0.666603
 ---------------------------------------------------------------------

 SCF Done:  E(UB3LYP) =  -1448.35278930     A.U. after   25 cycles

 The electronic state is 2-A.
 Alpha  occ. eigenvalues --  -88.73102 -88.65628 -18.93784 -14.23151 -14.22952
 Alpha  occ. eigenvalues --  -10.12336 -10.12177 -10.11841 -10.11128 -10.09408
 Alpha  occ. eigenvalues --  -10.08836 -10.08195 -10.07748 -10.04971 -10.04005
 Alpha  occ. eigenvalues --  -10.03208 -10.02960  -7.81732  -7.74416  -5.78056
 Alpha  occ. eigenvalues --   -5.77706  -5.77214  -5.70792  -5.70310  -5.69959
 Alpha  occ. eigenvalues --   -0.90044  -0.86644  -0.83037  -0.70929  -0.70539
 Alpha  occ. eigenvalues --   -0.67242  -0.64282  -0.61289  -0.60544  -0.57813
 Alpha  occ. eigenvalues --   -0.56303  -0.52835  -0.51426  -0.48539  -0.45254
 Alpha  occ. eigenvalues --   -0.43039  -0.41352  -0.39442  -0.37563  -0.36329
 Alpha  occ. eigenvalues --   -0.34981  -0.34328  -0.33336  -0.32617  -0.32274
 Alpha  occ. eigenvalues --   -0.31035  -0.29586  -0.29471  -0.28704  -0.27889
 Alpha  occ. eigenvalues --   -0.27281  -0.26942  -0.26611  -0.26429  -0.25224
 Alpha  occ. eigenvalues --   -0.23317  -0.22624  -0.21780  -0.20734  -0.20389
 Alpha  occ. eigenvalues --   -0.17057  -0.12172  -0.12019  -0.10631  -0.07999
 Alpha  occ. eigenvalues --   -0.06110   0.02405
 Alpha virt. eigenvalues --    0.05560   0.07121   0.07930   0.08667   0.09802
 Alpha virt. eigenvalues --    0.09887   0.10122   0.10486   0.11153   0.11970
 Alpha virt. eigenvalues --    0.12113   0.12805   0.13342   0.13664   0.14023

  Beta  occ. eigenvalues --  -88.73124 -88.65575 -18.93423 -14.23274 -14.22803
  Beta  occ. eigenvalues --  -10.12340 -10.11813 -10.11581 -10.11136 -10.09403
  Beta  occ. eigenvalues --  -10.08443 -10.08218 -10.07745 -10.05062 -10.03482
  Beta  occ. eigenvalues --  -10.03374 -10.02994  -7.81752  -7.74368  -5.78077
  Beta  occ. eigenvalues --   -5.77723  -5.77267  -5.70776  -5.70133  -5.69929
  Beta  occ. eigenvalues --   -0.89549  -0.86326  -0.82765  -0.70825  -0.70264
  Beta  occ. eigenvalues --   -0.66979  -0.63808  -0.60855  -0.60492  -0.57780
  Beta  occ. eigenvalues --   -0.56333  -0.52662  -0.51357  -0.48026  -0.44988
  Beta  occ. eigenvalues --   -0.42880  -0.41182  -0.39272  -0.37326  -0.36147
  Beta  occ. eigenvalues --   -0.34838  -0.34066  -0.33145  -0.32410  -0.32143
  Beta  occ. eigenvalues --   -0.30895  -0.29486  -0.29000  -0.28470  -0.27644
  Beta  occ. eigenvalues --   -0.27018  -0.26731  -0.26286  -0.25944  -0.25107
  Beta  occ. eigenvalues --   -0.23180  -0.22362  -0.20471  -0.20199  -0.19709
  Beta  occ. eigenvalues --   -0.16441  -0.11886  -0.11513  -0.09672  -0.07877
  Beta  occ. eigenvalues --   -0.05145
  Beta virt. eigenvalues --    0.05525   0.07071   0.07848   0.08507   0.08652
  Beta virt. eigenvalues --    0.09786   0.10037   0.10358   0.11039   0.11706
  Beta virt. eigenvalues --    0.11998   0.12257   0.12805   0.13343   0.13671

 Mulliken charges and spin densities:
               1          2
     1  C   -0.905260  -0.026958
     2  C    0.064697   0.348770
     3  C   -0.423491  -0.024200
     4  C    1.055402   0.139323
     5  O   -0.401737   0.130724
     6  N    0.244377  -0.055538
     7  C    0.157178   0.174525
     8  S   -0.714191   0.127223
     9  S   -0.517615  -0.047046
    10  C   -0.350145  -0.003972
    11  C   -0.387838  -0.133519
    12  C    0.124291   0.292931
    13  C   -0.195480  -0.033990
    14  C   -0.558884   0.012498
    15  C   -0.194724  -0.029414
    16  N    0.185145   0.039822
    17  C   -0.296564  -0.023184
    18  H    0.223215  -0.000384
    19  H    0.104427   0.022511
    20  H    0.101310   0.010553
    21  H    0.161995  -0.001837
    22  H    0.150899  -0.000149
    23  H    0.149651  -0.000208
    24  H    0.012871   0.004735
    25  H    0.136436   0.003623
    26  H    0.155057   0.009952
    27  H    0.148406  -0.001452
    28  H    0.144290  -0.000298
    29  H    0.098711   0.031408
    30  H    0.134467  -0.000733
    31  H    0.115876  -0.000644
    32  H    0.121939   0.031962
    33  H    0.155287   0.002966
 Sum of Mulliken charges =  -1.00000   1.00000

 Dipole moment (field-independent basis, Debye):
    X=             11.0656    Y=              0.4449    Z=              0.0176  Tot=             11.0746
 Quadrupole moment (field-independent basis, Debye-Ang):
   XX=           -165.8887   YY=           -146.7588   ZZ=           -125.9037
   XY=            -14.5524   XZ=             -0.6770   YZ=             -0.2196

 Summary of Natural Population Analysis:

                                       Natural Population
                Natural  -----------------------------------------------
    Atom  No    Charge         Core      Valence    Rydberg      Total
 -----------------------------------------------------------------------
      C    1   -0.30357      0.99960     2.29935    0.00462     3.30357
      C    2    0.11305      0.99935     1.87789    0.00971     2.88695
      C    3   -0.18141      0.99939     2.17166    0.01036     3.18141
      C    4    0.36078      0.99956     1.61891    0.02076     2.63922
      O    5   -0.29840      0.99987     3.29252    0.00601     4.29840
      N    6   -0.26921      0.99957     2.75754    0.01211     3.76921
      C    7    0.01775      0.99967     1.96479    0.01779     2.98225
      S    8   -0.10047      4.99950     3.08466    0.01631     8.10047
      S    9    0.14790      4.99941     2.83045    0.02224     7.85210
      C   10   -0.18022      0.99965     2.17283    0.00774     3.18022
      C   11   -0.20777      0.99946     2.19950    0.00881     3.20777
      C   12    0.19762      0.99955     1.79298    0.00985     2.80238
      C   13   -0.20945      0.99961     2.20328    0.00656     3.20945
      C   14   -0.19109      0.99965     2.18501    0.00643     3.19109
      C   15   -0.07412      0.99965     2.06661    0.00786     3.07412
      N   16   -0.22846      0.99963     2.71839    0.01044     3.72846
      C   17   -0.17784      0.99966     2.17132    0.00685     3.17784
      H   18    0.12617      0.00000     0.37249    0.00135     0.37383
      H   19    0.09743      0.00000     0.40129    0.00128     0.40257
      H   20    0.09464      0.00000     0.40414    0.00122     0.40536
      H   21    0.11083      0.00000     0.38796    0.00121     0.38917
      H   22    0.09738      0.00000     0.40134    0.00128     0.40262
      H   23    0.09739      0.00000     0.40134    0.00127     0.40261
      H   24    0.09835      0.00000     0.40012    0.00153     0.40165
      H   25    0.11097      0.00000     0.38793    0.00110     0.38903
      H   26    0.10531      0.00000     0.39348    0.00120     0.39469
      H   27    0.09571      0.00000     0.40328    0.00101     0.40429
      H   28    0.09537      0.00000     0.40352    0.00112     0.40463
      H   29    0.08098      0.00000     0.41752    0.00150     0.41902
      H   30    0.08900      0.00000     0.40963    0.00137     0.41100
      H   31    0.09188      0.00000     0.40729    0.00083     0.40812
      H   32    0.09321      0.00000     0.40484    0.00195     0.40679
      H   33    0.10028      0.00000     0.39817    0.00155     0.39972
 =======================================================================
   * Total *    0.00001     24.99277    45.80202    0.20519    70.99999

 Normal termination of Gaussian 16 at Fri Dec 11 12:52:19 2020.
