 Gaussian 16, Revision A.03,

 -----------------------------------------------------------
 # opt freq B3LYP/6-31G(d) empiricaldispersion=gd3bj scf=xqc
 -----------------------------------------------------------

 -------------------------------
 CID_123608128_JID_6351_neutraal
 -------------------------------
 Symbolic Z-matrix:
 Charge =  0 Multiplicity = 1

 SCF Done:  E(RB3LYP) =  -731.912911238     A.U. after   15 cycles
 SCF Done:  E(RB3LYP) =  -731.912324146     A.U. after   14 cycles
 SCF Done:  E(RB3LYP) =  -731.918698535     A.U. after   13 cycles
 SCF Done:  E(RB3LYP) =  -731.918458305     A.U. after   13 cycles
 SCF Done:  E(RB3LYP) =  -731.920927832     A.U. after   14 cycles
 SCF Done:  E(RB3LYP) =  -731.921643799     A.U. after   13 cycles
 SCF Done:  E(RB3LYP) =  -731.922447742     A.U. after   13 cycles
 SCF Done:  E(RB3LYP) =  -731.922320584     A.U. after   12 cycles
 SCF Done:  E(RB3LYP) =  -731.922698234     A.U. after   12 cycles
 SCF Done:  E(RB3LYP) =  -731.923024708     A.U. after   13 cycles
 SCF Done:  E(RB3LYP) =  -731.933623568     A.U. after   11 cycles
 SCF Done:  E(RB3LYP) =  -731.933628380     A.U. after    9 cycles
 SCF Done:  E(RB3LYP) =  -731.933630020     A.U. after    8 cycles
 SCF Done:  E(RB3LYP) =  -731.933630688     A.U. after    8 cycles
 SCF Done:  E(RB3LYP) =  -731.933630777     A.U. after    8 cycles
 Optimization completed.
    -- Stationary point found.
 Normal termination of Gaussian 16 at Thu Dec 10 22:46:20 2020.

 --------------------------------------------------------------------
 #N Geom=AllCheck Guess=TCheck SCRF=Check GenChk RB3LYP/6-31G(d) Freq
 --------------------------------------------------------------------

 Structure from the checkpoint file:  "JID_6351.chk"
 -------------------------------
 CID_123608128_JID_6351_neutraal
 -------------------------------
 Charge =  0 Multiplicity = 1

 SCF Done:  E(RB3LYP) =  -731.933630777     A.U. after    1 cycles

  Exact polarizability: 146.727 -17.097 141.058  14.533   6.023 123.590
 Approx polarizability: 197.053 -27.184 215.051  32.816  17.275 210.760

                      1                      2                      3
                      A                      A                      A
 Frequencies --     30.0509                46.2151                51.4143
 Red. masses --      4.0313                 3.0917                 3.7935
 Frc consts  --      0.0021                 0.0039                 0.0059
 IR Inten    --      0.2276                 0.1087                 0.0229

                      4                      5                      6
                      A                      A                      A
 Frequencies --     85.0474               104.7406               161.3768
 Red. masses --      5.2321                 5.3249                 5.0049
 Frc consts  --      0.0223                 0.0344                 0.0768
 IR Inten    --      0.5251                 0.7623                 2.8702

                      7                      8                      9
                      A                      A                      A
 Frequencies --    177.4901               201.2661               215.9765
 Red. masses --      3.6275                 4.9454                 1.1550
 Frc consts  --      0.0673                 0.1180                 0.0317
 IR Inten    --      4.6342                 5.3533                 0.3737

                     10                     11                     12
                      A                      A                      A
 Frequencies --    233.1577               248.4844               263.5623
 Red. masses --      2.6656                 1.5035                 1.0619
 Frc consts  --      0.0854                 0.0547                 0.0435
 IR Inten    --      5.6351                 0.6113                 0.1861

                     13                     14                     15
                      A                      A                      A
 Frequencies --    276.7344               292.3285               307.8504
 Red. masses --      2.6855                 2.4954                 2.9785
 Frc consts  --      0.1212                 0.1256                 0.1663
 IR Inten    --      4.3444                 4.0607                 2.2168

                     16                     17                     18
                      A                      A                      A
 Frequencies --    339.1854               359.6290               390.4476
 Red. masses --      3.8459                 2.7455                 2.4030
 Frc consts  --      0.2607                 0.2092                 0.2158
 IR Inten    --      1.4476                 0.8546                 1.9502

                     19                     20                     21
                      A                      A                      A
 Frequencies --    412.0149               445.5134               463.7090
 Red. masses --      2.8989                 3.1573                 1.9604
 Frc consts  --      0.2899                 0.3692                 0.2484
 IR Inten    --      3.2391                 1.1564                62.3144

                     22                     23                     24
                      A                      A                      A
 Frequencies --    482.1744               524.9011               550.7523
 Red. masses --      3.7757                 2.1333                 2.2901
 Frc consts  --      0.5172                 0.3463                 0.4093
 IR Inten    --      5.2980               106.1783               103.9319

                     25                     26                     27
                      A                      A                      A
 Frequencies --    591.6375               631.9937               651.6878
 Red. masses --      3.4508                 5.4642                 4.6233
 Frc consts  --      0.7117                 1.2859                 1.1569
 IR Inten    --      3.4093                 1.6381                 7.0389

                     28                     29                     30
                      A                      A                      A
 Frequencies --    685.7556               716.8783               749.2563
 Red. masses --      4.9233                 1.7073                 3.6723
 Frc consts  --      1.3641                 0.5169                 1.2146
 IR Inten    --      4.7074                33.6227                16.5434

                     31                     32                     33
                      A                      A                      A
 Frequencies --    768.4266               793.6366               863.7388
 Red. masses --      2.9401                 2.3390                 1.2521
 Frc consts  --      1.0229                 0.8680                 0.5504
 IR Inten    --      5.6849                 9.1029                 0.5114

                     34                     35                     36
                      A                      A                      A
 Frequencies --    890.4403               928.6448               951.4202
 Red. masses --      2.5256                 1.3852                 1.6220
 Frc consts  --      1.1798                 0.7038                 0.8651
 IR Inten    --      5.3872                 0.1981                 6.1759

                     37                     38                     39
                      A                      A                      A
 Frequencies --    954.6987               970.5585               973.3029
 Red. masses --      1.7466                 2.4796                 1.4526
 Frc consts  --      0.9380                 1.3762                 0.8107
 IR Inten    --      4.9201                11.8934                 6.6562

                     40                     41                     42
                      A                      A                      A
 Frequencies --    974.8944               979.2955               997.9058
 Red. masses --      1.2139                 2.2224                 1.2582
 Frc consts  --      0.6798                 1.2557                 0.7382
 IR Inten    --      0.8014                37.2529                 1.9003

                     43                     44                     45
                      A                      A                      A
 Frequencies --   1023.7696              1054.0025              1056.9825
 Red. masses --      6.1964                 1.6544                 1.9187
 Frc consts  --      3.8265                 1.0829                 1.2629
 IR Inten    --      2.6645                 3.8582                 4.9821

                     46                     47                     48
                      A                      A                      A
 Frequencies --   1060.5026              1077.4809              1089.1347
 Red. masses --      1.8019                 2.3763                 4.7281
 Frc consts  --      1.1940                 1.6255                 3.3044
 IR Inten    --      3.1769                10.5152               155.2690

                     49                     50                     51
                      A                      A                      A
 Frequencies --   1118.1911              1130.9353              1195.6079
 Red. masses --      1.8258                 2.6934                 1.0963
 Frc consts  --      1.3451                 2.0297                 0.9233
 IR Inten    --     56.9817               167.0612                 0.0262

                     52                     53                     54
                      A                      A                      A
 Frequencies --   1218.1837              1222.4070              1237.7486
 Red. masses --      1.8348                 1.2794                 2.0211
 Frc consts  --      1.6042                 1.1264                 1.8243
 IR Inten    --      8.8300                 0.7642                18.2590

                     55                     56                     57
                      A                      A                      A
 Frequencies --   1261.8366              1304.2556              1312.7249
 Red. masses --      2.6334                 2.6783                 2.1583
 Frc consts  --      2.4704                 2.6843                 2.1914
 IR Inten    --      1.7039                 1.3459                 6.9779

                     58                     59                     60
                      A                      A                      A
 Frequencies --   1323.0284              1348.1604              1368.1334
 Red. masses --      1.7279                 1.2129                 4.0472
 Frc consts  --      1.7820                 1.2988                 4.4633
 IR Inten    --     12.6202                 4.8987                 1.6092

                     61                     62                     63
                      A                      A                      A
 Frequencies --   1377.9142              1394.8176              1425.8265
 Red. masses --      1.3219                 1.2521                 1.2345
 Frc consts  --      1.4787                 1.4352                 1.4787
 IR Inten    --      0.1365                 3.6235                16.9649

                     64                     65                     66
                      A                      A                      A
 Frequencies --   1427.1556              1428.2266              1452.4759
 Red. masses --      1.2280                 1.2322                 1.2000
 Frc consts  --      1.4737                 1.4809                 1.4916
 IR Inten    --      8.8116                 3.1961                 5.7089

                     67                     68                     69
                      A                      A                      A
 Frequencies --   1468.4406              1500.9233              1511.9634
 Red. masses --      1.2421                 2.2213                 1.0495
 Frc consts  --      1.5781                 2.9484                 1.4135
 IR Inten    --     34.7378                 7.8711                 0.4405

                     70                     71                     72
                      A                      A                      A
 Frequencies --   1519.2289              1520.5331              1534.1938
 Red. masses --      1.0476                 1.0460                 1.0572
 Frc consts  --      1.4246                 1.4248                 1.4661
 IR Inten    --      1.9942                 0.4979                 5.5712

                     73                     74                     75
                      A                      A                      A
 Frequencies --   1540.4944              1548.5147              1552.5342
 Red. masses --      1.0533                 2.1494                 1.0746
 Frc consts  --      1.4727                 3.0367                 1.5261
 IR Inten    --      9.1569                 9.2249                21.8336

                     76                     77                     78
                      A                      A                      A
 Frequencies --   1645.7258              1665.8309              1834.9501
 Red. masses --      5.5048                 5.4537                10.6805
 Frc consts  --      8.7843                 8.9168                21.1880
 IR Inten    --      0.9065                 1.0217               139.2662

                     79                     80                     81
                      A                      A                      A
 Frequencies --   2938.0854              3022.3308              3043.6654
 Red. masses --      1.0854                 1.0816                 1.0425
 Frc consts  --      5.5204                 5.8209                 5.6902
 IR Inten    --    104.4277                19.1586                21.8858

                     82                     83                     84
                      A                      A                      A
 Frequencies --   3045.8967              3046.3575              3054.7591
 Red. masses --      1.0401                 1.0703                 1.0501
 Frc consts  --      5.6856                 5.8520                 5.7737
 IR Inten    --     16.1828                42.0854                58.8963

                     85                     86                     87
                      A                      A                      A
 Frequencies --   3103.6687              3106.7840              3113.7203
 Red. masses --      1.0966                 1.1011                 1.1004
 Frc consts  --      6.2240                 6.2616                 6.2859
 IR Inten    --     19.0073                11.3673                58.8213

                     88                     89                     90
                      A                      A                      A
 Frequencies --   3132.8972              3144.2111              3151.3805
 Red. masses --      1.1016                 1.1000                 1.0990
 Frc consts  --      6.3704                 6.4073                 6.4303
 IR Inten    --     26.8903                12.9624                22.7308

                     91                     92                     93
                      A                      A                      A
 Frequencies --   3181.7297              3189.9168              3199.7815
 Red. masses --      1.0859                 1.0881                 1.0926
 Frc consts  --      6.4767                 6.5233                 6.5910
 IR Inten    --      2.8379                 2.5981                26.7881

                     94                     95                     96
                      A                      A                      A
 Frequencies --   3211.4775              3238.5932              3707.6475
 Red. masses --      1.0971                 1.0920                 1.0650
 Frc consts  --      6.6669                 6.7482                 8.6254
 IR Inten    --     23.0956                 1.2673                37.3494

 - Thermochemistry -
 -------------------
 Temperature   298.150 Kelvin.  Pressure   1.00000 Atm.
 Atom     1 has atomic number  6 and mass  12.00000

 Molecular mass:   222.12559 amu.
 Principal axes and moments of inertia in atomic units:
                           1         2         3
     Eigenvalues --  2464.185744301.114925391.52389
           X            1.00000   0.00147   0.00185
           Y           -0.00147   1.00000  -0.00190
           Z           -0.00185   0.00190   1.00000
 This molecule is an asymmetric top.
 Rotational symmetry number  1.
 Warning -- assumption of classical behavior for rotation
           may cause significant error
 Rotational temperatures (Kelvin)      0.03515     0.02014     0.01606
 Rotational constants (GHZ):           0.73239     0.41960     0.33474
 Zero-point vibrational energy     760370.0 (Joules/Mol)
                                  181.73279 (Kcal/Mol)
 Warning -- explicit consideration of  25 degrees of freedom as
           vibrations may cause significant error
 Vibrational temperatures:     43.24    66.49    73.97   122.36   150.70
          (Kelvin)            232.19   255.37   289.58   310.74   335.46
                              357.51   379.21   398.16   420.60   442.93
                              488.01   517.43   561.77   592.80   640.99
                              667.17   693.74   755.22   792.41   851.23
                              909.30   937.63   986.65  1031.43  1078.01
                             1105.59  1141.87  1242.73  1281.14  1336.11
                             1368.88  1373.60  1396.42  1400.37  1402.66
                             1408.99  1435.76  1472.98  1516.47  1520.76
                             1525.83  1550.25  1567.02  1608.83  1627.16
                             1720.21  1752.69  1758.77  1780.84  1815.50
                             1876.53  1888.72  1903.54  1939.70  1968.44
                             1982.51  2006.83  2051.45  2053.36  2054.90
                             2089.79  2112.76  2159.49  2175.38  2185.83
                             2187.71  2207.36  2216.43  2227.97  2233.75
                             2367.83  2396.76  2640.08  4227.25  4348.46
                             4379.16  4382.37  4383.03  4395.12  4465.49
                             4469.97  4479.95  4507.54  4523.82  4534.13
                             4577.80  4589.58  4603.77  4620.60  4659.61
                             5334.48

 Zero-point correction=                           0.289610 (Hartree/Particle)
 Thermal correction to Energy=                    0.305867
 Thermal correction to Enthalpy=                  0.306812
 Thermal correction to Gibbs Free Energy=         0.245862
 Sum of electronic and zero-point Energies=           -731.644021
 Sum of electronic and thermal Energies=              -731.627763
 Sum of electronic and thermal Enthalpies=            -731.626819
 Sum of electronic and thermal Free Energies=         -731.687768

                     E (Thermal)             CV                S
                      KCal/Mol        Cal/Mol-Kelvin    Cal/Mol-Kelvin
 Total                  191.935             62.444            128.278
 Electronic               0.000              0.000              0.000
 Translational            0.889              2.981             42.097
 Rotational               0.889              2.981             32.413
 Vibrational            190.157             56.482             53.768
 Vibration     1          0.594              1.984              5.826
 Vibration     2          0.595              1.979              4.973
 Vibration     3          0.596              1.977              4.762
 Vibration     4          0.601              1.960              3.771
 Vibration     5          0.605              1.945              3.364
 Vibration     6          0.622              1.890              2.534
 Vibration     7          0.628              1.870              2.355
 Vibration     8          0.638              1.838              2.121
 Vibration     9          0.645              1.817              1.993
 Vibration    10          0.654              1.790              1.855
 Vibration    11          0.662              1.765              1.741
 Vibration    12          0.670              1.740              1.638
 Vibration    13          0.678              1.716              1.554
 Vibration    14          0.688              1.688              1.460
 Vibration    15          0.698              1.659              1.374
 Vibration    16          0.719              1.597              1.216
 Vibration    17          0.734              1.555              1.124
 Vibration    18          0.758              1.491              0.998
 Vibration    19          0.776              1.444              0.920
 Vibration    20          0.805              1.371              0.809
 Vibration    21          0.821              1.331              0.755
 Vibration    22          0.838              1.290              0.704
 Vibration    23          0.880              1.195              0.599
 Vibration    24          0.906              1.138              0.543
 Vibration    25          0.949              1.050              0.464

                           ! Non-Optimized Parameters !
 Normal termination of Gaussian 16 at Thu Dec 10 22:58:46 2020.

 ----------------------------------------------------------------------
 # B3LYP/6-311++G(d,p) empiricaldispersion=gd3bj scf=xqc pop=npa geom=c
 heck
 ----------------------------------------------------------------------

 ---------------------------------------
 CID_123608128_JID_6351_Energie_neutraal
 ---------------------------------------
 Structure from the checkpoint file:  "JID_6351.chk"
 Charge =  0 Multiplicity = 1

 SCF Done:  E(RB3LYP) =  -732.145926630     A.U. after   16 cycles
 Normal termination of Gaussian 16 at Thu Dec 10 23:05:01 2020.

 ----------------------------------------------------------------------
 # B3LYP/6-311++G(d,p) empiricaldispersion=gd3bj scf=xqc pop=npa geom=c
 heck
 ----------------------------------------------------------------------

 -------------------------------------
 CID_123608128_JID_6351_Energie_kation
 -------------------------------------
 Structure from the checkpoint file:  "JID_6351.chk"
 Charge =  1 Multiplicity = 2

 SCF Done:  E(UB3LYP) =  -731.828453983     A.U. after   29 cycles
 Normal termination of Gaussian 16 at Thu Dec 10 23:20:48 2020.
 Gaussian 16:  ES64L-G16RevA.03 25-Dec-2016

 ----------------------------------------------------------------------
 # B3LYP/6-311++G(d,p) empiricaldispersion=gd3bj scf=xqc pop=npa geom=c
 heck
 ----------------------------------------------------------------------

 ------------------------------------
 CID_123608128_JID_6351_Energie_anion
 ------------------------------------
 Structure from the checkpoint file:  "JID_6351.chk"
 Charge = -1 Multiplicity = 2

                         Standard orientation:
 ---------------------------------------------------------------------
 Center     Atomic      Atomic             Coordinates (Angstroms)
 Number     Number       Type             X           Y           Z
 ---------------------------------------------------------------------
      1          6           0       -1.530652   -1.861734    0.254263
      2          6           0       -2.454639   -0.640788    0.119216
      3          6           0       -3.242729   -0.732245   -1.197695
      4          6           0       -3.431196   -0.585001    1.305537
      5          6           0       -1.634220    0.667229    0.113478
      6          8           0       -0.885567    0.878858    1.282311
      7          8           0       -0.821228    0.687893   -1.069231
      8          6           0        0.500665    1.220430   -0.962821
      9          6           0        0.514094    2.584253   -0.281295
     10          8           0        1.500294    3.117129    0.172900
     11          6           0        1.492346    0.184791   -0.447585
     12          6           0        2.114883    0.257816    0.803871
     13          6           0        2.939456   -0.781131    1.241337
     14          6           0        3.154536   -1.899801    0.436955
     15          6           0        2.545431   -1.974281   -0.817111
     16          6           0        1.722984   -0.937687   -1.252760
     17          1           0       -2.122772   -2.782726    0.224740
     18          1           0       -0.987048   -1.866869    1.208002
     19          1           0       -0.797321   -1.896793   -0.554991
     20          1           0       -3.883638   -1.621172   -1.193522
     21          1           0       -3.888029    0.144599   -1.332266
     22          1           0       -2.569087   -0.792199   -2.056131
     23          1           0       -2.897107   -0.494444    2.256067
     24          1           0       -4.110430    0.271704    1.219199
     25          1           0       -4.041695   -1.494155    1.336648
     26          1           0       -2.321664    1.521630    0.072455
     27          1           0       -0.304362    0.110626    1.416736
     28          1           0        0.760270    1.436886   -2.009897
     29          1           0       -0.466736    3.103847   -0.312289
     30          1           0        1.973352    1.132306    1.427357
     31          1           0        3.418079   -0.709891    2.214021
     32          1           0        3.796711   -2.705445    0.781207
     33          1           0        2.710507   -2.838468   -1.454381
     34          1           0        1.237217   -1.001594   -2.223123
 ---------------------------------------------------------------------

 SCF Done:  E(UB3LYP) =  -732.137141059     A.U. after   33 cycles
 SCF Done:  E(UB3LYP) =  -732.137141060     a.u. after    1 cycles

 The electronic state is 2-A.
 Alpha  occ. eigenvalues --  -19.03735 -19.02812 -18.99721 -10.17262 -10.13189
 Alpha  occ. eigenvalues --  -10.13117 -10.08939 -10.08294 -10.07642 -10.07549
 Alpha  occ. eigenvalues --  -10.07361 -10.07239 -10.07185 -10.06349 -10.06089
 Alpha  occ. eigenvalues --  -10.05825  -0.97580  -0.93143  -0.90872  -0.75974
 Alpha  occ. eigenvalues --   -0.72599  -0.67475  -0.64774  -0.61543  -0.59348
 Alpha  occ. eigenvalues --   -0.58955  -0.56163  -0.51446  -0.50586  -0.47098
 Alpha  occ. eigenvalues --   -0.46402  -0.43147  -0.40388  -0.39525  -0.38114
 Alpha  occ. eigenvalues --   -0.36484  -0.36139  -0.34503  -0.34269  -0.33366
 Alpha  occ. eigenvalues --   -0.32760  -0.32308  -0.31536  -0.30125  -0.29216
 Alpha  occ. eigenvalues --   -0.28526  -0.27376  -0.27042  -0.26838  -0.26164
 Alpha  occ. eigenvalues --   -0.25847  -0.24450  -0.23714  -0.23611  -0.22065
 Alpha  occ. eigenvalues --   -0.20989  -0.17379  -0.15785  -0.15481  -0.13415
 Alpha  occ. eigenvalues --    0.04361
 Alpha virt. eigenvalues --    0.06401   0.06631   0.07280   0.07897   0.08283
 Alpha virt. eigenvalues --    0.08401   0.08858   0.08977   0.09929   0.10048
 Alpha virt. eigenvalues --    0.10577   0.11416   0.11808   0.12488   0.13125

  Beta  occ. eigenvalues --  -19.03703 -19.02810 -18.99518 -10.17255 -10.13139
  Beta  occ. eigenvalues --  -10.12950 -10.08939 -10.08285 -10.07636 -10.07517
  Beta  occ. eigenvalues --  -10.07317 -10.07212 -10.07169 -10.06328 -10.06070
  Beta  occ. eigenvalues --  -10.05800  -0.97545  -0.92754  -0.90832  -0.75918
  Beta  occ. eigenvalues --   -0.72577  -0.67407  -0.64689  -0.61437  -0.59304
  Beta  occ. eigenvalues --   -0.58908  -0.56006  -0.51275  -0.50470  -0.47030
  Beta  occ. eigenvalues --   -0.46196  -0.43091  -0.40276  -0.39455  -0.38053
  Beta  occ. eigenvalues --   -0.36389  -0.36058  -0.34448  -0.34210  -0.33138
  Beta  occ. eigenvalues --   -0.32639  -0.32241  -0.31459  -0.30066  -0.29181
  Beta  occ. eigenvalues --   -0.28494  -0.27186  -0.26968  -0.26619  -0.25989
  Beta  occ. eigenvalues --   -0.25327  -0.24268  -0.23684  -0.23586  -0.22029
  Beta  occ. eigenvalues --   -0.20912  -0.17302  -0.15621  -0.15365  -0.13282
  Beta virt. eigenvalues --    0.06505   0.07164   0.07470   0.08092   0.08331
  Beta virt. eigenvalues --    0.08528   0.09121   0.09291   0.09492   0.10236
  Beta virt. eigenvalues --    0.10373   0.10840   0.11652   0.12002   0.12639

 Mulliken charges and spin densities:
               1          2
     1  C    0.572647  -1.104411
     2  C   -2.205277   2.571196
     3  C    0.068835  -0.580448
     4  C    0.134326  -0.583606
     5  C    1.430246  -1.959520
     6  O   -0.079635   0.010159
     7  O   -0.004524   0.021812
     8  C    0.551179  -1.197012
     9  C   -0.084702   0.050986
    10  O   -0.258953   0.065534
    11  C    0.150418   0.596620
    12  C   -1.024530   0.739842
    13  C   -0.554666   0.085274
    14  C    0.940860  -1.313639
    15  C    0.089007  -0.335133
    16  C    0.230483  -0.064385
    17  H   -0.118074   0.295887
    18  H   -0.098178   0.229765
    19  H    0.107754   0.061109
    20  H   -0.184176   0.334431
    21  H    0.005113   0.125043
    22  H    0.064384   0.105632
    23  H   -0.018392   0.174397
    24  H   -0.028685   0.150717
    25  H   -0.165638   0.321580
    26  H    0.241639  -0.030328
    27  H    0.140223   0.086216
    28  H   -0.013265   0.254877
    29  H    0.095430  -0.005437
    30  H    0.249762  -0.030714
    31  H   -0.103627   0.272371
    32  H   -0.276556   0.430445
    33  H   -0.616763   0.799714
    34  H   -0.236665   0.421028
 Sum of Mulliken charges =  -1.00000   1.00000

 Dipole moment (field-independent basis, Debye):
    X=             -1.8073    Y=              2.4272    Z=              0.7241  Tot=              3.1116
 Quadrupole moment (field-independent basis, Debye-Ang):
   XX=           -156.7010   YY=           -150.4006   ZZ=           -127.7319
   XY=             -4.7522   XZ=              3.2593   YZ=             -5.3222

 Summary of Natural Population Analysis:

                                       Natural Population
                Natural  -----------------------------------------------
    Atom  No    Charge         Core      Valence    Rydberg      Total
 -----------------------------------------------------------------------
      C    1   -0.29175      0.99962     2.28394    0.00819     3.29175
      C    2   -0.06528      0.99956     2.05399    0.01174     3.06528
      C    3   -0.28434      0.99962     2.27720    0.00751     3.28434
      C    4   -0.28504      0.99963     2.27790    0.00752     3.28504
      C    5    0.22899      0.99949     1.75253    0.01899     2.77101
      O    6   -0.36641      0.99989     3.36042    0.00610     4.36641
      O    7   -0.31338      0.99988     3.30468    0.00882     4.31338
      C    8    0.01131      0.99947     1.97335    0.01586     2.98869
      C    9    0.25033      0.99972     1.72957    0.02037     2.74967
      O   10   -0.26693      0.99988     3.26073    0.00632     4.26693
      C   11   -0.03166      0.99948     2.02019    0.01199     3.03166
      C   12   -0.10481      0.99951     2.09546    0.00984     3.10481
      C   13   -0.09739      0.99956     2.08764    0.01020     3.09739
      C   14   -0.10414      0.99956     2.09430    0.01028     3.10414
      C   15   -0.09371      0.99956     2.08385    0.01030     3.09371
      C   16   -0.09192      0.99951     2.08189    0.01052     3.09192
      H   17    0.10289      0.00000     0.39608    0.00103     0.39711
      H   18    0.09611      0.00000     0.40250    0.00139     0.40389
      H   19    0.11055      0.00000     0.38764    0.00181     0.38945
      H   20    0.09856      0.00000     0.40056    0.00088     0.40144
      H   21    0.09667      0.00000     0.40250    0.00083     0.40333
      H   22    0.10953      0.00000     0.38922    0.00125     0.39047
      H   23    0.10524      0.00000     0.39383    0.00094     0.39476
      H   24    0.09762      0.00000     0.40154    0.00084     0.40238
      H   25    0.10008      0.00000     0.39900    0.00092     0.39992
      H   26    0.07618      0.00000     0.42250    0.00132     0.42382
      H   27    0.23866      0.00000     0.25803    0.00331     0.26134
      H   28    0.11123      0.00000     0.38719    0.00158     0.38877
      H   29    0.04435      0.00000     0.45335    0.00230     0.45565
      H   30    0.11399      0.00000     0.38445    0.00156     0.38601
      H   31    0.09850      0.00000     0.40070    0.00080     0.40150
      H   32    0.10042      0.00000     0.39850    0.00108     0.39958
      H   33    0.10188      0.00000     0.39656    0.00155     0.39812
      H   34    0.10369      0.00000     0.39441    0.00190     0.39631
 =======================================================================
   * Total *    0.00000     15.99394    43.80624    0.19982    60.00000

 Normal termination of Gaussian 16 at Thu Dec 10 23:39:22 2020.
