 Gaussian 16, Revision A.03,

 -----------------------------------------------------------
 # opt freq B3LYP/6-31G(d) empiricaldispersion=gd3bj scf=xqc
 -----------------------------------------------------------

 ------------------------------
 CID_50923343_JID_4136_neutraal
 ------------------------------
 Symbolic Z-matrix:
 Charge =  0 Multiplicity = 1

 SCF Done:  E(RB3LYP) =  -653.245850254     A.U. after   14 cycles
 SCF Done:  E(RB3LYP) =  -653.251503235     A.U. after   12 cycles
 SCF Done:  E(RB3LYP) =  -653.252869641     A.U. after   11 cycles
 SCF Done:  E(RB3LYP) =  -653.254581210     A.U. after   13 cycles
 SCF Done:  E(RB3LYP) =  -653.255360752     A.U. after   11 cycles
 SCF Done:  E(RB3LYP) =  -653.255899822     A.U. after   12 cycles
 SCF Done:  E(RB3LYP) =  -653.255969866     A.U. after   12 cycles
 SCF Done:  E(RB3LYP) =  -653.256432074     A.U. after   11 cycles
 SCF Done:  E(RB3LYP) =  -653.257055344     A.U. after   14 cycles
 SCF Done:  E(RB3LYP) =  -653.257145870     A.U. after   10 cycles
 SCF Done:  E(RB3LYP) =  -653.257160123     A.U. after   10 cycles
 SCF Done:  E(RB3LYP) =  -653.257159925     A.U. after   10 cycles
 SCF Done:  E(RB3LYP) =  -653.257161800     A.U. after   10 cycles
 SCF Done:  E(RB3LYP) =  -653.257161944     A.U. after    8 cycles
 SCF Done:  E(RB3LYP) =  -653.257161959     A.U. after    7 cycles
 Optimization completed.
    -- Stationary point found.
 Normal termination of Gaussian 16 at Thu Dec 10 09:19:50 2020.

 --------------------------------------------------------------------
 #N Geom=AllCheck Guess=TCheck SCRF=Check GenChk RB3LYP/6-31G(d) Freq
 --------------------------------------------------------------------

 Structure from the checkpoint file:  "JID_4136.chk"
 ------------------------------
 CID_50923343_JID_4136_neutraal
 ------------------------------
 Charge =  0 Multiplicity = 1

 SCF Done:  E(RB3LYP) =  -653.257161959     A.U. after    1 cycles

  Exact polarizability: 137.074   1.053 140.390 -12.998  -2.144  77.812
 Approx polarizability: 198.513   2.379 217.737 -32.418  -5.178 120.827

                      1                      2                      3
                      A                      A                      A
 Frequencies --     30.5907                47.0231                75.7846
 Red. masses --      5.2732                 4.0771                 4.3661
 Frc consts  --      0.0029                 0.0053                 0.0148
 IR Inten    --      0.8391                 2.5704                 0.7785

                      4                      5                      6
                      A                      A                      A
 Frequencies --     94.3131               116.0880               175.7225
 Red. masses --      3.6277                 3.8551                 4.1522
 Frc consts  --      0.0190                 0.0306                 0.0755
 IR Inten    --      3.8339                 4.5376                 2.8452

                      7                      8                      9
                      A                      A                      A
 Frequencies --    191.9158               244.1933               254.5471
 Red. masses --      3.3789                 3.0354                 1.4295
 Frc consts  --      0.0733                 0.1066                 0.0546
 IR Inten    --      4.3912                 0.3647                 1.4254

                     10                     11                     12
                      A                      A                      A
 Frequencies --    299.9713               307.2489               337.7555
 Red. masses --      2.6786                 2.7902                 4.8278
 Frc consts  --      0.1420                 0.1552                 0.3245
 IR Inten    --      1.4182                 1.1324                 2.0054

                     13                     14                     15
                      A                      A                      A
 Frequencies --    388.2713               391.7042               465.0053
 Red. masses --      2.0059                 2.2503                 1.4972
 Frc consts  --      0.1782                 0.2034                 0.1907
 IR Inten    --     10.0993                20.3606               104.1780

                     16                     17                     18
                      A                      A                      A
 Frequencies --    476.7405               500.9980               544.5746
 Red. masses --      2.3753                 3.6880                 4.1921
 Frc consts  --      0.3181                 0.5454                 0.7325
 IR Inten    --     13.0030                 2.0640                12.7030

                     19                     20                     21
                      A                      A                      A
 Frequencies --    551.6937               589.2169               627.4798
 Red. masses --      3.9041                 4.9525                 5.1891
 Frc consts  --      0.7001                 1.0130                 1.2038
 IR Inten    --      6.1326                 8.4876                14.1147

                     22                     23                     24
                      A                      A                      A
 Frequencies --    721.9010               765.6607               770.9284
 Red. masses --      3.8759                 1.4141                 3.6563
 Frc consts  --      1.1901                 0.4884                 1.2803
 IR Inten    --      3.6971                50.8529                 7.6808

                     25                     26                     27
                      A                      A                      A
 Frequencies --    788.5697               834.1717               860.2971
 Red. masses --      3.7546                 4.3559                 1.5681
 Frc consts  --      1.3756                 1.7858                 0.6838
 IR Inten    --      2.6198                24.0638                 2.5542

                     28                     29                     30
                      A                      A                      A
 Frequencies --    871.4900               908.7986               922.8114
 Red. masses --      3.3305                 2.7022                 1.3107
 Frc consts  --      1.4904                 1.3149                 0.6576
 IR Inten    --      3.2943                15.7213                 1.5696

                     31                     32                     33
                      A                      A                      A
 Frequencies --    937.0173               969.4265              1007.4563
 Red. masses --      1.3518                 1.2406                 1.7294
 Frc consts  --      0.6993                 0.6869                 1.0342
 IR Inten    --      2.6569                 0.2131                24.8403

                     34                     35                     36
                      A                      A                      A
 Frequencies --   1016.1179              1074.0159              1081.9053
 Red. masses --      2.9581                 4.4560                 5.2071
 Frc consts  --      1.7995                 3.0284                 3.5911
 IR Inten    --     34.0762                28.8737                67.3867

                     37                     38                     39
                      A                      A                      A
 Frequencies --   1087.2351              1131.0977              1142.6808
 Red. masses --      2.5615                 1.2624                 1.9849
 Frc consts  --      1.7840                 0.9516                 1.5270
 IR Inten    --     14.1054                 4.0071                42.1073

                     40                     41                     42
                      A                      A                      A
 Frequencies --   1162.9944              1187.6482              1189.8681
 Red. masses --      1.3675                 1.2735                 1.3228
 Frc consts  --      1.0898                 1.0584                 1.1034
 IR Inten    --      1.1692                 0.7197                 3.1640

                     43                     44                     45
                      A                      A                      A
 Frequencies --   1198.0321              1211.3355              1224.1611
 Red. masses --      1.0974                 1.7734                 1.2433
 Frc consts  --      0.9280                 1.5332                 1.0978
 IR Inten    --      3.1886                 3.0811                12.2761

                     46                     47                     48
                      A                      A                      A
 Frequencies --   1228.4087              1300.5256              1311.3959
 Red. masses --      1.7047                 4.0415                 2.0470
 Frc consts  --      1.5156                 4.0274                 2.0741
 IR Inten    --      5.9509               165.3127                25.8309

                     49                     50                     51
                      A                      A                      A
 Frequencies --   1333.5191              1354.7641              1370.2907
 Red. masses --      1.6205                 1.8354                 2.0095
 Frc consts  --      1.6979                 1.9848                 2.2231
 IR Inten    --     33.5214                 6.7020                14.3771

                     52                     53                     54
                      A                      A                      A
 Frequencies --   1381.5607              1434.2451              1459.6494
 Red. masses --      2.0814                 1.3958                 1.6603
 Frc consts  --      2.3407                 1.6917                 2.0842
 IR Inten    --     11.3635                28.9821                44.0243

                     55                     56                     57
                      A                      A                      A
 Frequencies --   1491.2900              1508.7500              1513.4977
 Red. masses --      1.4023                 1.5068                 1.2505
 Frc consts  --      1.8375                 2.0209                 1.6877
 IR Inten    --     23.5118                 1.9144                 8.1224

                     58                     59                     60
                      A                      A                      A
 Frequencies --   1521.6667              1523.5670              1532.1872
 Red. masses --      1.0523                 1.1249                 1.1313
 Frc consts  --      1.4356                 1.5385                 1.5648
 IR Inten    --      5.9753                 6.9538                60.2519

                     61                     62                     63
                      A                      A                      A
 Frequencies --   1551.1874              1557.8860              1648.3109
 Red. masses --      1.8787                 1.4593                 6.3134
 Frc consts  --      2.6634                 2.0868                10.1062
 IR Inten    --     35.2428                15.3883                 6.5179

                     64                     65                     66
                      A                      A                      A
 Frequencies --   1663.1318              3010.8215              3026.2294
 Red. masses --      5.8577                 1.0730                 1.0350
 Frc consts  --      9.5462                 5.7307                 5.5848
 IR Inten    --     30.7453                64.0712                56.2696

                     67                     68                     69
                      A                      A                      A
 Frequencies --   3076.1933              3085.0564              3105.8649
 Red. masses --      1.0618                 1.1066                 1.0506
 Frc consts  --      5.9202                 6.2056                 5.9712
 IR Inten    --     15.9904                42.4501                22.9705

                     70                     71                     72
                      A                      A                      A
 Frequencies --   3130.2101              3144.7919              3167.4161
 Red. masses --      1.1021                 1.0912                 1.0995
 Frc consts  --      6.3623                 6.3580                 6.4990
 IR Inten    --      4.7871                21.6476                16.7420

                     73                     74                     75
                      A                      A                      A
 Frequencies --   3177.1334              3187.2592              3190.8943
 Red. masses --      1.0881                 1.1190                 1.0891
 Frc consts  --      6.4711                 6.6975                 6.5338
 IR Inten    --     10.8036                28.6511                12.4151

                     76                     77                     78
                      A                      A                      A
 Frequencies --   3209.8376              3228.2404              3718.1461
 Red. masses --      1.0951                 1.0921                 1.0656
 Frc consts  --      6.6477                 6.7057                 8.6799
 IR Inten    --     28.6296                11.0668                17.7800

 - Thermochemistry -
 -------------------
 Temperature   298.150 Kelvin.  Pressure   1.00000 Atm.
 Atom     1 has atomic number  6 and mass  12.00000

 Molecular mass:   194.09429 amu.
 Principal axes and moments of inertia in atomic units:
                           1         2         3
     Eigenvalues --  1802.489343262.252304650.88850
           X            0.99981  -0.01953   0.00040
           Y            0.01953   0.99981   0.00104
           Z           -0.00042  -0.00103   1.00000
 This molecule is an asymmetric top.
 Rotational symmetry number  1.
 Warning -- assumption of classical behavior for rotation
           may cause significant error
 Rotational temperatures (Kelvin)      0.04805     0.02655     0.01862
 Rotational constants (GHZ):           1.00125     0.55322     0.38804
 Zero-point vibrational energy     615600.6 (Joules/Mol)
                                  147.13208 (Kcal/Mol)
 Warning -- explicit consideration of  20 degrees of freedom as
           vibrations may cause significant error
 Vibrational temperatures:     44.01    67.66   109.04   135.70   167.02
          (Kelvin)            252.83   276.12   351.34   366.24   431.59
                              442.06   485.95   558.64   563.57   669.04
                              685.92   720.82   783.52   793.76   847.75
                              902.80  1038.65  1101.61  1109.19  1134.58
                             1200.19  1237.78  1253.88  1307.56  1327.72
                             1348.16  1394.79  1449.50  1461.97  1545.27
                             1556.62  1564.29  1627.40  1644.06  1673.29
                             1708.76  1711.95  1723.70  1742.84  1761.29
                             1767.41  1871.17  1886.81  1918.64  1949.20
                             1971.54  1987.76  2063.56  2100.11  2145.63
                             2170.75  2177.59  2189.34  2192.07  2204.48
                             2231.81  2241.45  2371.55  2392.88  4331.90
                             4354.07  4425.96  4438.71  4468.65  4503.67
                             4524.65  4557.21  4571.19  4585.76  4590.99
                             4618.24  4644.72  5349.58

 Zero-point correction=                           0.234470 (Hartree/Particle)
 Thermal correction to Energy=                    0.247820
 Thermal correction to Enthalpy=                  0.248764
 Thermal correction to Gibbs Free Energy=         0.193648
 Sum of electronic and zero-point Energies=           -653.022692
 Sum of electronic and thermal Energies=              -653.009342
 Sum of electronic and thermal Enthalpies=            -653.008398
 Sum of electronic and thermal Free Energies=         -653.063514

                     E (Thermal)             CV                S
                      KCal/Mol        Cal/Mol-Kelvin    Cal/Mol-Kelvin
 Total                  155.509             50.668            116.002
 Electronic               0.000              0.000              0.000
 Translational            0.889              2.981             41.695
 Rotational               0.889              2.981             31.681
 Vibrational            153.732             44.706             42.627
 Vibration     1          0.594              1.984              5.791
 Vibration     2          0.595              1.979              4.939
 Vibration     3          0.599              1.965              3.997
 Vibration     4          0.603              1.953              3.569
 Vibration     5          0.608              1.936              3.164
 Vibration     6          0.628              1.872              2.373
 Vibration     7          0.634              1.851              2.209
 Vibration     8          0.660              1.772              1.772
 Vibration     9          0.665              1.755              1.699
 Vibration    10          0.693              1.674              1.417
 Vibration    11          0.697              1.660              1.377
 Vibration    12          0.718              1.600              1.223
 Vibration    13          0.756              1.495              1.007
 Vibration    14          0.759              1.488              0.994
 Vibration    15          0.822              1.328              0.752
 Vibration    16          0.833              1.302              0.719
 Vibration    17          0.856              1.248              0.656
 Vibration    18          0.900              1.152              0.556
 Vibration    19          0.907              1.136              0.541
 Vibration    20          0.946              1.055              0.469

 Optimization completed.
    -- Stationary point found.
 Normal termination of Gaussian 16 at Thu Dec 10 09:27:58 2020.

 ----------------------------------------------------------------------
 # B3LYP/6-311++G(d,p) empiricaldispersion=gd3bj scf=xqc pop=npa geom=c
 heck
 ----------------------------------------------------------------------

 --------------------------------------
 CID_50923343_JID_4136_Energie_neutraal
 --------------------------------------
 Structure from the checkpoint file:  "JID_4136.chk"
 Charge =  0 Multiplicity = 1

 SCF Done:  E(RB3LYP) =  -653.449289937     A.U. after   15 cycles
 Normal termination of Gaussian 16 at Thu Dec 10 09:30:55 2020.

 ----------------------------------------------------------------------
 # B3LYP/6-311++G(d,p) empiricaldispersion=gd3bj scf=xqc pop=npa geom=c
 heck
 ----------------------------------------------------------------------

 ------------------------------------
 CID_50923343_JID_4136_Energie_kation
 ------------------------------------
 Structure from the checkpoint file:  "JID_4136.chk"
 Charge =  1 Multiplicity = 2

 SCF Done:  E(UB3LYP) =  -653.152149512     A.U. after   24 cycles
 Normal termination of Gaussian 16 at Thu Dec 10 09:37:23 2020.
 Gaussian 16:  ES64L-G16RevA.03 25-Dec-2016

 ----------------------------------------------------------------------
 # B3LYP/6-311++G(d,p) empiricaldispersion=gd3bj scf=xqc pop=npa geom=c
 heck
 ----------------------------------------------------------------------

 -----------------------------------
 CID_50923343_JID_4136_Energie_anion
 -----------------------------------
 Structure from the checkpoint file:  "JID_4136.chk"
 Charge = -1 Multiplicity = 2

                         Standard orientation:
 ---------------------------------------------------------------------
 Center     Atomic      Atomic             Coordinates (Angstroms)
 Number     Number       Type             X           Y           Z
 ---------------------------------------------------------------------
      1          6           0       -1.502363    2.868913   -0.069479
      2          8           0       -0.792710    1.690958   -0.409259
      3          6           0       -1.386839    0.480329   -0.193585
      4          6           0       -2.679053    0.325399    0.317308
      5          6           0       -3.199671   -0.956416    0.509357
      6          6           0       -2.442043   -2.079697    0.191176
      7          6           0       -1.153962   -1.910490   -0.321437
      8          6           0       -0.602687   -0.644788   -0.520724
      9          6           0        0.804683   -0.482500   -1.050022
     10          6           0        1.849048   -0.466302    0.058121
     11          6           0        2.391314   -1.728936    0.572704
     12          8           0        3.160916   -0.935231   -0.344171
     13          6           0        1.943183    0.783935    0.909158
     14          8           0        2.406808    1.883436    0.139725
     15          1           0       -1.759227    2.888803    0.997741
     16          1           0       -2.420722    2.970448   -0.662535
     17          1           0       -0.826693    3.694797   -0.295292
     18          1           0       -3.281622    1.191275    0.564975
     19          1           0       -4.204863   -1.067025    0.906399
     20          1           0       -2.846869   -3.076921    0.334052
     21          1           0       -0.558399   -2.782525   -0.581398
     22          1           0        1.046153   -1.312749   -1.721329
     23          1           0        0.896192    0.448137   -1.616350
     24          1           0        2.784436   -1.782905    1.588041
     25          1           0        2.021606   -2.672360    0.170979
     26          1           0        0.960624    1.066866    1.291274
     27          1           0        2.608438    0.587730    1.763966
     28          1           0        3.251178    1.596430   -0.246348
 ---------------------------------------------------------------------

 SCF Done:  E(UB3LYP) =  -653.434294554     A.U. after   33 cycles
 SCF Done:  E(UB3LYP) =  -653.434294554     a.u. after    1 cycles

 The electronic state is 2-A.
 Alpha  occ. eigenvalues --  -19.05691 -19.04907 -19.03591 -10.14393 -10.13750
 Alpha  occ. eigenvalues --  -10.13395 -10.12737 -10.12323 -10.08515 -10.08320
 Alpha  occ. eigenvalues --  -10.07731 -10.07693 -10.07426 -10.07014  -0.98988
 Alpha  occ. eigenvalues --   -0.97457  -0.93553  -0.76201  -0.69735  -0.65621
 Alpha  occ. eigenvalues --   -0.64326  -0.60842  -0.58896  -0.57555  -0.51297
 Alpha  occ. eigenvalues --   -0.49805  -0.47986  -0.43997  -0.42820  -0.40466
 Alpha  occ. eigenvalues --   -0.39072  -0.38433  -0.38011  -0.37233  -0.35702
 Alpha  occ. eigenvalues --   -0.34637  -0.32776  -0.32113  -0.31592  -0.29991
 Alpha  occ. eigenvalues --   -0.29015  -0.27855  -0.26982  -0.25740  -0.25365
 Alpha  occ. eigenvalues --   -0.23477  -0.22671  -0.21628  -0.20321  -0.18506
 Alpha  occ. eigenvalues --   -0.15419  -0.12790   0.04409
 Alpha virt. eigenvalues --    0.06160   0.06801   0.07528   0.08098   0.08279
 Alpha virt. eigenvalues --    0.09131   0.09570   0.09707   0.10199   0.10548
 Alpha virt. eigenvalues --    0.11361   0.11699   0.12180   0.13660   0.13906

  Beta  occ. eigenvalues --  -19.05683 -19.04905 -19.03587 -10.14393 -10.13749
  Beta  occ. eigenvalues --  -10.13367 -10.12725 -10.12276 -10.08516 -10.08314
  Beta  occ. eigenvalues --  -10.07715 -10.07677 -10.07407 -10.07000  -0.98982
  Beta  occ. eigenvalues --   -0.97437  -0.93547  -0.76181  -0.69716  -0.65588
  Beta  occ. eigenvalues --   -0.64302  -0.60799  -0.58856  -0.57506  -0.51261
  Beta  occ. eigenvalues --   -0.49762  -0.47958  -0.43960  -0.42790  -0.40437
  Beta  occ. eigenvalues --   -0.39045  -0.38391  -0.37983  -0.37199  -0.35670
  Beta  occ. eigenvalues --   -0.34601  -0.32744  -0.32082  -0.31570  -0.29966
  Beta  occ. eigenvalues --   -0.28995  -0.27831  -0.26951  -0.25712  -0.25345
  Beta  occ. eigenvalues --   -0.23442  -0.22647  -0.21609  -0.20310  -0.18498
  Beta  occ. eigenvalues --   -0.15406  -0.12780
  Beta virt. eigenvalues --    0.06678   0.07379   0.07428   0.07682   0.08552
  Beta virt. eigenvalues --    0.08796   0.09578   0.09755   0.10250   0.10455
  Beta virt. eigenvalues --    0.11138   0.11798   0.12040   0.12620   0.13749

 Mulliken charges and spin densities:
               1          2
     1  C    1.034784  -1.333974
     2  O   -0.155649   0.039733
     3  C   -2.604822   1.705914
     4  C   -0.446264   0.298618
     5  C    1.466266  -1.724329
     6  C    0.543444  -1.020807
     7  C    0.789375  -0.955626
     8  C    0.484414   0.794749
     9  C    0.813319  -0.728632
    10  C   -1.051073   0.924705
    11  C    1.104474  -1.503712
    12  O   -0.167000   0.021152
    13  C   -0.087338  -0.558149
    14  O   -0.189577   0.014725
    15  H   -0.444021   0.609566
    16  H   -0.358703   0.510710
    17  H   -0.083846   0.259504
    18  H   -0.477273   0.658647
    19  H   -0.560071   0.730598
    20  H   -0.624084   0.792406
    21  H   -0.300624   0.445333
    22  H    0.032199   0.193116
    23  H    0.279607  -0.053632
    24  H   -0.302391   0.460533
    25  H   -0.092536   0.238063
    26  H    0.333495  -0.144417
    27  H   -0.142617   0.292257
    28  H    0.206513   0.032949
 Sum of Mulliken charges =  -1.00000   1.00000

 Dipole moment (field-independent basis, Debye):
    X=              5.5787    Y=              0.6625    Z=             -2.2711  Tot=              6.0596
 Quadrupole moment (field-independent basis, Debye-Ang):
   XX=           -153.7012   YY=           -144.4370   ZZ=           -113.2161
   XY=              5.5531   XZ=              2.5926   YZ=             -0.3795

 Summary of Natural Population Analysis:

                                       Natural Population
                Natural  -----------------------------------------------
    Atom  No    Charge         Core      Valence    Rydberg      Total
 -----------------------------------------------------------------------
      C    1   -0.10011      0.99960     2.09132    0.00919     3.10011
      O    2   -0.27524      0.99986     3.26547    0.00992     4.27524
      C    3    0.16212      0.99934     1.82484    0.01371     2.83788
      C    4   -0.13982      0.99952     2.13055    0.00975     3.13982
      C    5   -0.08967      0.99957     2.07979    0.01032     3.08967
      C    6   -0.11329      0.99956     2.10319    0.01054     3.11329
      C    7   -0.09082      0.99952     2.08079    0.01051     3.09082
      C    8   -0.03970      0.99946     2.02884    0.01140     3.03970
      C    9   -0.21015      0.99956     2.19963    0.01096     3.21015
      C   10    0.10298      0.99954     1.88196    0.01553     2.89702
      C   11   -0.02575      0.99949     2.01309    0.01318     3.02575
      O   12   -0.29485      0.99992     3.28767    0.00726     4.29485
      C   13   -0.01857      0.99952     2.00552    0.01352     3.01857
      O   14   -0.36333      0.99990     3.35688    0.00655     4.36333
      H   15    0.08664      0.00000     0.41141    0.00195     0.41336
      H   16    0.08621      0.00000     0.41200    0.00179     0.41379
      H   17    0.09542      0.00000     0.40365    0.00093     0.40458
      H   18    0.10944      0.00000     0.38813    0.00243     0.39056
      H   19    0.10280      0.00000     0.39538    0.00183     0.39720
      H   20    0.10291      0.00000     0.39540    0.00170     0.39709
      H   21    0.10028      0.00000     0.39814    0.00158     0.39972
      H   22    0.10786      0.00000     0.39085    0.00129     0.39214
      H   23    0.11775      0.00000     0.38069    0.00156     0.38225
      H   24    0.08969      0.00000     0.40884    0.00147     0.41031
      H   25    0.09150      0.00000     0.40697    0.00153     0.40850
      H   26    0.09933      0.00000     0.39910    0.00157     0.40067
      H   27    0.07928      0.00000     0.41931    0.00141     0.42072
      H   28    0.22711      0.00000     0.26999    0.00289     0.27289
 =======================================================================
   * Total *    0.00000     13.99433    37.82942    0.17625    52.00000

 Normal termination of Gaussian 16 at Thu Dec 10 09:46:32 2020.
