 Gaussian 16, Revision A.03,

 -----------------------------------------------------------
 # opt freq B3LYP/6-31G(d) empiricaldispersion=gd3bj scf=xqc
 -----------------------------------------------------------

 -------------------------------
 CID_118194210_JID_6703_neutraal
 -------------------------------
 Symbolic Z-matrix:
 Charge =  0 Multiplicity = 1

 SCF Done:  E(RB3LYP) =  -1030.26263559     A.U. after   16 cycles
 SCF Done:  E(RB3LYP) =  -1030.26757575     A.U. after   12 cycles
 SCF Done:  E(RB3LYP) =  -1030.26804612     A.U. after   12 cycles
 SCF Done:  E(RB3LYP) =  -1030.26828720     A.U. after   11 cycles
 SCF Done:  E(RB3LYP) =  -1030.26831822     A.U. after   10 cycles
 SCF Done:  E(RB3LYP) =  -1030.26833318     A.U. after   10 cycles
 SCF Done:  E(RB3LYP) =  -1030.26834067     A.U. after   10 cycles
 SCF Done:  E(RB3LYP) =  -1030.26834368     A.U. after    8 cycles
 SCF Done:  E(RB3LYP) =  -1030.26834524     A.U. after    8 cycles
 SCF Done:  E(RB3LYP) =  -1030.26834561     A.U. after    8 cycles
 Optimization completed.
    -- Stationary point found.
 Normal termination of Gaussian 16 at Fri Dec 11 00:11:59 2020.

 --------------------------------------------------------------------
 #N Geom=AllCheck Guess=TCheck SCRF=Check GenChk RB3LYP/6-31G(d) Freq
 --------------------------------------------------------------------

 Structure from the checkpoint file:  "JID_6703.chk"
 -------------------------------
 CID_118194210_JID_6703_neutraal
 -------------------------------
 Charge =  0 Multiplicity = 1

 SCF Done:  E(RB3LYP) =  -1030.26834561     A.U. after    1 cycles

  Exact polarizability: 231.508   1.615 188.489   0.002  -0.002  66.097
 Approx polarizability: 396.112 -18.425 321.462   0.009  -0.004 106.640

                      1                      2                      3
                      A                      A                      A
 Frequencies --     50.9787                72.0282               124.6955
 Red. masses --      3.8772                 3.8327                 4.7446
 Frc consts  --      0.0059                 0.0117                 0.0435
 IR Inten    --      1.5539                 1.6544                 2.8808

                      4                      5                      6
                      A                      A                      A
 Frequencies --    149.8891               200.0016               244.1406
 Red. masses --      5.8900                 2.3996                 6.7920
 Frc consts  --      0.0780                 0.0566                 0.2385
 IR Inten    --      0.1803                 0.5131                 1.8361

                      7                      8                      9
                      A                      A                      A
 Frequencies --    263.7722               282.9673               298.8174
 Red. masses --      1.4506                 4.5591                 2.7242
 Frc consts  --      0.0595                 0.2151                 0.1433
 IR Inten    --      0.0007                 2.2273                 1.3812

                     10                     11                     12
                      A                      A                      A
 Frequencies --    322.4940               341.4688               344.6652
 Red. masses --      1.1624                 4.3524                 4.9135
 Frc consts  --      0.0712                 0.2990                 0.3439
 IR Inten    --      0.2203                 3.5091                 0.4645

                     13                     14                     15
                      A                      A                      A
 Frequencies --    389.8197               423.5113               448.4412
 Red. masses --      4.7253                 5.8557                 4.8975
 Frc consts  --      0.4231                 0.6188                 0.5803
 IR Inten    --      1.9226                 6.0014                 9.2545

                     16                     17                     18
                      A                      A                      A
 Frequencies --    471.7561               497.9238               525.3714
 Red. masses --      5.0948                 6.4722                 4.0542
 Frc consts  --      0.6681                 0.9454                 0.6593
 IR Inten    --      0.0564                 0.1095                 0.0000

                     19                     20                     21
                      A                      A                      A
 Frequencies --    545.6168               581.4630               607.4017
 Red. masses --      4.6949                 3.8230                 6.3050
 Frc consts  --      0.8235                 0.7616                 1.3705
 IR Inten    --      3.5273                 0.0437                 3.7727

                     22                     23                     24
                      A                      A                      A
 Frequencies --    658.7372               681.2259               722.1311
 Red. masses --      3.0737                 6.7033                 1.9786
 Frc consts  --      0.7858                 1.8328                 0.6079
 IR Inten    --      8.0415                 1.0968                 9.8428

                     25                     26                     27
                      A                      A                      A
 Frequencies --    729.4356               744.5228               779.9292
 Red. masses --      7.9110                 3.0570                 1.9506
 Frc consts  --      2.4800                 0.9984                 0.6991
 IR Inten    --      0.7280                41.8180                 0.0333

                     28                     29                     30
                      A                      A                      A
 Frequencies --    793.2712               822.2114               841.3102
 Red. masses --      2.4246                 5.4419                 5.3694
 Frc consts  --      0.8989                 2.1676                 2.2392
 IR Inten    --     37.7674                 7.9136                14.2311

                     31                     32                     33
                      A                      A                      A
 Frequencies --    881.1809               894.4473               922.2173
 Red. masses --      1.3490                 1.2999                 5.1131
 Frc consts  --      0.6172                 0.6127                 2.5621
 IR Inten    --      0.0914                 0.2037                12.0083

                     34                     35                     36
                      A                      A                      A
 Frequencies --    923.4189               965.3298              1019.0798
 Red. masses --      5.1039                 1.2704                 2.0513
 Frc consts  --      2.5642                 0.6975                 1.2552
 IR Inten    --     10.8945                 0.4285                28.0534

                     37                     38                     39
                      A                      A                      A
 Frequencies --   1055.1477              1077.5768              1102.3617
 Red. masses --      2.1078                 1.5025                 2.3289
 Frc consts  --      1.3826                 1.0279                 1.6674
 IR Inten    --     22.3750                 2.3672                 9.9559

                     40                     41                     42
                      A                      A                      A
 Frequencies --   1148.6665              1161.8161              1163.6097
 Red. masses --      1.4487                 1.6958                 1.2957
 Frc consts  --      1.1262                 1.3486                 1.0337
 IR Inten    --      2.5397                12.2023                 0.3980

                     43                     44                     45
                      A                      A                      A
 Frequencies --   1178.5621              1217.5972              1237.8712
 Red. masses --      2.5350                 1.5566                 2.4653
 Frc consts  --      2.0746                 1.3597                 2.2257
 IR Inten    --     23.4327                 5.6265                 8.1367

                     46                     47                     48
                      A                      A                      A
 Frequencies --   1288.5323              1318.7914              1342.7982
 Red. masses --      1.9515                 2.1261                 5.8249
 Frc consts  --      1.9090                 2.1787                 6.1882
 IR Inten    --      4.9814                21.3915                43.0812

                     49                     50                     51
                      A                      A                      A
 Frequencies --   1354.4485              1372.4824              1437.9297
 Red. masses --      3.3919                 5.8540                 3.2209
 Frc consts  --      3.6662                 6.4970                 3.9238
 IR Inten    --     15.9700                13.4114                 7.0538

                     52                     53                     54
                      A                      A                      A
 Frequencies --   1446.7602              1461.9126              1471.3067
 Red. masses --      1.2536                 1.6368                 2.4522
 Frc consts  --      1.5460                 2.0611                 3.1276
 IR Inten    --      0.2774                33.5668                14.6650

                     55                     56                     57
                      A                      A                      A
 Frequencies --   1508.4519              1516.2004              1523.6457
 Red. masses --      2.7778                 2.8559                 1.0458
 Frc consts  --      3.7241                 3.8682                 1.4304
 IR Inten    --     24.4725                57.4874                 7.4478

                     58                     59                     60
                      A                      A                      A
 Frequencies --   1537.6382              1541.2176              1549.9389
 Red. masses --      1.1011                 1.0450                 1.2813
 Frc consts  --      1.5338                 1.4625                 1.8136
 IR Inten    --     55.5805                 9.4706                 8.0407

                     61                     62                     63
                      A                      A                      A
 Frequencies --   1577.1552              1639.4981              1655.3578
 Red. masses --      5.3669                 6.7278                 5.2607
 Frc consts  --      7.8654                10.6549                 8.4934
 IR Inten    --     19.7459                27.6347                34.0291

                     64                     65                     66
                      A                      A                      A
 Frequencies --   1748.6504              3050.5972              3062.1405
 Red. masses --     11.6193                 1.0376                 1.0373
 Frc consts  --     20.9332                 5.6892                 5.7304
 IR Inten    --    458.5804                21.6791                40.6444

                     67                     68                     69
                      A                      A                      A
 Frequencies --   3108.8375              3122.4219              3132.1581
 Red. masses --      1.1013                 1.1061                 1.1003
 Frc consts  --      6.2710                 6.3535                 6.3599
 IR Inten    --     14.9006                22.0019                22.1539

                     70                     71                     72
                      A                      A                      A
 Frequencies --   3190.2269              3202.3465              3207.3196
 Red. masses --      1.0871                 1.0980                 1.0943
 Frc consts  --      6.5184                 6.6344                 6.6324
 IR Inten    --      7.5027                 1.5621                27.3329

                     73                     74                     75
                      A                      A                      A
 Frequencies --   3255.4338              3263.6972              3308.4540
 Red. masses --      1.0910                 1.0920                 1.0935
 Frc consts  --      6.8123                 6.8530                 7.0524
 IR Inten    --      7.9088                 0.0245                 3.6009

 - Thermochemistry -
 -------------------
 Temperature   298.150 Kelvin.  Pressure   1.00000 Atm.
 Atom     1 has atomic number  6 and mass  12.00000

 Molecular mass:   229.05614 amu.
 Principal axes and moments of inertia in atomic units:
                           1         2         3
     Eigenvalues --  2502.193283790.321376269.76721
           X            0.99997   0.00765  -0.00000
           Y           -0.00765   0.99997   0.00000
           Z            0.00000  -0.00000   1.00000
 This molecule is an asymmetric top.
 Rotational symmetry number  1.
 Warning -- assumption of classical behavior for rotation
           may cause significant error
 Rotational temperatures (Kelvin)      0.03462     0.02285     0.01381
 Rotational constants (GHZ):           0.72126     0.47614     0.28785
 Zero-point vibrational energy     556893.0 (Joules/Mol)
                                  133.10061 (Kcal/Mol)
 Warning -- explicit consideration of  21 degrees of freedom as
           vibrations may cause significant error
 Vibrational temperatures:     73.35   103.63   179.41   215.66   287.76
          (Kelvin)            351.26   379.51   407.13   429.93   464.00
                              491.30   495.90   560.86   609.34   645.21
                              678.75   716.40   755.89   785.02   836.60
                              873.92   947.78   980.13  1038.99  1049.50
                             1071.20  1122.14  1141.34  1182.98  1210.46
                             1267.82  1286.91  1326.86  1328.59  1388.89
                             1466.23  1518.12  1550.39  1586.05  1652.67
                             1671.59  1674.17  1695.69  1751.85  1781.02
                             1853.91  1897.45  1931.99  1948.75  1974.70
                             2068.86  2081.57  2103.37  2116.88  2170.33
                             2181.47  2192.19  2212.32  2217.47  2230.02
                             2269.17  2358.87  2381.69  2515.92  4389.13
                             4405.74  4472.92  4492.47  4506.48  4590.03
                             4607.46  4614.62  4683.84  4695.73  4760.13

 Zero-point correction=                           0.212109 (Hartree/Particle)
 Thermal correction to Energy=                    0.224925
 Thermal correction to Enthalpy=                  0.225869
 Thermal correction to Gibbs Free Energy=         0.172978
 Sum of electronic and zero-point Energies=          -1030.056236
 Sum of electronic and thermal Energies=             -1030.043420
 Sum of electronic and thermal Enthalpies=           -1030.042476
 Sum of electronic and thermal Free Energies=        -1030.095368

                     E (Thermal)             CV                S
                      KCal/Mol        Cal/Mol-Kelvin    Cal/Mol-Kelvin
 Total                  141.143             51.719            111.320
 Electronic               0.000              0.000              0.000
 Translational            0.889              2.981             42.188
 Rotational               0.889              2.981             32.453
 Vibrational            139.365             45.758             36.679
 Vibration     1          0.595              1.977              4.779
 Vibration     2          0.598              1.967              4.097
 Vibration     3          0.610              1.928              3.026
 Vibration     4          0.618              1.903              2.674
 Vibration     5          0.638              1.840              2.133
 Vibration     6          0.659              1.772              1.773
 Vibration     7          0.670              1.739              1.637
 Vibration     8          0.682              1.705              1.516
 Vibration     9          0.692              1.676              1.424
 Vibration    10          0.708              1.630              1.297
 Vibration    11          0.721              1.593              1.205
 Vibration    12          0.723              1.586              1.190
 Vibration    13          0.758              1.492              1.001
 Vibration    14          0.786              1.419              0.880
 Vibration    15          0.807              1.364              0.801
 Vibration    16          0.829              1.313              0.733
 Vibration    17          0.853              1.255              0.663
 Vibration    18          0.880              1.194              0.598
 Vibration    19          0.901              1.149              0.553
 Vibration    20          0.938              1.071              0.483
 Vibration    21          0.966              1.016              0.437

 Optimization completed.
    -- Stationary point found.
 Normal termination of Gaussian 16 at Fri Dec 11 00:21:21 2020.

 ----------------------------------------------------------------------
 # B3LYP/6-311++G(d,p) empiricaldispersion=gd3bj scf=xqc pop=npa geom=c
 heck
 ----------------------------------------------------------------------

 ---------------------------------------
 CID_118194210_JID_6703_Energie_neutraal
 ---------------------------------------
 Structure from the checkpoint file:  "JID_6703.chk"
 Charge =  0 Multiplicity = 1

 SCF Done:  E(RB3LYP) =  -1030.45495303     A.U. after   16 cycles
 Normal termination of Gaussian 16 at Fri Dec 11 00:25:04 2020.

 ----------------------------------------------------------------------
 # B3LYP/6-311++G(d,p) empiricaldispersion=gd3bj scf=xqc pop=npa geom=c
 heck
 ----------------------------------------------------------------------

 -------------------------------------
 CID_118194210_JID_6703_Energie_kation
 -------------------------------------
 Structure from the checkpoint file:  "JID_6703.chk"
 Charge =  1 Multiplicity = 2

 SCF Done:  E(UB3LYP) =  -1030.17009730     A.U. after   26 cycles
 Normal termination of Gaussian 16 at Fri Dec 11 00:33:03 2020.
 Gaussian 16:  ES64L-G16RevA.03 25-Dec-2016

 ----------------------------------------------------------------------
 # B3LYP/6-311++G(d,p) empiricaldispersion=gd3bj scf=xqc pop=npa geom=c
 heck
 ----------------------------------------------------------------------

 ------------------------------------
 CID_118194210_JID_6703_Energie_anion
 ------------------------------------
 Structure from the checkpoint file:  "JID_6703.chk"
 Charge = -1 Multiplicity = 2

                         Standard orientation:
 ---------------------------------------------------------------------
 Center     Atomic      Atomic             Coordinates (Angstroms)
 Number     Number       Type             X           Y           Z
 ---------------------------------------------------------------------
      1          6           0        1.764018   -2.936704   -0.000199
      2          6           0        1.954779   -1.438945   -0.000091
      3          6           0        0.871189   -0.518456   -0.000064
      4          6           0       -0.537112   -0.894554    0.000003
      5          6           0       -1.488613    0.118125   -0.000081
      6          6           0       -1.217223    1.535025   -0.000260
      7          8           0       -2.093139    2.399668   -0.000287
      8          7           0        0.147589    1.842740    0.000004
      9          6           0        1.165782    0.881545   -0.000006
     10          6           0        2.503061    1.317910    0.000064
     11          6           0        3.539060    0.400830    0.000097
     12          6           0        3.264210   -0.965228    0.000017
     13          6           0        0.481852    3.265537    0.000212
     14         16           0       -3.123015   -0.457460    0.000088
     15          6           0       -2.548514   -2.089931    0.000100
     16          6           0       -1.184919   -2.181817    0.000205
     17          1           0        1.217532   -3.281633   -0.884987
     18          1           0        1.218170   -3.281900    0.884884
     19          1           0        2.736594   -3.435877   -0.000598
     20          1           0        2.732547    2.374174    0.000045
     21          1           0        4.566895    0.751400    0.000193
     22          1           0        4.081617   -1.680061    0.000035
     23          1           0        1.058784    3.526360   -0.892546
     24          1           0       -0.459394    3.810877    0.000363
     25          1           0        1.058945    3.526025    0.892956
     26          1           0       -3.252964   -2.911080    0.000178
     27          1           0       -0.683935   -3.135453    0.000357
 ---------------------------------------------------------------------

 SCF Done:  E(UB3LYP) =  -1030.46546137     A.U. after   22 cycles

 The electronic state is 2-A.
 Alpha  occ. eigenvalues --  -88.72077 -18.93220 -14.21716 -10.11489 -10.08888
 Alpha  occ. eigenvalues --  -10.07684 -10.05238 -10.05197 -10.05110 -10.04669
 Alpha  occ. eigenvalues --  -10.03822 -10.03779 -10.03692 -10.03626 -10.03496
 Alpha  occ. eigenvalues --  -10.03274  -7.80735  -5.77031  -5.76669  -5.76355
 Alpha  occ. eigenvalues --   -0.89185  -0.81584  -0.74085  -0.72010  -0.65161
 Alpha  occ. eigenvalues --   -0.64099  -0.60791  -0.58702  -0.57049  -0.55953
 Alpha  occ. eigenvalues --   -0.49559  -0.47266  -0.45507  -0.41988  -0.41005
 Alpha  occ. eigenvalues --   -0.37968  -0.35873  -0.34161  -0.33387  -0.32877
 Alpha  occ. eigenvalues --   -0.30828  -0.30756  -0.30164  -0.27846  -0.27401
 Alpha  occ. eigenvalues --   -0.27049  -0.26293  -0.25499  -0.24981  -0.23616
 Alpha  occ. eigenvalues --   -0.22687  -0.22315  -0.21198  -0.19918  -0.17146
 Alpha  occ. eigenvalues --   -0.14852  -0.11654  -0.10958  -0.09819  -0.08055
 Alpha  occ. eigenvalues --    0.04476
 Alpha virt. eigenvalues --    0.08037   0.08616   0.09262   0.10095   0.11295
 Alpha virt. eigenvalues --    0.11498   0.11628   0.11991   0.12732   0.12968
 Alpha virt. eigenvalues --    0.13459   0.13775   0.15473   0.15718   0.15905

  Beta  occ. eigenvalues --  -88.72005 -18.93045 -14.21578 -10.11358 -10.08889
  Beta  occ. eigenvalues --  -10.07692 -10.05266 -10.05214 -10.04863 -10.04436
  Beta  occ. eigenvalues --  -10.03921 -10.03845 -10.03522 -10.03429 -10.03416
  Beta  occ. eigenvalues --  -10.02983  -7.80670  -5.76999  -5.76639  -5.76116
  Beta  occ. eigenvalues --   -0.88859  -0.81339  -0.73759  -0.71758  -0.64849
  Beta  occ. eigenvalues --   -0.63909  -0.60413  -0.58444  -0.56922  -0.55748
  Beta  occ. eigenvalues --   -0.49452  -0.46739  -0.45203  -0.41809  -0.40849
  Beta  occ. eigenvalues --   -0.37726  -0.35715  -0.33799  -0.33282  -0.32754
  Beta  occ. eigenvalues --   -0.30705  -0.30500  -0.30006  -0.27716  -0.26959
  Beta  occ. eigenvalues --   -0.26632  -0.26186  -0.25355  -0.24818  -0.22968
  Beta  occ. eigenvalues --   -0.22221  -0.21879  -0.21056  -0.19614  -0.16426
  Beta  occ. eigenvalues --   -0.13822  -0.11429  -0.10045  -0.08634  -0.06777
  Beta virt. eigenvalues --    0.07998   0.08586   0.09237   0.09552   0.10075
  Beta virt. eigenvalues --    0.11455   0.11775   0.12075   0.12447   0.12696
  Beta virt. eigenvalues --    0.13364   0.13434   0.13752   0.15476   0.15688

 Mulliken charges and spin densities:
               1          2
     1  C   -0.455411  -0.026502
     2  C    0.544512   0.142857
     3  C    0.466486  -0.024589
     4  C    0.499185   0.149872
     5  C    0.335544   0.186502
     6  C   -0.247662   0.068175
     7  O   -0.417345   0.063391
     8  N    0.050012   0.045372
     9  C   -0.110568   0.004275
    10  C   -0.189426   0.056595
    11  C   -0.549372   0.151649
    12  C   -0.901169  -0.058176
    13  C   -0.285706  -0.016224
    14  S   -0.609415   0.123525
    15  C   -0.352482   0.172256
    16  C   -0.172364  -0.082184
    17  H    0.131213   0.017409
    18  H    0.131229   0.017453
    19  H    0.134973   0.000068
    20  H    0.118181  -0.005457
    21  H    0.127587  -0.011402
    22  H    0.051194   0.004315
    23  H    0.116704   0.015354
    24  H    0.206108  -0.001193
    25  H    0.116718   0.015322
    26  H    0.192073  -0.013312
    27  H    0.069201   0.004648
 Sum of Mulliken charges =  -1.00000   1.00000

 Dipole moment (field-independent basis, Debye):
    X=              3.7449    Y=             -1.9761    Z=              0.0006  Tot=              4.2343
 Quadrupole moment (field-independent basis, Debye-Ang):
   XX=           -139.3168   YY=           -117.0693   ZZ=           -111.7574
   XY=              9.4068   XZ=             -0.0014   YZ=              0.0021

 Summary of Natural Population Analysis:

                                       Natural Population
                Natural  -----------------------------------------------
    Atom  No    Charge         Core      Valence    Rydberg      Total
 -----------------------------------------------------------------------
      C    1   -0.29052      0.99960     2.28613    0.00479     3.29052
      C    2    0.03731      0.99939     1.95484    0.00846     2.96269
      C    3   -0.04332      0.99939     2.03457    0.00936     3.04332
      C    4   -0.00423      0.99945     1.99581    0.00897     3.00423
      C    5   -0.08457      0.99939     2.07507    0.01011     3.08457
      C    6    0.33887      0.99954     1.64088    0.02071     2.66113
      O    7   -0.32881      0.99988     3.32317    0.00576     4.32881
      N    8   -0.21696      0.99961     2.70792    0.00942     3.71696
      C    9    0.11020      0.99942     1.88049    0.00989     2.88980
      C   10   -0.12587      0.99955     2.11770    0.00862     3.12587
      C   11   -0.07110      0.99960     2.06112    0.01039     3.07110
      C   12   -0.13256      0.99943     2.12291    0.01022     3.13256
      C   13   -0.18222      0.99961     2.17595    0.00667     3.18222
      S   14    0.23625      4.99944     2.73992    0.02439     7.76375
      C   15   -0.14970      0.99955     2.13852    0.01162     3.14970
      C   16   -0.15601      0.99952     2.14723    0.00926     3.15601
      H   17    0.10149      0.00000     0.39705    0.00146     0.39851
      H   18    0.10148      0.00000     0.39706    0.00146     0.39852
      H   19    0.09323      0.00000     0.40531    0.00146     0.40677
      H   20    0.09675      0.00000     0.40214    0.00111     0.40325
      H   21    0.08761      0.00000     0.41052    0.00187     0.41239
      H   22    0.09059      0.00000     0.40867    0.00074     0.40941
      H   23    0.08929      0.00000     0.40911    0.00160     0.41071
      H   24    0.11731      0.00000     0.38122    0.00147     0.38269
      H   25    0.08929      0.00000     0.40911    0.00160     0.41071
      H   26    0.09525      0.00000     0.40376    0.00099     0.40475
      H   27    0.10101      0.00000     0.39785    0.00114     0.39899
 =======================================================================
   * Total *    0.00004     19.99238    39.82404    0.18354    59.99996

 Normal termination of Gaussian 16 at Fri Dec 11 00:40:06 2020.
