 Gaussian 16, Revision A.03,

 -----------------------------------------------------------
 # opt freq B3LYP/6-31G(d) empiricaldispersion=gd3bj scf=xqc
 -----------------------------------------------------------

 ------------------------------
 CID_57283689_JID_9273_neutraal
 ------------------------------
 Symbolic Z-matrix:
 Charge =  0 Multiplicity = 1

 SCF Done:  E(RB3LYP) =  -826.384970480     A.U. after   16 cycles
 SCF Done:  E(RB3LYP) =  -826.391027193     A.U. after   13 cycles
 SCF Done:  E(RB3LYP) =  -826.390392905     A.U. after   14 cycles
 SCF Done:  E(RB3LYP) =  -826.392286421     A.U. after   13 cycles
 SCF Done:  E(RB3LYP) =  -826.392589837     A.U. after   12 cycles
 SCF Done:  E(RB3LYP) =  -826.392811765     A.U. after   13 cycles
 SCF Done:  E(RB3LYP) =  -826.393135242     A.U. after   12 cycles
 SCF Done:  E(RB3LYP) =  -826.393414905     A.U. after   12 cycles
 SCF Done:  E(RB3LYP) =  -826.393550099     A.U. after   13 cycles
 SCF Done:  E(RB3LYP) =  -826.393585572     A.U. after   11 cycles
 SCF Done:  E(RB3LYP) =  -826.393986168     A.U. after   11 cycles
 SCF Done:  E(RB3LYP) =  -826.393995571     A.U. after   10 cycles
 SCF Done:  E(RB3LYP) =  -826.393997794     A.U. after   10 cycles
 SCF Done:  E(RB3LYP) =  -826.393998070     A.U. after    8 cycles
 SCF Done:  E(RB3LYP) =  -826.393998104     A.U. after    9 cycles
 SCF Done:  E(RB3LYP) =  -826.393998153     A.U. after    7 cycles
 Optimization completed.
    -- Stationary point found.
 Normal termination of Gaussian 16 at Sun Dec 13 20:50:25 2020.

 --------------------------------------------------------------------
 #N Geom=AllCheck Guess=TCheck SCRF=Check GenChk RB3LYP/6-31G(d) Freq
 --------------------------------------------------------------------

 Structure from the checkpoint file:  "JID_9273.chk"
 ------------------------------
 CID_57283689_JID_9273_neutraal
 ------------------------------
 Charge =  0 Multiplicity = 1

 SCF Done:  E(RB3LYP) =  -826.393998153     A.U. after    1 cycles

  Exact polarizability: 214.523  -7.987 218.952  16.438  -0.304 111.221
 Approx polarizability: 305.739 -19.251 384.781  38.994  -6.251 175.153

                      1                      2                      3
                      A                      A                      A
 Frequencies --     29.1759                42.9985                62.3320
 Red. masses --      6.0955                 4.2340                 1.2014
 Frc consts  --      0.0031                 0.0046                 0.0028
 IR Inten    --      1.8505                 0.1862                 0.2009

                      4                      5                      6
                      A                      A                      A
 Frequencies --     68.2785               108.0810               121.5922
 Red. masses --      2.6448                 4.9046                 3.0807
 Frc consts  --      0.0073                 0.0338                 0.0268
 IR Inten    --      0.9968                 2.1083                 0.3406

                      7                      8                      9
                      A                      A                      A
 Frequencies --    142.4207               161.6651               169.0804
 Red. masses --      4.6620                 1.4914                 3.6859
 Frc consts  --      0.0557                 0.0230                 0.0621
 IR Inten    --      1.6122                 1.9441                 1.2806

                     10                     11                     12
                      A                      A                      A
 Frequencies --    178.4106               240.4111               264.3731
 Red. masses --      2.1008                 2.8485                 2.9785
 Frc consts  --      0.0394                 0.0970                 0.1227
 IR Inten    --      2.3142                 0.3081                 1.1141

                     13                     14                     15
                      A                      A                      A
 Frequencies --    292.3689               307.3143               322.5376
 Red. masses --      3.2494                 2.5739                 3.4870
 Frc consts  --      0.1636                 0.1432                 0.2137
 IR Inten    --      2.0791                 8.2217                 0.9916

                     16                     17                     18
                      A                      A                      A
 Frequencies --    326.1810               333.0304               378.6818
 Red. masses --      2.7731                 2.9456                 3.2167
 Frc consts  --      0.1738                 0.1925                 0.2718
 IR Inten    --      6.0501                 5.0486                 1.5667

                     19                     20                     21
                      A                      A                      A
 Frequencies --    384.0189               421.2253               461.7586
 Red. masses --      1.9301                 3.8531                 3.9397
 Frc consts  --      0.1677                 0.4028                 0.4949
 IR Inten    --      2.1210                 1.7482                 2.8790

                     22                     23                     24
                      A                      A                      A
 Frequencies --    481.0803               491.2090               529.1006
 Red. masses --      3.9927                 5.5452                 3.5754
 Frc consts  --      0.5444                 0.7883                 0.5897
 IR Inten    --      3.7842                 1.5168                 9.1626

                     25                     26                     27
                      A                      A                      A
 Frequencies --    543.9479               573.2758               616.4571
 Red. masses --      3.7233                 3.5334                 3.7052
 Frc consts  --      0.6491                 0.6842                 0.8296
 IR Inten    --      6.2395                 3.8222                 3.5895

                     28                     29                     30
                      A                      A                      A
 Frequencies --    638.6229               661.3997               666.5250
 Red. masses --      4.7689                 3.8797                 4.0147
 Frc consts  --      1.1459                 1.0000                 1.0508
 IR Inten    --     10.3334                 6.1809                 0.6905

                     31                     32                     33
                      A                      A                      A
 Frequencies --    720.9599               749.0875               773.0976
 Red. masses --      3.9878                 3.5069                 1.3759
 Frc consts  --      1.2212                 1.1594                 0.4845
 IR Inten    --      5.5271                 0.6700                32.4615

                     34                     35                     36
                      A                      A                      A
 Frequencies --    802.1335               815.6630               827.2985
 Red. masses --      4.0456                 2.2641                 2.1150
 Frc consts  --      1.5337                 0.8875                 0.8529
 IR Inten    --      4.3874                 2.5524                 2.0685

                     37                     38                     39
                      A                      A                      A
 Frequencies --    872.5646               882.2463               901.4099
 Red. masses --      3.0926                 3.1011                 1.2656
 Frc consts  --      1.3873                 1.4221                 0.6059
 IR Inten    --      5.9729                 8.8192                 1.1210

                     40                     41                     42
                      A                      A                      A
 Frequencies --    929.4653               944.7939               990.0480
 Red. masses --      2.4164                 1.3968                 2.4813
 Frc consts  --      1.2300                 0.7346                 1.4330
 IR Inten    --      0.8624                 2.7830                 1.0301

                     43                     44                     45
                      A                      A                      A
 Frequencies --   1011.6660              1020.4672              1027.6597
 Red. masses --      2.0042                 1.6421                 2.2034
 Frc consts  --      1.2086                 1.0075                 1.3710
 IR Inten    --     22.8712                 1.5410                29.6044

                     46                     47                     48
                      A                      A                      A
 Frequencies --   1036.8764              1049.1616              1053.7451
 Red. masses --      1.9056                 2.1768                 1.9034
 Frc consts  --      1.2071                 1.4117                 1.2453
 IR Inten    --      0.4932                 8.5985                14.3866

                     49                     50                     51
                      A                      A                      A
 Frequencies --   1057.0728              1076.3222              1088.5434
 Red. masses --      1.8600                 1.5150                 2.1575
 Frc consts  --      1.2245                 1.0341                 1.5062
 IR Inten    --      3.9376                 5.9149                 7.8613

                     52                     53                     54
                      A                      A                      A
 Frequencies --   1116.0083              1122.8916              1134.5723
 Red. masses --      1.7767                 1.8264                 1.8805
 Frc consts  --      1.3038                 1.3568                 1.4262
 IR Inten    --     10.7241                 4.2234                10.6654

                     55                     56                     57
                      A                      A                      A
 Frequencies --   1171.8871              1174.1151              1219.0765
 Red. masses --      3.2714                 2.1119                 1.4589
 Frc consts  --      2.6470                 1.7153                 1.2775
 IR Inten    --     36.1644                 4.0901                56.2691

                     58                     59                     60
                      A                      A                      A
 Frequencies --   1231.4364              1237.1086              1273.3566
 Red. masses --      1.4436                 1.4245                 3.1012
 Frc consts  --      1.2898                 1.2845                 2.9627
 IR Inten    --      0.3065                 3.7916                22.7032

                     61                     62                     63
                      A                      A                      A
 Frequencies --   1295.5261              1305.8721              1314.0163
 Red. masses --      1.4612                 2.1832                 1.9314
 Frc consts  --      1.4449                 2.1935                 1.9648
 IR Inten    --     13.6697                16.8405                84.1920

                     64                     65                     66
                      A                      A                      A
 Frequencies --   1345.6999              1375.6858              1378.9812
 Red. masses --      1.3655                 1.5989                 1.4563
 Frc consts  --      1.4570                 1.7828                 1.6316
 IR Inten    --      6.1694                 8.5798                 6.1653

                     67                     68                     69
                      A                      A                      A
 Frequencies --   1398.2353              1404.8990              1411.5594
 Red. masses --      1.7243                 1.3941                 1.7184
 Frc consts  --      1.9862                 1.6212                 2.0174
 IR Inten    --      2.7277                 1.2427                16.2939

                     70                     71                     72
                      A                      A                      A
 Frequencies --   1412.4933              1433.7936              1447.1284
 Red. masses --      2.0606                 1.3934                 1.2293
 Frc consts  --      2.4222                 1.6877                 1.5168
 IR Inten    --     26.1232                 9.9851                30.2404

                     73                     74                     75
                      A                      A                      A
 Frequencies --   1449.4204              1451.1667              1461.8653
 Red. masses --      1.9417                 1.2320                 1.9390
 Frc consts  --      2.4034                 1.5285                 2.4414
 IR Inten    --     14.0948                 0.7430                 5.8436

                     76                     77                     78
                      A                      A                      A
 Frequencies --   1482.7784              1505.8232              1510.8059
 Red. masses --      2.8568                 1.0985                 1.4653
 Frc consts  --      3.7007                 1.4675                 1.9705
 IR Inten    --    129.5258                 7.8016                17.1970

                     79                     80                     81
                      A                      A                      A
 Frequencies --   1513.4067              1517.5368              1518.8335
 Red. masses --      1.0976                 1.1582                 1.0973
 Frc consts  --      1.4811                 1.5715                 1.4913
 IR Inten    --      7.0190                23.3085                 4.4348

                     82                     83                     84
                      A                      A                      A
 Frequencies --   1520.4296              1522.8296              1534.9032
 Red. masses --      1.1328                 1.0717                 1.1103
 Frc consts  --      1.5429                 1.4643                 1.5412
 IR Inten    --     10.8965                 7.2745                12.4584

                     85                     86                     87
                      A                      A                      A
 Frequencies --   1542.2062              1611.7650              1663.0978
 Red. masses --      1.8053                 6.3041                 8.1909
 Frc consts  --      2.5297                 9.6489                13.3481
 IR Inten    --      6.7540                 9.3481                68.4293

                     88                     89                     90
                      A                      A                      A
 Frequencies --   1705.8684              1795.1362              2951.4658
 Red. masses --      6.5048                 8.2550                 1.0842
 Frc consts  --     11.1526                15.6734                 5.5645
 IR Inten    --     62.5929               500.5557                98.4180

                     91                     92                     93
                      A                      A                      A
 Frequencies --   3002.3075              3026.2165              3029.1081
 Red. masses --      1.0827                 1.0439                 1.0678
 Frc consts  --      5.7498                 5.6328                 5.7725
 IR Inten    --     26.1447                57.7401                31.2858

                     94                     95                     96
                      A                      A                      A
 Frequencies --   3034.1398              3049.9707              3056.7290
 Red. masses --      1.0454                 1.0671                 1.0671
 Frc consts  --      5.6702                 5.8487                 5.8743
 IR Inten    --     31.8619                20.2946                60.8901

                     97                     98                     99
                      A                      A                      A
 Frequencies --   3077.8386              3090.1304              3090.9644
 Red. masses --      1.0934                 1.0645                 1.0899
 Frc consts  --      6.1029                 5.9891                 6.1353
 IR Inten    --     27.1285                11.0114                23.1492

                    100                    101                    102
                      A                      A                      A
 Frequencies --   3100.1944              3110.1302              3111.7021
 Red. masses --      1.0973                 1.0965                 1.0996
 Frc consts  --      6.2136                 6.2493                 6.2733
 IR Inten    --     36.7333                31.7650                24.1787

                    103                    104                    105
                      A                      A                      A
 Frequencies --   3122.4813              3126.0929              3152.9012
 Red. masses --      1.0989                 1.0962                 1.1016
 Frc consts  --      6.3128                 6.3117                 6.4519
 IR Inten    --     54.6851                 3.9567                 5.4622

                    106                    107                    108
                      A                      A                      A
 Frequencies --   3199.5019              3231.0512              3259.8216
 Red. masses --      1.0902                 1.0899                 1.0976
 Frc consts  --      6.5751                 6.7037                 6.8722
 IR Inten    --     11.0310                 4.3454                 5.2605

 - Thermochemistry -
 -------------------
 Temperature   298.150 Kelvin.  Pressure   1.00000 Atm.
 Atom     1 has atomic number  6 and mass  12.00000

 Molecular mass:   257.14158 amu.
 Principal axes and moments of inertia in atomic units:
                           1         2         3
     Eigenvalues --  2843.389586844.946428829.71698
           X            0.99997   0.00518   0.00627
           Y           -0.00520   0.99998   0.00309
           Z           -0.00625  -0.00312   0.99998
 This molecule is an asymmetric top.
 Rotational symmetry number  1.
 Warning -- assumption of classical behavior for rotation
           may cause significant error
 Rotational temperatures (Kelvin)      0.03046     0.01265     0.00981
 Rotational constants (GHZ):           0.63471     0.26366     0.20439
 Zero-point vibrational energy     849245.7 (Joules/Mol)
                                  202.97460 (Kcal/Mol)
 Warning -- explicit consideration of  27 degrees of freedom as
           vibrations may cause significant error
 Vibrational temperatures:     41.98    61.87    89.68    98.24   155.50
          (Kelvin)            174.94   204.91   232.60   243.27   256.69
                              345.90   380.37   420.65   442.16   464.06
                              469.30   479.16   544.84   552.52   606.05
                              664.37   692.17   706.74   761.26   782.62
                              824.82   886.94   918.84   951.61   958.98
                             1037.30  1077.77  1112.32  1154.09  1173.56
                             1190.30  1255.43  1269.36  1296.93  1337.29
                             1359.35  1424.46  1455.56  1468.22  1478.57
                             1491.83  1509.51  1516.10  1520.89  1548.59
                             1566.17  1605.69  1615.59  1632.40  1686.08
                             1689.29  1753.98  1771.76  1779.92  1832.08
                             1863.97  1878.86  1890.58  1936.16  1979.31
                             1984.05  2011.75  2021.34  2030.92  2032.26
                             2062.91  2082.09  2085.39  2087.91  2103.30
                             2133.39  2166.54  2173.71  2177.45  2183.40
                             2185.26  2187.56  2191.01  2208.38  2218.89
                             2318.97  2392.83  2454.36  2582.80  4246.50
                             4319.65  4354.05  4358.21  4365.45  4388.23
                             4397.95  4428.32  4446.01  4447.21  4460.49
                             4474.78  4477.05  4492.55  4497.75  4536.32
                             4603.37  4648.76  4690.16

 Zero-point correction=                           0.323461 (Hartree/Particle)
 Thermal correction to Energy=                    0.340709
 Thermal correction to Enthalpy=                  0.341653
 Thermal correction to Gibbs Free Energy=         0.277937
 Sum of electronic and zero-point Energies=           -826.070538
 Sum of electronic and thermal Energies=              -826.053289
 Sum of electronic and thermal Enthalpies=            -826.052345
 Sum of electronic and thermal Free Energies=         -826.116061

                     E (Thermal)             CV                S
                      KCal/Mol        Cal/Mol-Kelvin    Cal/Mol-Kelvin
 Total                  213.798             66.919            134.102
 Electronic               0.000              0.000              0.000
 Translational            0.889              2.981             42.533
 Rotational               0.889              2.981             33.507
 Vibrational            212.021             60.957             58.061
 Vibration     1          0.593              1.984              5.885
 Vibration     2          0.595              1.980              5.116
 Vibration     3          0.597              1.972              4.382
 Vibration     4          0.598              1.969              4.202
 Vibration     5          0.606              1.943              3.303
 Vibration     6          0.609              1.931              3.075
 Vibration     7          0.616              1.911              2.771
 Vibration     8          0.622              1.889              2.530
 Vibration     9          0.625              1.881              2.446
 Vibration    10          0.629              1.869              2.345
 Vibration    11          0.657              1.779              1.800
 Vibration    12          0.671              1.738              1.633
 Vibration    13          0.688              1.688              1.460
 Vibration    14          0.697              1.660              1.377
 Vibration    15          0.708              1.630              1.297
 Vibration    16          0.710              1.623              1.279
 Vibration    17          0.715              1.610              1.245
 Vibration    18          0.749              1.516              1.044
 Vibration    19          0.753              1.504              1.023
 Vibration    20          0.784              1.424              0.888
 Vibration    21          0.819              1.335              0.761
 Vibration    22          0.837              1.292              0.707
 Vibration    23          0.847              1.270              0.680
 Vibration    24          0.884              1.186              0.589
 Vibration    25          0.899              1.153              0.557
 Vibration    26          0.930              1.089              0.498
 Vibration    27          0.976              0.997              0.422

 Optimization completed.
    -- Stationary point found.
 Normal termination of Gaussian 16 at Sun Dec 13 21:13:10 2020.

 ----------------------------------------------------------------------
 # B3LYP/6-311++G(d,p) empiricaldispersion=gd3bj scf=xqc pop=npa geom=c
 heck
 ----------------------------------------------------------------------

 --------------------------------------
 CID_57283689_JID_9273_Energie_neutraal
 --------------------------------------
 Structure from the checkpoint file:  "JID_9273.chk"
 Charge =  0 Multiplicity = 1

 SCF Done:  E(RB3LYP) =  -826.611839881     A.U. after   16 cycles
 Normal termination of Gaussian 16 at Sun Dec 13 21:23:56 2020.

 ----------------------------------------------------------------------
 # B3LYP/6-311++G(d,p) empiricaldispersion=gd3bj scf=xqc pop=npa geom=c
 heck
 ----------------------------------------------------------------------

 ------------------------------------
 CID_57283689_JID_9273_Energie_kation
 ------------------------------------
 Structure from the checkpoint file:  "JID_9273.chk"
 Charge =  1 Multiplicity = 2

 SCF Done:  E(UB3LYP) =  -826.352904993     A.U. after   25 cycles
 Normal termination of Gaussian 16 at Sun Dec 13 21:48:01 2020.
 Gaussian 16:  ES64L-G16RevA.03 25-Dec-2016

 ----------------------------------------------------------------------
 # B3LYP/6-311++G(d,p) empiricaldispersion=gd3bj scf=xqc pop=npa geom=c
 heck
 ----------------------------------------------------------------------

 -----------------------------------
 CID_57283689_JID_9273_Energie_anion
 -----------------------------------
 Structure from the checkpoint file:  "JID_9273.chk"
 Charge = -1 Multiplicity = 2

                         Standard orientation:
 ---------------------------------------------------------------------
 Center     Atomic      Atomic             Coordinates (Angstroms)
 Number     Number       Type             X           Y           Z
 ---------------------------------------------------------------------
      1          6           0       -4.131818   -1.458189   -0.663578
      2          6           0       -2.816934   -0.880793   -0.232954
      3          6           0       -1.679672   -1.548998    0.187606
      4          6           0       -0.587415   -0.607755    0.497470
      5          6           0       -1.120846    0.630944    0.269548
      6          6           0       -2.511282    0.519137   -0.199189
      7          6           0       -3.209648    1.659613   -0.475967
      8          6           0       -2.561993    2.921099   -0.288963
      9          6           0       -1.280300    2.966198    0.160766
     10          8           0       -0.556736    1.863532    0.446000
     11          6           0        0.764053   -1.040355    1.018487
     12          6           0        1.679329    0.099201    1.522432
     13          6           0        2.353405    0.901505    0.399772
     14          7           0        2.985036    0.014904   -0.570841
     15          6           0        2.131198   -1.020172   -1.130499
     16          6           0        1.551466   -1.889513   -0.013684
     17          6           0        4.319579    0.085634   -0.823469
     18          8           0        5.099196    0.886775   -0.330306
     19          6           0       -1.567762   -3.036540    0.341451
     20          1           0       -4.965968   -0.807629   -0.374309
     21          1           0       -4.312732   -2.437526   -0.208115
     22          1           0       -4.193120   -1.595146   -1.752510
     23          1           0       -4.237595    1.625698   -0.826172
     24          1           0       -3.076199    3.852534   -0.494436
     25          1           0       -0.709384    3.868442    0.338195
     26          1           0        0.573678   -1.694586    1.882142
     27          1           0        1.119472    0.782167    2.169108
     28          1           0        2.469154   -0.354030    2.134244
     29          1           0        1.620299    1.526057   -0.119420
     30          1           0        3.136977    1.548923    0.797045
     31          1           0        2.721835   -1.620062   -1.830604
     32          1           0        1.314105   -0.550699   -1.696675
     33          1           0        2.379790   -2.394414    0.500359
     34          1           0        0.914269   -2.664605   -0.447733
     35          1           0        4.640237   -0.683148   -1.555319
     36          1           0       -0.915440   -3.310962    1.177558
     37          1           0       -2.547952   -3.489802    0.519237
     38          1           0       -1.154519   -3.514089   -0.557634
 ---------------------------------------------------------------------

 SCF Done:  E(UB3LYP) =  -826.629689214     A.U. after   24 cycles

 The electronic state is 2-A.
 Alpha  occ. eigenvalues --  -19.02418 -18.99272 -14.24351 -10.16888 -10.10703
 Alpha  occ. eigenvalues --  -10.08824 -10.06993 -10.06330 -10.06298 -10.05899
 Alpha  occ. eigenvalues --  -10.05771 -10.03970 -10.03707 -10.02452 -10.00795
 Alpha  occ. eigenvalues --  -10.00789 -10.00583  -9.99975  -9.99820  -0.95010
 Alpha  occ. eigenvalues --   -0.93965  -0.84533  -0.71793  -0.69043  -0.66162
 Alpha  occ. eigenvalues --   -0.65356  -0.61840  -0.60479  -0.58371  -0.55596
 Alpha  occ. eigenvalues --   -0.53596  -0.52682  -0.49568  -0.46283  -0.45404
 Alpha  occ. eigenvalues --   -0.42610  -0.41498  -0.39543  -0.37317  -0.35684
 Alpha  occ. eigenvalues --   -0.35464  -0.34750  -0.34299  -0.32934  -0.32166
 Alpha  occ. eigenvalues --   -0.30993  -0.30482  -0.30151  -0.29385  -0.28504
 Alpha  occ. eigenvalues --   -0.28401  -0.27817  -0.27580  -0.26770  -0.26318
 Alpha  occ. eigenvalues --   -0.25447  -0.24796  -0.23352  -0.23124  -0.21920
 Alpha  occ. eigenvalues --   -0.20295  -0.19005  -0.18584  -0.16607  -0.16396
 Alpha  occ. eigenvalues --   -0.16119  -0.14130  -0.07084  -0.03924   0.04088
 Alpha virt. eigenvalues --    0.07327   0.08485   0.08834   0.09137   0.09798
 Alpha virt. eigenvalues --    0.10158   0.10785   0.10943   0.11975   0.12200
 Alpha virt. eigenvalues --    0.12229   0.12588   0.12901   0.13925   0.14139

  Beta  occ. eigenvalues --  -19.01981 -18.99272 -14.24351 -10.16887 -10.10703
  Beta  occ. eigenvalues --  -10.08824 -10.06560 -10.06329 -10.06299 -10.05900
  Beta  occ. eigenvalues --  -10.05571 -10.03995 -10.03706 -10.02620 -10.00647
  Beta  occ. eigenvalues --  -10.00506 -10.00295  -9.99992  -9.99719  -0.94232
  Beta  occ. eigenvalues --   -0.93964  -0.84533  -0.71540  -0.68868  -0.66151
  Beta  occ. eigenvalues --   -0.64846  -0.61504  -0.60386  -0.58332  -0.55119
  Beta  occ. eigenvalues --   -0.53592  -0.52583  -0.49458  -0.46071  -0.44874
  Beta  occ. eigenvalues --   -0.42478  -0.41415  -0.39278  -0.37312  -0.35518
  Beta  occ. eigenvalues --   -0.35437  -0.34622  -0.34074  -0.32852  -0.32054
  Beta  occ. eigenvalues --   -0.30440  -0.30317  -0.29771  -0.28561  -0.28452
  Beta  occ. eigenvalues --   -0.28215  -0.27688  -0.27280  -0.26645  -0.26190
  Beta  occ. eigenvalues --   -0.25358  -0.24727  -0.23327  -0.23022  -0.21853
  Beta  occ. eigenvalues --   -0.20100  -0.18913  -0.17140  -0.16604  -0.16136
  Beta  occ. eigenvalues --   -0.14784  -0.13955  -0.04929  -0.03450
  Beta virt. eigenvalues --    0.07296   0.08447   0.08779   0.09095   0.09770
  Beta virt. eigenvalues --    0.10092   0.10675   0.10797   0.10981   0.11938
  Beta virt. eigenvalues --    0.12170   0.12234   0.12559   0.12902   0.14022

 Mulliken charges and spin densities:
               1          2
     1  C   -0.421674   0.001425
     2  C    0.053740  -0.040504
     3  C   -0.101256   0.173787
     4  C    0.095960  -0.055988
     5  C   -0.858185   0.108338
     6  C    0.545580   0.050075
     7  C   -0.179513   0.442240
     8  C   -0.365356  -0.117217
     9  C    0.011457   0.373024
    10  O   -0.036183   0.076103
    11  C    0.134126   0.019135
    12  C   -0.217403  -0.010943
    13  C   -0.600579  -0.004021
    14  N    0.123490   0.000822
    15  C   -0.631144   0.000204
    16  C   -0.380023  -0.002924
    17  C    0.159777   0.000737
    18  O   -0.392222   0.000058
    19  C   -0.540540  -0.018238
    20  H    0.109695   0.003032
    21  H    0.097990   0.000012
    22  H    0.126035   0.003957
    23  H    0.081670  -0.033465
    24  H    0.115165   0.009267
    25  H    0.122213  -0.024666
    26  H    0.197754  -0.000022
    27  H    0.193486  -0.000534
    28  H    0.140381   0.001281
    29  H    0.271617  -0.000708
    30  H    0.179616   0.000472
    31  H    0.153677   0.001773
    32  H    0.173059  -0.002633
    33  H    0.109567   0.010572
    34  H    0.127322  -0.000151
    35  H    0.057446   0.000057
    36  H    0.111771   0.009212
    37  H    0.108574   0.003784
    38  H    0.122912   0.022644
 Sum of Mulliken charges =  -1.00000   1.00000

 Dipole moment (field-independent basis, Debye):
    X=              2.0645    Y=             -3.5530    Z=             -0.3719  Tot=              4.1261
 Quadrupole moment (field-independent basis, Debye-Ang):
   XX=           -181.4796   YY=           -135.7993   ZZ=           -123.0536
   XY=             -6.9317   XZ=             -1.5185   YZ=              2.0586

 Summary of Natural Population Analysis:

                                       Natural Population
                Natural  -----------------------------------------------
    Atom  No    Charge         Core      Valence    Rydberg      Total
 -----------------------------------------------------------------------
      C    1   -0.28818      0.99966     2.28380    0.00472     3.28818
      C    2   -0.06453      0.99933     2.05569    0.00952     3.06453
      C    3    0.03479      0.99949     1.95618    0.00954     2.96521
      C    4   -0.11238      0.99940     2.10243    0.01056     3.11238
      C    5    0.19894      0.99925     1.78993    0.01188     2.80106
      C    6   -0.03526      0.99940     2.02736    0.00851     3.03526
      C    7    0.01630      0.99954     1.97438    0.00978     2.98370
      C    8   -0.20423      0.99958     2.19519    0.00946     3.20423
      C    9    0.17075      0.99949     1.81563    0.01413     2.82925
      O   10   -0.20747      0.99983     3.19777    0.00986     4.20747
      C   11   -0.10811      0.99957     2.09929    0.00925     3.10811
      C   12   -0.19047      0.99962     2.18376    0.00708     3.19047
      C   13   -0.09414      0.99961     2.08525    0.00928     3.09414
      N   14   -0.24964      0.99966     2.73679    0.01319     3.74964
      C   15   -0.08411      0.99962     2.07600    0.00849     3.08411
      C   16   -0.19044      0.99961     2.18367    0.00716     3.19044
      C   17    0.26953      0.99970     1.70872    0.02205     2.73047
      O   18   -0.32958      0.99988     3.32220    0.00750     4.32958
      C   19   -0.29707      0.99964     2.29306    0.00437     3.29707
      H   20    0.09515      0.00000     0.40356    0.00128     0.40485
      H   21    0.09171      0.00000     0.40717    0.00112     0.40829
      H   22    0.08997      0.00000     0.40861    0.00142     0.41003
      H   23    0.08415      0.00000     0.41422    0.00163     0.41585
      H   24    0.09560      0.00000     0.40331    0.00108     0.40440
      H   25    0.07430      0.00000     0.42462    0.00108     0.42570
      H   26    0.09501      0.00000     0.40306    0.00193     0.40499
      H   27    0.10993      0.00000     0.38907    0.00100     0.39007
      H   28    0.09063      0.00000     0.40827    0.00110     0.40937
      H   29    0.10975      0.00000     0.38907    0.00117     0.39025
      H   30    0.10902      0.00000     0.38976    0.00122     0.39098
      H   31    0.09257      0.00000     0.40611    0.00132     0.40743
      H   32    0.10288      0.00000     0.39590    0.00122     0.39712
      H   33    0.08804      0.00000     0.41054    0.00142     0.41196
      H   34    0.10516      0.00000     0.39380    0.00104     0.39484
      H   35    0.04582      0.00000     0.45235    0.00184     0.45418
      H   36    0.09424      0.00000     0.40454    0.00122     0.40576
      H   37    0.09691      0.00000     0.40210    0.00098     0.40309
      H   38    0.09450      0.00000     0.40414    0.00136     0.40550
 =======================================================================
   * Total *    0.00005     18.99189    49.79732    0.21074    68.99995

 Normal termination of Gaussian 16 at Sun Dec 13 22:10:03 2020.
