 Gaussian 16, Revision A.03,

 -----------------------------------------------------------
 # opt freq B3LYP/6-31G(d) empiricaldispersion=gd3bj scf=xqc
 -----------------------------------------------------------

 -------------------------------
 CID_145861385_JID_5406_neutraal
 -------------------------------
 Symbolic Z-matrix:
 Charge =  0 Multiplicity = 1

 SCF Done:  E(RB3LYP) =  -1069.96910624     A.U. after   15 cycles
 SCF Done:  E(RB3LYP) =  -1069.97640603     A.U. after   13 cycles
 SCF Done:  E(RB3LYP) =  -1069.97710333     A.U. after   12 cycles
 SCF Done:  E(RB3LYP) =  -1069.97759598     A.U. after   13 cycles
 SCF Done:  E(RB3LYP) =  -1069.97871213     A.U. after   12 cycles
 SCF Done:  E(RB3LYP) =  -1069.97933059     A.U. after   12 cycles
 SCF Done:  E(RB3LYP) =  -1069.97972899     A.U. after   13 cycles
 SCF Done:  E(RB3LYP) =  -1069.98000784     A.U. after   12 cycles
 SCF Done:  E(RB3LYP) =  -1069.98027361     A.U. after   12 cycles
 SCF Done:  E(RB3LYP) =  -1069.98043903     A.U. after   11 cycles
 SCF Done:  E(RB3LYP) =  -1069.98242057     A.U. after   11 cycles
 SCF Done:  E(RB3LYP) =  -1069.98242455     A.U. after   10 cycles
 SCF Done:  E(RB3LYP) =  -1069.98242620     A.U. after    9 cycles
 SCF Done:  E(RB3LYP) =  -1069.98242737     A.U. after    9 cycles
 SCF Done:  E(RB3LYP) =  -1069.98242759     A.U. after    8 cycles
 Optimization completed.
    -- Stationary point found.
 Normal termination of Gaussian 16 at Thu Dec 10 16:13:17 2020.

 --------------------------------------------------------------------
 #N Geom=AllCheck Guess=TCheck SCRF=Check GenChk RB3LYP/6-31G(d) Freq
 --------------------------------------------------------------------

 Structure from the checkpoint file:  "JID_5406.chk"
 -------------------------------
 CID_145861385_JID_5406_neutraal
 -------------------------------
 Charge =  0 Multiplicity = 1

 SCF Done:  E(RB3LYP) =  -1069.98242759     A.U. after    1 cycles

  Exact polarizability: 160.410  15.808 142.890   3.119  -4.688 108.571
 Approx polarizability: 215.301  24.294 198.844   6.616 -13.960 171.921

                      1                      2                      3
                      A                      A                      A
 Frequencies --     36.3173                44.4591                57.2847
 Red. masses --      3.6581                 4.5348                 4.1672
 Frc consts  --      0.0028                 0.0053                 0.0081
 IR Inten    --      0.0743                 2.4689                 1.4088

                      4                      5                      6
                      A                      A                      A
 Frequencies --     63.1307                92.6750               104.8801
 Red. masses --      3.5026                 5.1217                 2.8136
 Frc consts  --      0.0082                 0.0259                 0.0182
 IR Inten    --      1.0292                 0.3205                 1.0052

                      7                      8                      9
                      A                      A                      A
 Frequencies --    122.4204               146.3131               159.3025
 Red. masses --      3.8698                 1.3826                 3.1202
 Frc consts  --      0.0342                 0.0174                 0.0467
 IR Inten    --      1.3192                 0.2756                 1.9776

                     10                     11                     12
                      A                      A                      A
 Frequencies --    179.8502               185.8250               210.7274
 Red. masses --      1.1139                 3.7387                 2.7825
 Frc consts  --      0.0212                 0.0761                 0.0728
 IR Inten    --      0.1988                 5.8751                 0.6954

                     13                     14                     15
                      A                      A                      A
 Frequencies --    252.6567               282.5894               293.2600
 Red. masses --      5.5570                 3.0983                 3.1932
 Frc consts  --      0.2090                 0.1458                 0.1618
 IR Inten    --      2.5918                 1.2853                 1.7057

                     16                     17                     18
                      A                      A                      A
 Frequencies --    323.8077               368.1769               384.5215
 Red. masses --      3.6357                 2.1583                 2.7931
 Frc consts  --      0.2246                 0.1724                 0.2433
 IR Inten    --      7.3076                 3.9503                 1.1761

                     19                     20                     21
                      A                      A                      A
 Frequencies --    450.3137               471.9053               493.2223
 Red. masses --      3.9883                 3.4248                 1.9685
 Frc consts  --      0.4765                 0.4494                 0.2821
 IR Inten    --      2.3885                11.9435                 1.4296

                     22                     23                     24
                      A                      A                      A
 Frequencies --    518.4619               639.4289               658.2092
 Red. masses --      5.6883                 9.2876                 2.8563
 Frc consts  --      0.9009                 2.2374                 0.7291
 IR Inten    --      9.4726                 9.2557                 1.1194

                     25                     26                     27
                      A                      A                      A
 Frequencies --    699.8566               718.1667               779.7752
 Red. masses --      6.8694                 6.1516                 9.2102
 Frc consts  --      1.9824                 1.8693                 3.2996
 IR Inten    --     18.4702                 1.2784                29.1314

                     28                     29                     30
                      A                      A                      A
 Frequencies --    790.5073               809.0429               834.7804
 Red. masses --      1.5067                 3.6244                 2.5699
 Frc consts  --      0.5547                 1.3978                 1.0551
 IR Inten    --      0.3462                 0.1697                11.8326

                     31                     32                     33
                      A                      A                      A
 Frequencies --    874.4712               880.4664               900.1647
 Red. masses --      2.9170                 2.4629                 2.2930
 Frc consts  --      1.3142                 1.1249                 1.0947
 IR Inten    --     28.5076                 8.3942                19.9267

                     34                     35                     36
                      A                      A                      A
 Frequencies --    918.5474               936.1271               951.2090
 Red. masses --      4.6601                 3.7155                 1.4364
 Frc consts  --      2.3166                 1.9184                 0.7658
 IR Inten    --     60.9926                21.1840                 9.8899

                     37                     38                     39
                      A                      A                      A
 Frequencies --    995.2232              1009.9431              1042.9971
 Red. masses --      1.1827                 1.3436                 2.7464
 Frc consts  --      0.6902                 0.8074                 1.7603
 IR Inten    --      4.6549                26.7276                10.4235

                     40                     41                     42
                      A                      A                      A
 Frequencies --   1050.4708              1061.8130              1088.3986
 Red. masses --      1.7929                 1.6194                 7.1240
 Frc consts  --      1.1657                 1.0757                 4.9722
 IR Inten    --      3.4402                10.2026               154.1437

                     43                     44                     45
                      A                      A                      A
 Frequencies --   1097.1894              1154.8634              1165.8879
 Red. masses --      1.6513                 1.9885                 1.1349
 Frc consts  --      1.1712                 1.5626                 0.9089
 IR Inten    --      5.4628                28.6674                 4.1665

                     46                     47                     48
                      A                      A                      A
 Frequencies --   1187.8268              1191.9822              1204.6525
 Red. masses --      1.2747                 1.6606                 3.7139
 Frc consts  --      1.0597                 1.3901                 3.1755
 IR Inten    --      0.1439                52.4740               274.2336

                     49                     50                     51
                      A                      A                      A
 Frequencies --   1226.1087              1277.4593              1309.1315
 Red. masses --      1.7640                 1.2902                 1.2814
 Frc consts  --      1.5625                 1.2405                 1.2939
 IR Inten    --     96.1816                 2.5127                70.7093

                     52                     53                     54
                      A                      A                      A
 Frequencies --   1313.1962              1320.5751              1372.0620
 Red. masses --      1.8132                 2.0216                 1.4182
 Frc consts  --      1.8423                 2.0771                 1.5730
 IR Inten    --    319.9407               392.2660                 7.1711

                     55                     56                     57
                      A                      A                      A
 Frequencies --   1377.5864              1384.2321              1393.5192
 Red. masses --      1.3939                 1.3985                 1.2874
 Frc consts  --      1.5585                 1.5788                 1.4729
 IR Inten    --      5.0650                 7.2531                23.1111

                     58                     59                     60
                      A                      A                      A
 Frequencies --   1402.7068              1414.1841              1420.8785
 Red. masses --      1.4810                 1.4316                 1.4409
 Frc consts  --      1.7169                 1.6869                 1.7139
 IR Inten    --      0.3053                 9.6435                 1.4636

                     61                     62                     63
                      A                      A                      A
 Frequencies --   1432.6477              1493.5667              1494.4624
 Red. masses --      1.3925                 1.0581                 1.2089
 Frc consts  --      1.6840                 1.3906                 1.5908
 IR Inten    --      5.7791                 7.3420                23.4887

                     64                     65                     66
                      A                      A                      A
 Frequencies --   1503.8012              1507.3063              1512.7342
 Red. masses --      1.0869                 1.0561                 1.0491
 Frc consts  --      1.4481                 1.4137                 1.4144
 IR Inten    --      7.9607                18.7887                 5.4217

                     67                     68                     69
                      A                      A                      A
 Frequencies --   1514.2157              1518.1737              1522.3763
 Red. masses --      1.0941                 1.0939                 1.0794
 Frc consts  --      1.4781                 1.4855                 1.4739
 IR Inten    --      2.6201                 5.8005                19.6151

                     70                     71                     72
                      A                      A                      A
 Frequencies --   1526.1345              1535.5313              1721.1536
 Red. masses --      1.0512                 1.0990                11.6485
 Frc consts  --      1.4425                 1.5268                20.3310
 IR Inten    --     14.7223                 4.4462               765.8724

                     73                     74                     75
                      A                      A                      A
 Frequencies --   1768.6698              3023.7981              3041.1556
 Red. masses --     11.0540                 1.0677                 1.0691
 Frc consts  --     20.3734                 5.7517                 5.8258
 IR Inten    --    341.7701                24.8501                10.4133

                     76                     77                     78
                      A                      A                      A
 Frequencies --   3046.1228              3050.5215              3052.5498
 Red. masses --      1.0639                 1.0659                 1.0626
 Frc consts  --      5.8163                 5.8443                 5.8336
 IR Inten    --      4.2045                38.0030                18.0367

                     79                     80                     81
                      A                      A                      A
 Frequencies --   3071.0583              3078.3099              3080.3495
 Red. masses --      1.0301                 1.0929                 1.0301
 Frc consts  --      5.7243                 6.1019                 5.7588
 IR Inten    --     40.2857                53.6797                16.6096

                     82                     83                     84
                      A                      A                      A
 Frequencies --   3087.7746              3091.5595              3100.2048
 Red. masses --      1.1007                 1.1004                 1.1025
 Frc consts  --      6.1830                 6.1966                 6.2434
 IR Inten    --     41.8565                36.2939                55.5712

                     85                     86                     87
                      A                      A                      A
 Frequencies --   3119.7123              3143.6880              3149.9576
 Red. masses --      1.0936                 1.1068                 1.0873
 Frc consts  --      6.2710                 6.4447                 6.3565
 IR Inten    --     14.7076                25.4392                 6.2627

                     88                     89                     90
                      A                      A                      A
 Frequencies --   3166.7117              3177.8470              3180.7742
 Red. masses --      1.1050                 1.1067                 1.1078
 Frc consts  --      6.5290                 6.5849                 6.6035
 IR Inten    --      9.1885                20.3001                 4.6091

 - Thermochemistry -
 -------------------
 Temperature   298.150 Kelvin.  Pressure   1.00000 Atm.
 Atom     1 has atomic number  6 and mass  12.00000

 Molecular mass:   231.09292 amu.
 Principal axes and moments of inertia in atomic units:
                           1         2         3
     Eigenvalues --  2896.872514177.870085951.18148
           X            0.99979   0.02001   0.00371
           Y           -0.02005   0.99975   0.00985
           Z           -0.00351  -0.00992   0.99994
 This molecule is an asymmetric top.
 Rotational symmetry number  1.
 Warning -- assumption of classical behavior for rotation
           may cause significant error
 Rotational temperatures (Kelvin)      0.02990     0.02073     0.01455
 Rotational constants (GHZ):           0.62300     0.43198     0.30326
 Zero-point vibrational energy     710633.3 (Joules/Mol)
                                  169.84544 (Kcal/Mol)
 Warning -- explicit consideration of  22 degrees of freedom as
           vibrations may cause significant error
 Vibrational temperatures:     52.25    63.97    82.42    90.83   133.34
          (Kelvin)            150.90   176.14   210.51   229.20   258.76
                              267.36   303.19   363.52   406.58   421.94
                              465.89   529.72   553.24   647.90   678.97
                              709.64   745.95   920.00   947.02  1006.94
                             1033.28  1121.92  1137.36  1164.03  1201.06
                             1258.17  1266.79  1295.14  1321.58  1346.88
                             1368.58  1431.90  1453.08  1500.64  1511.39
                             1527.71  1565.96  1578.61  1661.59  1677.45
                             1709.02  1715.00  1733.23  1764.10  1837.98
                             1883.55  1889.40  1900.01  1974.09  1982.04
                             1991.60  2004.96  2018.18  2034.70  2044.33
                             2061.26  2148.91  2150.20  2163.63  2168.68
                             2176.49  2178.62  2184.31  2190.36  2195.77
                             2209.29  2476.36  2544.72  4350.57  4375.54
                             4382.69  4389.02  4391.94  4418.57  4429.00
                             4431.94  4442.62  4448.06  4460.50  4488.57
                             4523.07  4532.09  4556.19  4572.21  4576.42

 Zero-point correction=                           0.270666 (Hartree/Particle)
 Thermal correction to Energy=                    0.286947
 Thermal correction to Enthalpy=                  0.287892
 Thermal correction to Gibbs Free Energy=         0.225532
 Sum of electronic and zero-point Energies=          -1069.711762
 Sum of electronic and thermal Energies=             -1069.695480
 Sum of electronic and thermal Enthalpies=           -1069.694536
 Sum of electronic and thermal Free Energies=        -1069.756895

                     E (Thermal)             CV                S
                      KCal/Mol        Cal/Mol-Kelvin    Cal/Mol-Kelvin
 Total                  180.062             58.792            131.246
 Electronic               0.000              0.000              0.000
 Translational            0.889              2.981             42.215
 Rotational               0.889              2.981             32.643
 Vibrational            178.285             52.831             56.388
 Vibration     1          0.594              1.982              5.450
 Vibration     2          0.595              1.980              5.050
 Vibration     3          0.596              1.975              4.549
 Vibration     4          0.597              1.972              4.357
 Vibration     5          0.602              1.954              3.603
 Vibration     6          0.605              1.945              3.362
 Vibration     7          0.610              1.930              3.062
 Vibration     8          0.617              1.907              2.720
 Vibration     9          0.621              1.892              2.558
 Vibration    10          0.629              1.867              2.330
 Vibration    11          0.632              1.859              2.269
 Vibration    12          0.643              1.824              2.037
 Vibration    13          0.664              1.758              1.712
 Vibration    14          0.682              1.706              1.518
 Vibration    15          0.688              1.686              1.455
 Vibration    16          0.708              1.628              1.291
 Vibration    17          0.741              1.538              1.087
 Vibration    18          0.753              1.503              1.021
 Vibration    19          0.809              1.360              0.795
 Vibration    20          0.829              1.312              0.732
 Vibration    21          0.849              1.265              0.675
 Vibration    22          0.873              1.209              0.614

                           ! Non-Optimized Parameters !
 Normal termination of Gaussian 16 at Thu Dec 10 16:23:38 2020.

 ----------------------------------------------------------------------
 # B3LYP/6-311++G(d,p) empiricaldispersion=gd3bj scf=xqc pop=npa geom=c
 heck
 ----------------------------------------------------------------------

 ---------------------------------------
 CID_145861385_JID_5406_Energie_neutraal
 ---------------------------------------
 Structure from the checkpoint file:  "JID_5406.chk"
 Charge =  0 Multiplicity = 1

 SCF Done:  E(RB3LYP) =  -1070.20092799     A.U. after   15 cycles
 Normal termination of Gaussian 16 at Thu Dec 10 16:28:16 2020.

 ----------------------------------------------------------------------
 # B3LYP/6-311++G(d,p) empiricaldispersion=gd3bj scf=xqc pop=npa geom=c
 heck
 ----------------------------------------------------------------------

 -------------------------------------
 CID_145861385_JID_5406_Energie_kation
 -------------------------------------
 Structure from the checkpoint file:  "JID_5406.chk"
 Charge =  1 Multiplicity = 2

 SCF Done:  E(UB3LYP) =  -1069.88372102     A.U. after   26 cycles
 Normal termination of Gaussian 16 at Thu Dec 10 16:42:37 2020.
 Gaussian 16:  ES64L-G16RevA.03 25-Dec-2016

 ----------------------------------------------------------------------
 # B3LYP/6-311++G(d,p) empiricaldispersion=gd3bj scf=xqc pop=npa geom=c
 heck
 ----------------------------------------------------------------------

 ------------------------------------
 CID_145861385_JID_5406_Energie_anion
 ------------------------------------
 Structure from the checkpoint file:  "JID_5406.chk"
 Charge = -1 Multiplicity = 2

                         Standard orientation:
 ---------------------------------------------------------------------
 Center     Atomic      Atomic             Coordinates (Angstroms)
 Number     Number       Type             X           Y           Z
 ---------------------------------------------------------------------
      1          6           0       -4.095878   -1.288366   -0.345135
      2          8           0       -3.107689   -0.331823   -0.747009
      3          6           0       -2.345291    0.150076    0.263350
      4          8           0       -2.482723   -0.195786    1.425658
      5          7           0       -1.493540    1.115808   -0.220438
      6          6           0       -0.259499    1.280819    0.056550
      7          8           0        0.651484    0.453633    0.574600
      8          6           0        0.420303   -0.991047    0.716542
      9          6           0        0.250824   -1.639125   -0.660444
     10          6           0        1.519537   -1.515110   -1.514342
     11          6           0        2.744137   -2.076639   -0.779588
     12          6           0        2.930614   -1.405669    0.588043
     13          6           0        1.659449   -1.509533    1.442168
     14         16           0        0.421090    2.871803   -0.348169
     15          6           0        2.199479    2.645929    0.001206
     16          1           0       -4.793319   -0.845565    0.370724
     17          1           0       -3.626339   -2.162537    0.115093
     18          1           0       -4.614876   -1.571256   -1.261574
     19          1           0       -0.468746   -1.121326    1.333156
     20          1           0        0.024828   -2.699776   -0.483766
     21          1           0       -0.613254   -1.220053   -1.183673
     22          1           0        1.689324   -0.457733   -1.757382
     23          1           0        1.372579   -2.034040   -2.468497
     24          1           0        3.646113   -1.949157   -1.390294
     25          1           0        2.611886   -3.159256   -0.636654
     26          1           0        3.180361   -0.347378    0.443822
     27          1           0        3.772855   -1.857786    1.124934
     28          1           0        1.775325   -0.967633    2.387221
     29          1           0        1.467430   -2.560428    1.697027
     30          1           0        2.364296    2.383323    1.046744
     31          1           0        2.633806    1.882913   -0.646996
     32          1           0        2.664444    3.611972   -0.212212
 ---------------------------------------------------------------------

 SCF Done:  E(UB3LYP) =  -1070.19030018     A.U. after   33 cycles
 SCF Done:  E(UB3LYP) =  -1070.19030018     a.u. after    1 cycles

 The electronic state is 2-A.
 Alpha  occ. eigenvalues --  -88.76626 -19.07992 -19.07501 -19.01166 -14.21523
 Alpha  occ. eigenvalues --  -10.22925 -10.21781 -10.13901 -10.13634 -10.09981
 Alpha  occ. eigenvalues --  -10.07654 -10.07498 -10.06934 -10.06574 -10.06552
 Alpha  occ. eigenvalues --   -7.85231  -5.81632  -5.81202  -5.80652  -1.02166
 Alpha  occ. eigenvalues --   -1.00058  -0.92637  -0.83475  -0.74450  -0.70681
 Alpha  occ. eigenvalues --   -0.65840  -0.65256  -0.64817  -0.59123  -0.53863
 Alpha  occ. eigenvalues --   -0.52786  -0.52129  -0.48942  -0.45798  -0.42807
 Alpha  occ. eigenvalues --   -0.40942  -0.39740  -0.39048  -0.38623  -0.36955
 Alpha  occ. eigenvalues --   -0.35174  -0.34565  -0.33832  -0.32829  -0.32216
 Alpha  occ. eigenvalues --   -0.31468  -0.30709  -0.29323  -0.28870  -0.28741
 Alpha  occ. eigenvalues --   -0.27953  -0.27277  -0.25062  -0.24225  -0.23128
 Alpha  occ. eigenvalues --   -0.22414  -0.21963  -0.21581  -0.20670  -0.19277
 Alpha  occ. eigenvalues --   -0.17383  -0.14774   0.04137
 Alpha virt. eigenvalues --    0.05824   0.06304   0.06851   0.07679   0.08139
 Alpha virt. eigenvalues --    0.09165   0.09541   0.09894   0.10392   0.11007
 Alpha virt. eigenvalues --    0.11067   0.11215   0.11783   0.12212   0.13056

  Beta  occ. eigenvalues --  -88.76617 -19.07967 -19.07495 -19.01148 -14.21529
  Beta  occ. eigenvalues --  -10.22896 -10.21738 -10.13897 -10.13611 -10.09905
  Beta  occ. eigenvalues --  -10.07643 -10.07480 -10.06916 -10.06549 -10.06527
  Beta  occ. eigenvalues --   -7.85223  -5.81609  -5.81192  -5.80645  -1.02134
  Beta  occ. eigenvalues --   -1.00007  -0.92608  -0.83448  -0.74415  -0.70607
  Beta  occ. eigenvalues --   -0.65789  -0.65215  -0.64773  -0.59033  -0.53815
  Beta  occ. eigenvalues --   -0.52720  -0.52072  -0.48878  -0.45770  -0.42757
  Beta  occ. eigenvalues --   -0.40888  -0.39676  -0.39010  -0.38578  -0.36893
  Beta  occ. eigenvalues --   -0.35144  -0.34527  -0.33769  -0.32760  -0.32144
  Beta  occ. eigenvalues --   -0.31423  -0.30634  -0.29272  -0.28833  -0.28686
  Beta  occ. eigenvalues --   -0.27915  -0.27235  -0.25018  -0.24140  -0.23090
  Beta  occ. eigenvalues --   -0.22360  -0.21912  -0.21546  -0.20626  -0.19222
  Beta  occ. eigenvalues --   -0.17366  -0.14732
  Beta virt. eigenvalues --    0.06142   0.06675   0.06751   0.07514   0.08293
  Beta virt. eigenvalues --    0.08799   0.09513   0.09828   0.10196   0.10781
  Beta virt. eigenvalues --    0.11263   0.11351   0.11494   0.12153   0.12463

 Mulliken charges and spin densities:
               1          2
     1  C    0.197927  -0.422945
     2  O   -0.040083   0.029639
     3  C   -0.208255   0.189554
     4  O   -0.243860   0.000477
     5  N    0.067451   0.009847
     6  C   -0.097479  -0.166894
     7  O    0.082641   0.014058
     8  C   -0.209915   0.280988
     9  C   -0.301699  -0.077944
    10  C   -0.154892  -0.031989
    11  C    0.727937  -1.324802
    12  C   -0.112926   0.025033
    13  C    0.251884  -0.844555
    14  S   -0.302996   0.333512
    15  C    0.650820  -1.291514
    16  H    0.017579   0.143520
    17  H   -0.036441   0.199966
    18  H   -0.079289   0.226066
    19  H    0.391325  -0.103646
    20  H   -0.323125   0.482876
    21  H    0.313086  -0.095714
    22  H    0.182645  -0.030920
    23  H   -0.216379   0.390187
    24  H   -0.582126   0.758213
    25  H    0.118831   0.008513
    26  H    0.304991  -0.181998
    27  H   -0.517125   0.709114
    28  H   -0.083713   0.281468
    29  H   -0.070310   0.218703
    30  H   -0.144423   0.333201
    31  H   -0.247394   0.443019
    32  H   -0.334685   0.494968
 Sum of Mulliken charges =  -1.00000   1.00000

 Dipole moment (field-independent basis, Debye):
    X=             -4.7461    Y=              0.2790    Z=              0.1991  Tot=              4.7584
 Quadrupole moment (field-independent basis, Debye-Ang):
   XX=           -168.0109   YY=           -150.5520   ZZ=           -134.1790
   XY=              2.3173   XZ=              2.5557   YZ=             -1.3696

 Summary of Natural Population Analysis:

                                       Natural Population
                Natural  -----------------------------------------------
    Atom  No    Charge         Core      Valence    Rydberg      Total
 -----------------------------------------------------------------------
      C    1   -0.10299      0.99960     2.09502    0.00837     3.10299
      O    2   -0.27424      0.99986     3.26652    0.00787     4.27424
      C    3    0.45593      0.99969     1.51820    0.02618     2.54407
      O    4   -0.32401      0.99987     3.31885    0.00529     4.32401
      N    5   -0.31150      0.99952     2.80241    0.00958     3.81150
      C    6    0.26095      0.99954     1.71689    0.02262     2.73905
      O    7   -0.28492      0.99984     3.27224    0.01285     4.28492
      C    8    0.06023      0.99950     1.92786    0.01240     2.93977
      C    9   -0.20759      0.99960     2.19924    0.00875     3.20759
      C   10   -0.19143      0.99963     2.18286    0.00894     3.19143
      C   11   -0.18833      0.99963     2.18054    0.00816     3.18833
      C   12   -0.19253      0.99963     2.18414    0.00876     3.19253
      C   13   -0.19487      0.99960     2.18563    0.00964     3.19487
      S   14    0.13371      4.99953     2.84583    0.02092     7.86629
      C   15   -0.34787      0.99961     2.34137    0.00689     3.34787
      H   16    0.08946      0.00000     0.40917    0.00137     0.41054
      H   17    0.09065      0.00000     0.40781    0.00154     0.40935
      H   18    0.08958      0.00000     0.40915    0.00128     0.41042
      H   19    0.10707      0.00000     0.39090    0.00203     0.39293
      H   20    0.10282      0.00000     0.39579    0.00139     0.39718
      H   21    0.10695      0.00000     0.39136    0.00169     0.39305
      H   22    0.09625      0.00000     0.40179    0.00196     0.40375
      H   23    0.10048      0.00000     0.39852    0.00100     0.39952
      H   24    0.10132      0.00000     0.39722    0.00146     0.39868
      H   25    0.09192      0.00000     0.40658    0.00150     0.40808
      H   26    0.09888      0.00000     0.39901    0.00211     0.40112
      H   27    0.10053      0.00000     0.39807    0.00140     0.39947
      H   28    0.10515      0.00000     0.39377    0.00108     0.39485
      H   29    0.10107      0.00000     0.39776    0.00117     0.39893
      H   30    0.10964      0.00000     0.38866    0.00170     0.39036
      H   31    0.10898      0.00000     0.38899    0.00203     0.39102
      H   32    0.10871      0.00000     0.38979    0.00150     0.39129
 =======================================================================
   * Total *   -0.00000     18.99464    42.80194    0.20342    62.00000

 Normal termination of Gaussian 16 at Thu Dec 10 16:59:35 2020.
