 Gaussian 16, Revision A.03,

 -----------------------------------------------------------
 # opt freq B3LYP/6-31G(d) empiricaldispersion=gd3bj scf=xqc
 -----------------------------------------------------------

 ------------------------------
 CID_21629331_JID_2009_neutraal
 ------------------------------
 Symbolic Z-matrix:
 Charge =  0 Multiplicity = 1

 SCF Done:  E(RB3LYP) =  -501.407018162     A.U. after   14 cycles
 SCF Done:  E(RB3LYP) =  -501.409829655     A.U. after   12 cycles
 SCF Done:  E(RB3LYP) =  -501.406668502     A.U. after   13 cycles
 SCF Done:  E(RB3LYP) =  -501.410673945     A.U. after   12 cycles
 SCF Done:  E(RB3LYP) =  -501.412031729     A.U. after   12 cycles
 SCF Done:  E(RB3LYP) =  -501.412836292     A.U. after   12 cycles
 SCF Done:  E(RB3LYP) =  -501.413191386     A.U. after   12 cycles
 SCF Done:  E(RB3LYP) =  -501.413301068     A.U. after   12 cycles
 SCF Done:  E(RB3LYP) =  -501.413331475     A.U. after   11 cycles
 SCF Done:  E(RB3LYP) =  -501.413352927     A.U. after   10 cycles
 SCF Done:  E(RB3LYP) =  -501.413359274     A.U. after    9 cycles
 SCF Done:  E(RB3LYP) =  -501.413364652     A.U. after   10 cycles
 SCF Done:  E(RB3LYP) =  -501.413364735     A.U. after    8 cycles
 SCF Done:  E(RB3LYP) =  -501.413364875     A.U. after    7 cycles
 SCF Done:  E(RB3LYP) =  -501.413364946     A.U. after    7 cycles
 Optimization completed.
    -- Stationary point found.
 Normal termination of Gaussian 16 at Wed Dec  9 16:48:28 2020.

 --------------------------------------------------------------------
 #N Geom=AllCheck Guess=TCheck SCRF=Check GenChk RB3LYP/6-31G(d) Freq
 --------------------------------------------------------------------

 Structure from the checkpoint file:  "JID_2009.chk"
 ------------------------------
 CID_21629331_JID_2009_neutraal
 ------------------------------
 Charge =  0 Multiplicity = 1

 SCF Done:  E(RB3LYP) =  -501.413364946     A.U. after    1 cycles

  Exact polarizability: 133.530 -14.531 138.321  -2.606   2.367  89.958
 Approx polarizability: 178.305 -28.592 209.180  -4.360   6.997 134.213

                      1                      2                      3
                      A                      A                      A
 Frequencies --     45.6257                61.3532                97.7177
 Red. masses --      2.8181                 2.9007                 1.2365
 Frc consts  --      0.0035                 0.0064                 0.0070
 IR Inten    --      0.6042                 0.4204                 0.5805

                      4                      5                      6
                      A                      A                      A
 Frequencies --    102.2664               148.3648               177.3880
 Red. masses --      2.8297                 1.1804                 3.5808
 Frc consts  --      0.0174                 0.0153                 0.0664
 IR Inten    --      0.3872                 0.3897                 2.1170

                      7                      8                      9
                      A                      A                      A
 Frequencies --    197.6657               217.5666               247.7376
 Red. masses --      2.3349                 2.3513                 2.5770
 Frc consts  --      0.0538                 0.0656                 0.0932
 IR Inten    --      0.2859                 2.1562                 2.1104

                     10                     11                     12
                      A                      A                      A
 Frequencies --    266.1062               300.7182               332.9225
 Red. masses --      2.0005                 2.6575                 2.8622
 Frc consts  --      0.0835                 0.1416                 0.1869
 IR Inten    --      0.0051                 6.5147                 0.9813

                     13                     14                     15
                      A                      A                      A
 Frequencies --    395.3227               402.1657               446.3355
 Red. masses --      2.1947                 2.7755                 3.4885
 Frc consts  --      0.2021                 0.2645                 0.4095
 IR Inten    --      4.6091                 4.6828                20.2245

                     16                     17                     18
                      A                      A                      A
 Frequencies --    468.9210               498.0925               537.3020
 Red. masses --      2.9767                 3.4882                 1.7417
 Frc consts  --      0.3856                 0.5099                 0.2962
 IR Inten    --      0.2100                 0.0730                 0.2062

                     19                     20                     21
                      A                      A                      A
 Frequencies --    639.0176               721.0638               757.6509
 Red. masses --      3.3937                 2.8340                 3.5689
 Frc consts  --      0.8165                 0.8681                 1.2070
 IR Inten    --      4.3984                 9.9558                23.4881

                     22                     23                     24
                      A                      A                      A
 Frequencies --    823.1991               833.3833               856.5032
 Red. masses --      1.1705                 1.4562                 2.9081
 Frc consts  --      0.4673                 0.5959                 1.2569
 IR Inten    --     12.7441                 0.5826                 0.7303

                     25                     26                     27
                      A                      A                      A
 Frequencies --    882.7034               922.4489               946.2811
 Red. masses --      1.3942                 2.3837                 1.6516
 Frc consts  --      0.6401                 1.1950                 0.8713
 IR Inten    --      7.9492                 1.7029                 4.7550

                     28                     29                     30
                      A                      A                      A
 Frequencies --    951.5335               965.4561               990.3305
 Red. masses --      2.6650                 3.3507                 1.2845
 Frc consts  --      1.4216                 1.8402                 0.7422
 IR Inten    --      6.4596                21.3531                 1.0781

                     31                     32                     33
                      A                      A                      A
 Frequencies --   1022.7325              1057.1009              1062.7613
 Red. masses --      1.9791                 2.1535                 1.4985
 Frc consts  --      1.2197                 1.4178                 0.9972
 IR Inten    --     23.8848                 8.9578                 2.7970

                     34                     35                     36
                      A                      A                      A
 Frequencies --   1077.4241              1092.9516              1117.7017
 Red. masses --      2.5093                 1.8037                 1.9763
 Frc consts  --      1.7162                 1.2695                 1.4547
 IR Inten    --     11.3432                 2.2628                34.3564

                     37                     38                     39
                      A                      A                      A
 Frequencies --   1151.8100              1154.2719              1173.0821
 Red. masses --      1.4111                 2.3963                 1.4908
 Frc consts  --      1.1030                 1.8811                 1.2088
 IR Inten    --      5.0040                20.2563                 0.6379

                     40                     41                     42
                      A                      A                      A
 Frequencies --   1180.1125              1188.1507              1241.9083
 Red. masses --      2.1137                 1.2039                 1.9655
 Frc consts  --      1.7344                 1.0013                 1.7861
 IR Inten    --      3.6255                 7.3784                46.9072

                     43                     44                     45
                      A                      A                      A
 Frequencies --   1287.1375              1302.2747              1319.4199
 Red. masses --      2.3021                 1.2543                 1.1790
 Frc consts  --      2.2471                 1.2533                 1.2093
 IR Inten    --     16.2760                 3.6344                12.8474

                     46                     47                     48
                      A                      A                      A
 Frequencies --   1347.6886              1373.4661              1400.3573
 Red. masses --      1.2645                 1.2906                 1.3871
 Frc consts  --      1.3532                 1.4344                 1.6026
 IR Inten    --      7.1169                 0.2680                 0.8470

                     49                     50                     51
                      A                      A                      A
 Frequencies --   1404.3386              1407.0814              1427.9889
 Red. masses --      1.4978                 1.4122                 1.4839
 Frc consts  --      1.7403                 1.6473                 1.7828
 IR Inten    --      3.7775                 3.5430                50.3465

                     52                     53                     54
                      A                      A                      A
 Frequencies --   1433.8658              1446.6124              1455.9236
 Red. masses --      1.3482                 1.2843                 1.1755
 Frc consts  --      1.6331                 1.5835                 1.4681
 IR Inten    --     11.9230                13.4304                 9.1785

                     55                     56                     57
                      A                      A                      A
 Frequencies --   1476.0630              1506.4932              1510.0498
 Red. masses --      1.4484                 1.0915                 1.0664
 Frc consts  --      1.8593                 1.4595                 1.4327
 IR Inten    --     26.3311                 2.2373                14.2560

                     58                     59                     60
                      A                      A                      A
 Frequencies --   1512.3676              1516.1572              1519.4836
 Red. masses --      1.0771                 1.0675                 1.0730
 Frc consts  --      1.4516                 1.4458                 1.4596
 IR Inten    --      0.6391                 9.8749                12.6670

                     61                     62                     63
                      A                      A                      A
 Frequencies --   1522.5255              1526.9583              1532.1423
 Red. masses --      1.0746                 1.0882                 1.0781
 Frc consts  --      1.4677                 1.4949                 1.4911
 IR Inten    --      9.5993                 2.8370                 3.1710

                     64                     65                     66
                      A                      A                      A
 Frequencies --   1541.5976              1697.1103              1735.4109
 Red. masses --      1.0810                 6.2404                 9.4704
 Frc consts  --      1.5136                10.5897                16.8044
 IR Inten    --      0.1469                50.3881                71.7707

                     67                     68                     69
                      A                      A                      A
 Frequencies --   2944.2837              2954.6268              3025.1193
 Red. masses --      1.0746                 1.0721                 1.0670
 Frc consts  --      5.4888                 5.5141                 5.7531
 IR Inten    --     53.5100                67.4744                29.7344

                     70                     71                     72
                      A                      A                      A
 Frequencies --   3025.6532              3035.1698              3044.6298
 Red. masses --      1.0530                 1.0348                 1.0604
 Frc consts  --      5.6795                 5.6168                 5.7917
 IR Inten    --     45.1110                39.5369                24.5633

                     73                     74                     75
                      A                      A                      A
 Frequencies --   3054.3236              3080.8703              3081.7568
 Red. masses --      1.0613                 1.0937                 1.0904
 Frc consts  --      5.8331                 6.1166                 6.1014
 IR Inten    --     25.6432                73.1260                18.3781

                     76                     77                     78
                      A                      A                      A
 Frequencies --   3085.5732              3087.8457              3089.0553
 Red. masses --      1.0874                 1.1036                 1.0993
 Frc consts  --      6.0997                 6.2000                 6.1807
 IR Inten    --     35.1068                28.0944                57.7385

                     79                     80                     81
                      A                      A                      A
 Frequencies --   3098.6093              3119.9581              3120.9520
 Red. masses --      1.1035                 1.0890                 1.0893
 Frc consts  --      6.2423                 6.2454                 6.2511
 IR Inten    --     42.9838                25.6513                12.9287

                     82                     83                     84
                      A                      A                      A
 Frequencies --   3124.7910              3152.5125              3172.7513
 Red. masses --      1.1038                 1.0870                 1.0925
 Frc consts  --      6.3500                 6.3649                 6.4794
 IR Inten    --     24.1076                 5.7529                30.3896

 - Thermochemistry -
 -------------------
 Temperature   298.150 Kelvin.  Pressure   1.00000 Atm.
 Atom     1 has atomic number  6 and mass  12.00000

 Molecular mass:   166.14700 amu.
 Principal axes and moments of inertia in atomic units:
                           1         2         3
     Eigenvalues --  1684.038072180.750753299.86707
           X            0.99647  -0.08394  -0.00106
           Y            0.08394   0.99647   0.00282
           Z            0.00082  -0.00290   1.00000
 This molecule is an asymmetric top.
 Rotational symmetry number  1.
 Warning -- assumption of classical behavior for rotation
           may cause significant error
 Rotational temperatures (Kelvin)      0.05143     0.03972     0.02625
 Rotational constants (GHZ):           1.07167     0.82758     0.54691
 Zero-point vibrational energy     713298.2 (Joules/Mol)
                                  170.48236 (Kcal/Mol)
 Warning -- explicit consideration of  18 degrees of freedom as
           vibrations may cause significant error
 Vibrational temperatures:     65.65    88.27   140.59   147.14   213.46
          (Kelvin)            255.22   284.40   313.03   356.44   382.87
                              432.67   479.00   568.78   578.63   642.18
                              674.67   716.64   773.06   919.40  1037.45
                             1090.09  1184.40  1199.05  1232.32  1270.01
                             1327.20  1361.49  1369.04  1389.08  1424.86
                             1471.48  1520.93  1529.08  1550.17  1572.51
                             1608.12  1657.20  1660.74  1687.80  1697.92
                             1709.48  1786.83  1851.90  1873.68  1898.35
                             1939.02  1976.11  2014.80  2020.53  2024.48
                             2054.56  2063.01  2081.35  2094.75  2123.73
                             2167.51  2172.62  2175.96  2181.41  2186.20
                             2190.57  2196.95  2204.41  2218.02  2441.76
                             2496.87  4236.17  4251.05  4352.47  4353.24
                             4366.93  4380.54  4394.49  4432.69  4433.96
                             4439.45  4442.72  4444.46  4458.21  4488.92
                             4490.35  4495.88  4535.76  4564.88

 Zero-point correction=                           0.271681 (Hartree/Particle)
 Thermal correction to Energy=                    0.284536
 Thermal correction to Enthalpy=                  0.285480
 Thermal correction to Gibbs Free Energy=         0.232473
 Sum of electronic and zero-point Energies=           -501.141684
 Sum of electronic and thermal Energies=              -501.128829
 Sum of electronic and thermal Enthalpies=            -501.127885
 Sum of electronic and thermal Free Energies=         -501.180892

                     E (Thermal)             CV                S
                      KCal/Mol        Cal/Mol-Kelvin    Cal/Mol-Kelvin
 Total                  178.549             48.279            111.563
 Electronic               0.000              0.000              0.000
 Translational            0.889              2.981             41.231
 Rotational               0.889              2.981             30.872
 Vibrational            176.771             42.317             39.459
 Vibration     1          0.595              1.979              4.999
 Vibration     2          0.597              1.973              4.413
 Vibration     3          0.603              1.951              3.499
 Vibration     4          0.604              1.947              3.411
 Vibration     5          0.618              1.904              2.693
 Vibration     6          0.628              1.870              2.356
 Vibration     7          0.637              1.843              2.155
 Vibration     8          0.646              1.814              1.979
 Vibration     9          0.661              1.767              1.747
 Vibration    10          0.672              1.735              1.621
 Vibration    11          0.693              1.672              1.413
 Vibration    12          0.715              1.610              1.246
 Vibration    13          0.762              1.480              0.980
 Vibration    14          0.768              1.465              0.955
 Vibration    15          0.806              1.369              0.807
 Vibration    16          0.826              1.319              0.741
 Vibration    17          0.854              1.254              0.663
 Vibration    18          0.892              1.168              0.571

                           ! Non-Optimized Parameters !
 Normal termination of Gaussian 16 at Wed Dec  9 16:56:02 2020.

 ----------------------------------------------------------------------
 # B3LYP/6-311++G(d,p) empiricaldispersion=gd3bj scf=xqc pop=npa geom=c
 heck
 ----------------------------------------------------------------------

 --------------------------------------
 CID_21629331_JID_2009_Energie_neutraal
 --------------------------------------
 Structure from the checkpoint file:  "JID_2009.chk"
 Charge =  0 Multiplicity = 1

 SCF Done:  E(RB3LYP) =  -501.548748208     A.U. after   14 cycles
 Normal termination of Gaussian 16 at Wed Dec  9 16:58:56 2020.

 ----------------------------------------------------------------------
 # B3LYP/6-311++G(d,p) empiricaldispersion=gd3bj scf=xqc pop=npa geom=c
 heck
 ----------------------------------------------------------------------

 ------------------------------------
 CID_21629331_JID_2009_Energie_kation
 ------------------------------------
 Structure from the checkpoint file:  "JID_2009.chk"
 Charge =  1 Multiplicity = 2

 SCF Done:  E(UB3LYP) =  -501.279806827     A.U. after   21 cycles
 Normal termination of Gaussian 16 at Wed Dec  9 17:04:51 2020.
 Gaussian 16:  ES64L-G16RevA.03 25-Dec-2016

 ----------------------------------------------------------------------
 # B3LYP/6-311++G(d,p) empiricaldispersion=gd3bj scf=xqc pop=npa geom=c
 heck
 ----------------------------------------------------------------------

 -----------------------------------
 CID_21629331_JID_2009_Energie_anion
 -----------------------------------
 Structure from the checkpoint file:  "JID_2009.chk"
 Charge = -1 Multiplicity = 2

                         Standard orientation:
 ---------------------------------------------------------------------
 Center     Atomic      Atomic             Coordinates (Angstroms)
 Number     Number       Type             X           Y           Z
 ---------------------------------------------------------------------
      1          6           0        2.054424   -2.640884   -0.022369
      2          6           0        2.245330   -1.151989   -0.088767
      3          6           0        1.348117   -0.140602   -0.160388
      4          6           0        1.950529    1.225688   -0.301704
      5          7           0        1.590811    2.376387    0.111390
      6          6           0        0.408541    2.590332    0.928969
      7          7           0       -0.054074   -0.217373   -0.084752
      8          6           0       -0.804168    0.347121   -1.210944
      9          6           0       -2.223767    0.744360   -0.797110
     10          6           0       -2.949505   -0.421657   -0.117839
     11          6           0       -2.103590   -0.966580    1.037863
     12          6           0       -0.709656   -1.360516    0.540132
     13          1           0        1.092134   -2.969309   -0.415111
     14          1           0        2.148981   -3.028442    1.002701
     15          1           0        2.836499   -3.133134   -0.612771
     16          1           0        3.286418   -0.834037   -0.060098
     17          1           0        2.896884    1.209755   -0.853296
     18          1           0       -0.363247    3.076543    0.317667
     19          1           0       -0.020977    1.688938    1.375733
     20          1           0        0.674989    3.303647    1.717507
     21          1           0       -0.854045   -0.387662   -2.036678
     22          1           0       -0.258992    1.215577   -1.588427
     23          1           0       -2.774233    1.083255   -1.683104
     24          1           0       -2.169511    1.591609   -0.103558
     25          1           0       -3.937593   -0.106586    0.237571
     26          1           0       -3.116398   -1.224830   -0.850694
     27          1           0       -2.002708   -0.202551    1.819339
     28          1           0       -2.584111   -1.841542    1.492713
     29          1           0       -0.085189   -1.700785    1.369681
     30          1           0       -0.823593   -2.205189   -0.162700
 ---------------------------------------------------------------------

 SCF Done:  E(UB3LYP) =  -501.535667738     A.U. after   33 cycles
 SCF Done:  E(UB3LYP) =  -501.535667738     a.u. after    1 cycles

 The electronic state is 2-A.
 Alpha  occ. eigenvalues --  -14.20770 -14.18157 -10.09078 -10.08886 -10.08752
 Alpha  occ. eigenvalues --  -10.08645 -10.07449 -10.05884 -10.05820 -10.05763
 Alpha  occ. eigenvalues --  -10.05680 -10.05191  -0.83521  -0.79206  -0.70173
 Alpha  occ. eigenvalues --   -0.66326  -0.65017  -0.61204  -0.57928  -0.53196
 Alpha  occ. eigenvalues --   -0.52317  -0.46931  -0.45192  -0.43398  -0.37516
 Alpha  occ. eigenvalues --   -0.36864  -0.35272  -0.34893  -0.34628  -0.32280
 Alpha  occ. eigenvalues --   -0.31496  -0.31167  -0.30321  -0.30145  -0.28025
 Alpha  occ. eigenvalues --   -0.27924  -0.26649  -0.25626  -0.24152  -0.22813
 Alpha  occ. eigenvalues --   -0.21931  -0.21434  -0.20324  -0.15914  -0.12866
 Alpha  occ. eigenvalues --   -0.09037   0.04733
 Alpha virt. eigenvalues --    0.07057   0.07293   0.08006   0.08302   0.09396
 Alpha virt. eigenvalues --    0.09806   0.10050   0.10586   0.11149   0.11728
 Alpha virt. eigenvalues --    0.12160   0.12715   0.13137   0.13816   0.14077

  Beta  occ. eigenvalues --  -14.20780 -14.18007 -10.09073 -10.08827 -10.08731
  Beta  occ. eigenvalues --  -10.08624 -10.07454 -10.05866 -10.05802 -10.05736
  Beta  occ. eigenvalues --  -10.05654 -10.05062  -0.83483  -0.78980  -0.70088
  Beta  occ. eigenvalues --   -0.66185  -0.64967  -0.61093  -0.57876  -0.53115
  Beta  occ. eigenvalues --   -0.52262  -0.46777  -0.45032  -0.43322  -0.37428
  Beta  occ. eigenvalues --   -0.36794  -0.35215  -0.34843  -0.34560  -0.32171
  Beta  occ. eigenvalues --   -0.31374  -0.31106  -0.30209  -0.30079  -0.27958
  Beta  occ. eigenvalues --   -0.27854  -0.26596  -0.25552  -0.24103  -0.22765
  Beta  occ. eigenvalues --   -0.21836  -0.21389  -0.19955  -0.15605  -0.12644
  Beta  occ. eigenvalues --   -0.08756
  Beta virt. eigenvalues --    0.07101   0.07862   0.08098   0.08608   0.08955
  Beta virt. eigenvalues --    0.09859   0.10044   0.10441   0.10818   0.11347
  Beta virt. eigenvalues --    0.12156   0.12487   0.12991   0.13543   0.13931

 Mulliken charges and spin densities:
               1          2
     1  C    0.911795  -1.643630
     2  C   -0.592442   0.375196
     3  C    0.017551   0.479325
     4  C   -0.609242   0.098471
     5  N   -0.111940   0.088392
     6  C   -0.183106  -0.287720
     7  N    0.157809   0.054814
     8  C   -0.129908  -0.181440
     9  C    0.120659  -0.360077
    10  C    0.480005  -0.849330
    11  C    0.585855  -0.916430
    12  C   -0.255150   0.024751
    13  H   -0.502404   0.660221
    14  H   -0.029479   0.179525
    15  H   -0.236472   0.380574
    16  H    0.050602   0.112249
    17  H    0.103717   0.062922
    18  H   -0.073844   0.229624
    19  H    0.143753   0.013881
    20  H    0.167341  -0.022674
    21  H   -0.301150   0.465038
    22  H    0.176638  -0.007888
    23  H   -0.323961   0.486292
    24  H    0.195667  -0.093467
    25  H   -0.580548   0.752867
    26  H   -0.011021   0.142230
    27  H    0.095718   0.018297
    28  H   -0.535889   0.709927
    29  H    0.094435   0.075316
    30  H    0.175010  -0.047257
 Sum of Mulliken charges =  -1.00000   1.00000

 Dipole moment (field-independent basis, Debye):
    X=              2.3462    Y=              3.0296    Z=              1.4097  Tot=              4.0829
 Quadrupole moment (field-independent basis, Debye-Ang):
   XX=           -134.6253   YY=           -127.3615   ZZ=           -103.5499
   XY=             -4.5312   XZ=              0.8091   YZ=              0.2173

 Summary of Natural Population Analysis:

                                       Natural Population
                Natural  -----------------------------------------------
    Atom  No    Charge         Core      Valence    Rydberg      Total
 -----------------------------------------------------------------------
      C    1   -0.30515      0.99965     2.29966    0.00584     3.30515
      C    2   -0.08086      0.99952     2.07141    0.00993     3.08086
      C    3    0.05024      0.99941     1.93721    0.01315     2.94976
      C    4    0.06376      0.99958     1.92088    0.01578     2.93624
      N    5   -0.21842      0.99968     2.70598    0.01276     3.71842
      C    6   -0.19964      0.99963     2.19231    0.00771     3.19964
      N    7   -0.28057      0.99965     2.76789    0.01302     3.78057
      C    8   -0.07994      0.99960     2.06983    0.01051     3.07994
      C    9   -0.19451      0.99962     2.18559    0.00930     3.19451
      C   10   -0.19006      0.99963     2.18170    0.00873     3.19006
      C   11   -0.19167      0.99963     2.18252    0.00953     3.19167
      C   12   -0.08029      0.99961     2.06917    0.01152     3.08029
      H   13    0.10563      0.00000     0.39259    0.00178     0.39437
      H   14    0.10026      0.00000     0.39873    0.00102     0.39974
      H   15    0.10266      0.00000     0.39593    0.00141     0.39734
      H   16    0.09008      0.00000     0.40876    0.00116     0.40992
      H   17    0.07727      0.00000     0.42054    0.00219     0.42273
      H   18    0.09467      0.00000     0.40389    0.00144     0.40533
      H   19    0.09361      0.00000     0.40484    0.00155     0.40639
      H   20    0.08935      0.00000     0.40944    0.00121     0.41065
      H   21    0.08438      0.00000     0.41410    0.00152     0.41562
      H   22    0.10254      0.00000     0.39627    0.00119     0.39746
      H   23    0.09899      0.00000     0.39991    0.00110     0.40101
      H   24    0.09501      0.00000     0.40344    0.00155     0.40499
      H   25    0.09955      0.00000     0.39878    0.00166     0.40045
      H   26    0.09484      0.00000     0.40327    0.00190     0.40516
      H   27    0.09298      0.00000     0.40551    0.00151     0.40702
      H   28    0.10110      0.00000     0.39733    0.00157     0.39890
      H   29    0.10066      0.00000     0.39797    0.00137     0.39934
      H   30    0.08355      0.00000     0.41433    0.00213     0.41645
 =======================================================================
   * Total *   -0.00000     11.99520    33.84978    0.15503    46.00000

 Normal termination of Gaussian 16 at Wed Dec  9 17:14:24 2020.
