 Gaussian 16, Revision A.03,

 -----------------------------------------------------------
 # opt freq B3LYP/6-31G(d) empiricaldispersion=gd3bj scf=xqc
 -----------------------------------------------------------

 -------------------------------
 CID_108871066_JID_8444_neutraal
 -------------------------------
 Symbolic Z-matrix:
 Charge =  0 Multiplicity = 1

 SCF Done:  E(RB3LYP) =  -878.558697302     A.U. after   15 cycles
 SCF Done:  E(RB3LYP) =  -878.564222992     A.U. after   13 cycles
 SCF Done:  E(RB3LYP) =  -878.560829449     A.U. after   13 cycles
 SCF Done:  E(RB3LYP) =  -878.565281550     A.U. after   12 cycles
 SCF Done:  E(RB3LYP) =  -878.567658433     A.U. after   12 cycles
 SCF Done:  E(RB3LYP) =  -878.568845533     A.U. after   12 cycles
 SCF Done:  E(RB3LYP) =  -878.568262850     A.U. after   13 cycles
 SCF Done:  E(RB3LYP) =  -878.569064417     A.U. after   12 cycles
 SCF Done:  E(RB3LYP) =  -878.569672032     A.U. after   12 cycles
 SCF Done:  E(RB3LYP) =  -878.569732673     A.U. after   12 cycles
 SCF Done:  E(RB3LYP) =  -878.570359139     A.U. after   10 cycles
 SCF Done:  E(RB3LYP) =  -878.570360027     A.U. after    8 cycles
 SCF Done:  E(RB3LYP) =  -878.570360605     A.U. after    8 cycles
 SCF Done:  E(RB3LYP) =  -878.570360898     A.U. after    8 cycles
 SCF Done:  E(RB3LYP) =  -878.570360993     A.U. after    7 cycles
 Optimization completed.
    -- Stationary point found.
 Normal termination of Gaussian 16 at Fri Dec 11 20:52:33 2020.

 --------------------------------------------------------------------
 #N Geom=AllCheck Guess=TCheck SCRF=Check GenChk RB3LYP/6-31G(d) Freq
 --------------------------------------------------------------------

 Structure from the checkpoint file:  "JID_8444.chk"
 -------------------------------
 CID_108871066_JID_8444_neutraal
 -------------------------------
 Charge =  0 Multiplicity = 1

 SCF Done:  E(RB3LYP) =  -878.570360993     A.U. after    1 cycles

  Exact polarizability: 205.421  -4.914 147.784   8.250  -1.154  94.775
 Approx polarizability: 266.277 -13.213 255.067  14.815   0.421 142.375

                      1                      2                      3
                      A                      A                      A
 Frequencies --     17.2414                30.0315                56.0411
 Red. masses --      5.3590                 5.6012                 4.8092
 Frc consts  --      0.0009                 0.0030                 0.0089
 IR Inten    --      0.1913                 1.1221                 2.1231

                      4                      5                      6
                      A                      A                      A
 Frequencies --     61.9737                77.6424               105.3701
 Red. masses --      4.2348                 5.6678                 4.5798
 Frc consts  --      0.0096                 0.0201                 0.0300
 IR Inten    --      1.1788                 2.8671                 0.9653

                      7                      8                      9
                      A                      A                      A
 Frequencies --    118.3587               150.4201               184.5156
 Red. masses --      4.4467                 3.2192                 1.7144
 Frc consts  --      0.0367                 0.0429                 0.0344
 IR Inten    --      1.7329                 0.0872                 2.0243

                     10                     11                     12
                      A                      A                      A
 Frequencies --    200.6862               219.7954               230.8852
 Red. masses --      4.4821                 4.2027                 1.6502
 Frc consts  --      0.1064                 0.1196                 0.0518
 IR Inten    --      0.5150                 3.8617                 2.8058

                     13                     14                     15
                      A                      A                      A
 Frequencies --    258.7070               282.0888               307.2117
 Red. masses --      1.3577                 3.0455                 4.8355
 Frc consts  --      0.0535                 0.1428                 0.2689
 IR Inten    --      1.1022                 2.2151                 0.9056

                     16                     17                     18
                      A                      A                      A
 Frequencies --    342.1258               364.6065               378.6795
 Red. masses --      1.0877                 5.1537                 1.9648
 Frc consts  --      0.0750                 0.4037                 0.1660
 IR Inten    --    117.8553                 1.5881                 0.7576

                     19                     20                     21
                      A                      A                      A
 Frequencies --    400.7467               420.9243               432.0872
 Red. masses --      4.6503                 3.7235                 3.2371
 Frc consts  --      0.4400                 0.3887                 0.3561
 IR Inten    --     11.2931                 2.1061                 0.5837

                     22                     23                     24
                      A                      A                      A
 Frequencies --    433.3878               454.4309               459.6410
 Red. masses --      3.1771                 3.3235                 6.4322
 Frc consts  --      0.3516                 0.4044                 0.8007
 IR Inten    --      3.6359                24.7134                 2.7013

                     25                     26                     27
                      A                      A                      A
 Frequencies --    521.4018               532.4437               541.9215
 Red. masses --      3.9331                 2.3642                 2.6841
 Frc consts  --      0.6300                 0.3949                 0.4644
 IR Inten    --     37.3977                 5.9165                24.8425

                     28                     29                     30
                      A                      A                      A
 Frequencies --    608.3008               625.1842               654.3043
 Red. masses --      1.4732                 3.1946                 1.8722
 Frc consts  --      0.3212                 0.7357                 0.4722
 IR Inten    --     25.9356                18.1949                74.1056

                     31                     32                     33
                      A                      A                      A
 Frequencies --    672.0867               705.2743               714.2390
 Red. masses --      3.0075                 3.5942                 2.0210
 Frc consts  --      0.8004                 1.0533                 0.6074
 IR Inten    --      7.4925                10.1573               140.4882

                     34                     35                     36
                      A                      A                      A
 Frequencies --    715.8332               760.7852               791.6366
 Red. masses --      3.5253                 3.5217                 2.9534
 Frc consts  --      1.0643                 1.2010                 1.0905
 IR Inten    --     45.8714                20.3320                 1.3893

                     37                     38                     39
                      A                      A                      A
 Frequencies --    808.0567               819.4299               847.8081
 Red. masses --      3.1010                 1.3545                 1.6733
 Frc consts  --      1.1930                 0.5359                 0.7086
 IR Inten    --    145.4002                 5.2451                33.9953

                     40                     41                     42
                      A                      A                      A
 Frequencies --    858.1191               875.5054               900.7760
 Red. masses --      4.8016                 2.2304                 2.1182
 Frc consts  --      2.0832                 1.0073                 1.0126
 IR Inten    --      9.1076                 5.7168                17.5053

                     43                     44                     45
                      A                      A                      A
 Frequencies --    951.5009               955.0048               963.1745
 Red. masses --      1.3240                 1.9947                 1.2750
 Frc consts  --      0.7062                 1.0719                 0.6969
 IR Inten    --      1.3467                 5.1408                 1.7528

                     46                     47                     48
                      A                      A                      A
 Frequencies --    976.4484               977.4692              1032.1929
 Red. masses --      2.4666                 2.4872                 2.5793
 Frc consts  --      1.3856                 1.4001                 1.6191
 IR Inten    --     55.0244                17.5720                 2.7109

                     49                     50                     51
                      A                      A                      A
 Frequencies --   1048.1211              1116.6932              1137.5204
 Red. masses --      1.5109                 2.2898                 1.3226
 Frc consts  --      0.9779                 1.6823                 1.0083
 IR Inten    --     13.5284                28.7550                17.0078

                     52                     53                     54
                      A                      A                      A
 Frequencies --   1142.1521              1146.5682              1154.1285
 Red. masses --      2.5719                 2.3039                 2.8303
 Frc consts  --      1.9767                 1.7845                 2.2212
 IR Inten    --     19.2797               155.3881                90.0288

                     55                     56                     57
                      A                      A                      A
 Frequencies --   1156.7795              1189.2261              1211.2154
 Red. masses --      2.2273                 2.4532                 1.4207
 Frc consts  --      1.7561                 2.0442                 1.2280
 IR Inten    --     38.2036                15.3196               191.6132

                     58                     59                     60
                      A                      A                      A
 Frequencies --   1215.9866              1250.4361              1300.8660
 Red. masses --      1.1513                 3.6949                 1.2852
 Frc consts  --      1.0030                 3.4039                 1.2814
 IR Inten    --      2.1755               337.6983                41.8718

                     61                     62                     63
                      A                      A                      A
 Frequencies --   1314.7949              1340.9676              1343.0921
 Red. masses --      3.9904                 1.8697                 1.5364
 Frc consts  --      4.0643                 1.9809                 1.6329
 IR Inten    --     21.5105                 0.8715                 2.4126

                     64                     65                     66
                      A                      A                      A
 Frequencies --   1357.2255              1384.0348              1386.4402
 Red. masses --      1.6701                 1.3510                 2.0414
 Frc consts  --      1.8126                 1.5248                 2.3119
 IR Inten    --    193.9358                33.2341                51.6487

                     67                     68                     69
                      A                      A                      A
 Frequencies --   1402.9845              1410.6604              1438.6229
 Red. masses --      1.2339                 1.2613                 1.2602
 Frc consts  --      1.4310                 1.4788                 1.5367
 IR Inten    --     27.8168                65.5488                 9.2876

                     70                     71                     72
                      A                      A                      A
 Frequencies --   1439.9907              1450.2885              1474.7147
 Red. masses --      1.3055                 1.6593                 1.3002
 Frc consts  --      1.5950                 2.0563                 1.6660
 IR Inten    --     48.5544               126.2858                10.0898

                     73                     74                     75
                      A                      A                      A
 Frequencies --   1484.0866              1487.6028              1492.1092
 Red. masses --      1.3125                 1.2811                 2.7823
 Frc consts  --      1.7032                 1.6703                 3.6497
 IR Inten    --     46.2364                19.6152                19.0590

                     76                     77                     78
                      A                      A                      A
 Frequencies --   1515.6498              1520.8031              1525.8869
 Red. masses --      1.0668                 1.1267                 1.0686
 Frc consts  --      1.4438                 1.5353                 1.4659
 IR Inten    --      3.7061                46.4135                 4.0610

                     79                     80                     81
                      A                      A                      A
 Frequencies --   1528.0954              1533.0877              1565.8328
 Red. masses --      1.0809                 1.0924                 2.4858
 Frc consts  --      1.4871                 1.5127                 3.5910
 IR Inten    --      1.6127                23.4639               180.6333

                     82                     83                     84
                      A                      A                      A
 Frequencies --   1656.3099              1679.7053              1791.7460
 Red. masses --      6.1256                 6.0355                 6.4288
 Frc consts  --      9.9011                10.0330                12.1599
 IR Inten    --      8.9678                12.6789               362.5724

                     85                     86                     87
                      A                      A                      A
 Frequencies --   3049.2008              3049.5107              3073.1709
 Red. masses --      1.0569                 1.0639                 1.0627
 Frc consts  --      5.7898                 5.8293                 5.9133
 IR Inten    --     22.7924                25.7994                40.4478

                     88                     89                     90
                      A                      A                      A
 Frequencies --   3088.6209              3095.8415              3112.3289
 Red. masses --      1.0383                 1.0877                 1.1032
 Frc consts  --      5.8359                 6.1423                 6.2960
 IR Inten    --      7.2856                19.1059                 8.0622

                     91                     92                     93
                      A                      A                      A
 Frequencies --   3116.8445              3142.1558              3162.6616
 Red. masses --      1.1020                 1.1017                 1.1002
 Frc consts  --      6.3074                 6.4089                 6.4836
 IR Inten    --     58.8151                23.6468                 9.4911

                     94                     95                     96
                      A                      A                      A
 Frequencies --   3174.1305              3180.7450              3211.0641
 Red. masses --      1.0899                 1.1014                 1.0879
 Frc consts  --      6.4698                 6.5654                 6.6088
 IR Inten    --     19.4811                15.3168                 5.1157

                     97                     98                     99
                      A                      A                      A
 Frequencies --   3225.2664              3226.8446              3580.8418
 Red. masses --      1.0950                 1.0929                 1.0699
 Frc consts  --      6.7110                 6.7046                 8.0828
 IR Inten    --      5.2376                 2.3682               269.1733

                    100                    101                    102
                      A                      A                      A
 Frequencies --   3587.3999              3616.4446              3754.3625
 Red. masses --      1.0711                 1.0762                 1.0660
 Frc consts  --      8.1219                 8.2932                 8.8524
 IR Inten    --     56.7098                34.4650                42.9777

 - Thermochemistry -
 -------------------
 Temperature   298.150 Kelvin.  Pressure   1.00000 Atm.
 Atom     1 has atomic number  6 and mass  12.00000

 Molecular mass:   254.12666 amu.
 Principal axes and moments of inertia in atomic units:
                           1         2         3
     Eigenvalues --  1691.154839689.50266**********
           X            1.00000   0.00077  -0.00046
           Y           -0.00078   0.99971  -0.02424
           Z            0.00044   0.02424   0.99971
 This molecule is an asymmetric top.
 Rotational symmetry number  1.
 Warning -- assumption of classical behavior for rotation
           may cause significant error
 Rotational temperatures (Kelvin)      0.05122     0.00894     0.00833
 Rotational constants (GHZ):           1.06716     0.18626     0.17352
 Zero-point vibrational energy     794549.8 (Joules/Mol)
                                  189.90196 (Kcal/Mol)
 Warning -- explicit consideration of  28 degrees of freedom as
           vibrations may cause significant error
 Vibrational temperatures:     24.81    43.21    80.63    89.17   111.71
          (Kelvin)            151.60   170.29   216.42   265.48   288.74
                              316.24   332.19   372.22   405.86   442.01
                              492.24   524.59   544.84   576.59   605.62
                              621.68   623.55   653.82   661.32   750.18
                              766.07   779.70   875.21   899.50   941.40
                              966.98  1014.73  1027.63  1029.92  1094.60
                             1138.99  1162.61  1178.98  1219.81  1234.64
                             1259.66  1296.02  1369.00  1374.04  1385.79
                             1404.89  1406.36  1485.10  1508.01  1606.67
                             1636.64  1643.30  1649.66  1660.53  1664.35
                             1711.03  1742.67  1749.53  1799.10  1871.66
                             1891.70  1929.35  1932.41  1952.74  1991.32
                             1994.78  2018.58  2029.63  2069.86  2071.83
                             2086.64  2121.79  2135.27  2140.33  2146.81
                             2180.68  2188.10  2195.41  2198.59  2205.77
                             2252.88  2383.06  2416.72  2577.92  4387.12
                             4387.57  4421.61  4443.84  4454.23  4477.95
                             4484.44  4520.86  4550.36  4566.87  4576.38
                             4620.01  4640.44  4642.71  5152.03  5161.47
                             5203.26  5401.69

 Zero-point correction=                           0.302628 (Hartree/Particle)
 Thermal correction to Energy=                    0.320623
 Thermal correction to Enthalpy=                  0.321567
 Thermal correction to Gibbs Free Energy=         0.255389
 Sum of electronic and zero-point Energies=           -878.267733
 Sum of electronic and thermal Energies=              -878.249738
 Sum of electronic and thermal Enthalpies=            -878.248794
 Sum of electronic and thermal Free Energies=         -878.314972

                     E (Thermal)             CV                S
                      KCal/Mol        Cal/Mol-Kelvin    Cal/Mol-Kelvin
 Total                  201.194             68.853            139.282
 Electronic               0.000              0.000              0.000
 Translational            0.889              2.981             42.498
 Rotational               0.889              2.981             33.499
 Vibrational            199.416             62.891             63.285
 Vibration     1          0.593              1.986              6.929
 Vibration     2          0.594              1.984              5.827
 Vibration     3          0.596              1.975              4.592
 Vibration     4          0.597              1.972              4.393
 Vibration     5          0.599              1.964              3.950
 Vibration     6          0.605              1.945              3.352
 Vibration     7          0.609              1.934              3.127
 Vibration     8          0.618              1.902              2.667
 Vibration     9          0.631              1.861              2.282
 Vibration    10          0.638              1.839              2.127
 Vibration    11          0.647              1.811              1.961
 Vibration    12          0.653              1.794              1.872
 Vibration    13          0.668              1.748              1.670
 Vibration    14          0.681              1.707              1.521
 Vibration    15          0.697              1.660              1.377
 Vibration    16          0.721              1.591              1.202
 Vibration    17          0.738              1.545              1.102
 Vibration    18          0.749              1.516              1.044
 Vibration    19          0.767              1.469              0.960
 Vibration    20          0.783              1.425              0.889
 Vibration    21          0.793              1.400              0.852
 Vibration    22          0.794              1.397              0.848
 Vibration    23          0.813              1.351              0.782
 Vibration    24          0.818              1.340              0.767
 Vibration    25          0.876              1.203              0.607
 Vibration    26          0.887              1.178              0.582
 Vibration    27          0.897              1.157              0.561
 Vibration    28          0.967              1.014              0.436

 Optimization completed.
    -- Stationary point found.
 Normal termination of Gaussian 16 at Fri Dec 11 21:07:17 2020.

 ----------------------------------------------------------------------
 # B3LYP/6-311++G(d,p) empiricaldispersion=gd3bj scf=xqc pop=npa geom=c
 heck
 ----------------------------------------------------------------------

 ---------------------------------------
 CID_108871066_JID_8444_Energie_neutraal
 ---------------------------------------
 Structure from the checkpoint file:  "JID_8444.chk"
 Charge =  0 Multiplicity = 1

 SCF Done:  E(RB3LYP) =  -878.842876034     A.U. after   15 cycles
 Normal termination of Gaussian 16 at Fri Dec 11 21:12:57 2020.

 ----------------------------------------------------------------------
 # B3LYP/6-311++G(d,p) empiricaldispersion=gd3bj scf=xqc pop=npa geom=c
 heck
 ----------------------------------------------------------------------

 -------------------------------------
 CID_108871066_JID_8444_Energie_kation
 -------------------------------------
 Structure from the checkpoint file:  "JID_8444.chk"
 Charge =  1 Multiplicity = 2

 SCF Done:  E(UB3LYP) =  -878.551835933     A.U. after   26 cycles
 Normal termination of Gaussian 16 at Fri Dec 11 21:26:51 2020.
 Gaussian 16:  ES64L-G16RevA.03 25-Dec-2016

 ----------------------------------------------------------------------
 # B3LYP/6-311++G(d,p) empiricaldispersion=gd3bj scf=xqc pop=npa geom=c
 heck
 ----------------------------------------------------------------------

 ------------------------------------
 CID_108871066_JID_8444_Energie_anion
 ------------------------------------
 Structure from the checkpoint file:  "JID_8444.chk"
 Charge = -1 Multiplicity = 2

                         Standard orientation:
 ---------------------------------------------------------------------
 Center     Atomic      Atomic             Coordinates (Angstroms)
 Number     Number       Type             X           Y           Z
 ---------------------------------------------------------------------
      1          6           0        4.815502    0.580370   -1.045923
      2          6           0        4.244115   -0.577293   -0.226258
      3          6           0        3.533036   -0.103632    1.060265
      4          7           0        2.639097    1.052287    0.932680
      5          6           0        1.599129    1.214382    0.051114
      6          8           0        1.212281    2.321169   -0.309630
      7          7           0        1.023667    0.035380   -0.457501
      8          6           0        0.415507   -1.036189    0.386213
      9          6           0        0.157157   -0.649506    1.839078
     10          8           0       -0.749941   -1.488247   -0.280887
     11          6           0       -1.941338   -0.779807   -0.196466
     12          6           0       -3.098137   -1.564552   -0.234735
     13          6           0       -4.356457   -0.976596   -0.219861
     14          6           0       -4.473743    0.415691   -0.154832
     15          6           0       -3.321226    1.200529   -0.114016
     16          6           0       -2.053740    0.612973   -0.142399
     17          8           0       -5.736861    0.944214   -0.133656
     18          8           0        3.419239   -1.426705   -1.011926
     19          1           0        4.018047    1.240454   -1.404912
     20          1           0        5.348830    0.185908   -1.915087
     21          1           0        5.513038    1.185592   -0.453454
     22          1           0        5.069546   -1.220447    0.104907
     23          1           0        2.995041   -0.959262    1.481820
     24          1           0        4.284416    0.189962    1.799882
     25          1           0        3.028398    1.949589    1.189145
     26          1           0        0.382663    0.291283   -1.200028
     27          1           0        1.080785   -1.902825    0.347883
     28          1           0       -0.482068    0.231351    1.920548
     29          1           0       -0.341678   -1.489736    2.330590
     30          1           0        1.091652   -0.442428    2.361790
     31          1           0       -2.988941   -2.643121   -0.279805
     32          1           0       -5.256962   -1.580901   -0.250998
     33          1           0       -3.400640    2.284684   -0.066751
     34          1           0       -1.185803    1.261719   -0.120835
     35          1           0       -5.670349    1.910795   -0.099243
     36          1           0        2.598102   -0.927950   -1.195970
 ---------------------------------------------------------------------

 SCF Done:  E(UB3LYP) =  -878.836615459     A.U. after   33 cycles
 SCF Done:  E(UB3LYP) =  -878.836615460     a.u. after    1 cycles

 The electronic state is 2-A.
 Alpha  occ. eigenvalues --  -19.07612 -19.06682 -19.02379 -19.01018 -14.25475
 Alpha  occ. eigenvalues --  -14.25298 -10.22010 -10.19697 -10.15323 -10.15283
 Alpha  occ. eigenvalues --  -10.13654 -10.12338 -10.09882 -10.09851 -10.09617
 Alpha  occ. eigenvalues --  -10.09595 -10.09086 -10.07330  -0.99815  -0.97733
 Alpha  occ. eigenvalues --   -0.97235  -0.93188  -0.85169  -0.82588  -0.77550
 Alpha  occ. eigenvalues --   -0.69193  -0.67954  -0.67711  -0.65411  -0.61688
 Alpha  occ. eigenvalues --   -0.58345  -0.55403  -0.53616  -0.51727  -0.51025
 Alpha  occ. eigenvalues --   -0.47047  -0.46156  -0.43068  -0.42761  -0.41658
 Alpha  occ. eigenvalues --   -0.41263  -0.39664  -0.38369  -0.37217  -0.36597
 Alpha  occ. eigenvalues --   -0.35318  -0.34980  -0.34145  -0.33996  -0.33482
 Alpha  occ. eigenvalues --   -0.33105  -0.32101  -0.31965  -0.31305  -0.30178
 Alpha  occ. eigenvalues --   -0.29612  -0.28291  -0.27956  -0.26991  -0.25617
 Alpha  occ. eigenvalues --   -0.25030  -0.23458  -0.20678  -0.19538  -0.18245
 Alpha  occ. eigenvalues --   -0.17896  -0.17026  -0.13526   0.03545
 Alpha virt. eigenvalues --    0.04634   0.05725   0.06609   0.07231   0.07670
 Alpha virt. eigenvalues --    0.08008   0.08068   0.09060   0.09392   0.09668
 Alpha virt. eigenvalues --    0.10082   0.10782   0.10888   0.11194   0.12005

  Beta  occ. eigenvalues --  -19.07611 -19.06629 -19.02375 -19.01014 -14.25470
  Beta  occ. eigenvalues --  -14.25277 -10.22011 -10.19694 -10.15324 -10.15282
  Beta  occ. eigenvalues --  -10.13644 -10.12299 -10.09878 -10.09845 -10.09607
  Beta  occ. eigenvalues --  -10.09568 -10.09072 -10.07305  -0.99811  -0.97633
  Beta  occ. eigenvalues --   -0.97227  -0.93173  -0.85148  -0.82559  -0.77529
  Beta  occ. eigenvalues --   -0.69173  -0.67909  -0.67686  -0.65382  -0.61628
  Beta  occ. eigenvalues --   -0.58315  -0.55357  -0.53583  -0.51693  -0.50984
  Beta  occ. eigenvalues --   -0.46996  -0.46113  -0.43045  -0.42742  -0.41621
  Beta  occ. eigenvalues --   -0.41187  -0.39646  -0.38347  -0.37188  -0.36569
  Beta  occ. eigenvalues --   -0.35289  -0.34953  -0.34119  -0.33973  -0.33441
  Beta  occ. eigenvalues --   -0.33069  -0.32069  -0.31944  -0.31273  -0.30151
  Beta  occ. eigenvalues --   -0.29591  -0.28256  -0.27928  -0.26963  -0.25601
  Beta  occ. eigenvalues --   -0.25003  -0.23434  -0.20668  -0.19524  -0.18216
  Beta  occ. eigenvalues --   -0.17888  -0.17003  -0.13503
  Beta virt. eigenvalues --    0.05746   0.05998   0.06440   0.06943   0.07348
  Beta virt. eigenvalues --    0.08066   0.08302   0.08371   0.09194   0.09643
  Beta virt. eigenvalues --    0.09834   0.10268   0.11039   0.11143   0.11455

 Mulliken charges and spin densities:
               1          2
     1  C    0.350089  -0.862412
     2  C   -0.318394   0.161353
     3  C    0.764763  -1.079429
     4  N   -0.442852   0.200188
     5  C    0.467157  -0.459782
     6  O   -0.305351   0.020910
     7  N   -0.379000  -0.033936
     8  C    0.000097  -0.094589
     9  C   -0.246430  -0.244107
    10  O   -0.081550  -0.003116
    11  C   -0.823398   0.321315
    12  C   -0.852769   0.684775
    13  C    0.561119  -0.669173
    14  C    1.169070  -1.601770
    15  C   -0.578274   0.672837
    16  C    0.669409  -0.362453
    17  O   -0.260348   0.018777
    18  O   -0.177821  -0.034673
    19  H    0.101889   0.081695
    20  H   -0.000221   0.160845
    21  H   -0.107769   0.246607
    22  H   -0.303529   0.489713
    23  H    0.235695  -0.085754
    24  H   -1.205402   1.425805
    25  H    0.061595   0.298451
    26  H    0.312525   0.042943
    27  H    0.108747   0.145064
    28  H    0.072327   0.116682
    29  H    0.037215   0.126905
    30  H   -0.048024   0.212601
    31  H    0.142398   0.028899
    32  H    0.149643   0.027568
    33  H   -0.736279   0.920468
    34  H    0.624237  -0.400306
    35  H   -0.273787   0.560406
    36  H    0.313220  -0.033307
 Sum of Mulliken charges =  -1.00000   1.00000

 Dipole moment (field-independent basis, Debye):
    X=             -2.0248    Y=             -5.2669    Z=             -2.0886  Tot=              6.0169
 Quadrupole moment (field-independent basis, Debye-Ang):
   XX=           -243.1733   YY=           -152.1858   ZZ=           -140.4550
   XY=             17.0800   XZ=            -13.1332   YZ=             -4.4201

 Summary of Natural Population Analysis:

                                       Natural Population
                Natural  -----------------------------------------------
    Atom  No    Charge         Core      Valence    Rydberg      Total
 -----------------------------------------------------------------------
      C    1   -0.30041      0.99964     2.29484    0.00593     3.30041
      C    2    0.05401      0.99958     1.93119    0.01523     2.94599
      C    3   -0.10281      0.99958     2.09018    0.01306     3.10281
      N    4   -0.32976      0.99967     2.81783    0.01226     3.82976
      C    5    0.40578      0.99969     1.57023    0.02431     2.59422
      O    6   -0.32723      0.99988     3.32224    0.00512     4.32723
      N    7   -0.37527      0.99969     2.86519    0.01039     3.87527
      C    8    0.16027      0.99958     1.82422    0.01593     2.83973
      C    9   -0.31193      0.99963     2.30753    0.00477     3.31193
      O   10   -0.28610      0.99986     3.27797    0.00828     4.28610
      C   11    0.13481      0.99935     1.85323    0.01261     2.86519
      C   12   -0.11073      0.99953     2.10217    0.00904     3.11073
      C   13   -0.11885      0.99952     2.11062    0.00871     3.11885
      C   14    0.15011      0.99938     1.83678    0.01373     2.84989
      C   15   -0.12587      0.99953     2.11579    0.01056     3.12587
      C   16   -0.13323      0.99951     2.12518    0.00854     3.13323
      O   17   -0.34116      0.99988     3.33411    0.00717     4.34116
      O   18   -0.38402      0.99990     3.37710    0.00702     4.38402
      H   19    0.09962      0.00000     0.39940    0.00099     0.40038
      H   20    0.10289      0.00000     0.39628    0.00083     0.39711
      H   21    0.10382      0.00000     0.39496    0.00122     0.39618
      H   22    0.08911      0.00000     0.40941    0.00148     0.41089
      H   23    0.09540      0.00000     0.40296    0.00164     0.40460
      H   24    0.11196      0.00000     0.38145    0.00659     0.38804
      H   25    0.20159      0.00000     0.29574    0.00266     0.29841
      H   26    0.20194      0.00000     0.29624    0.00182     0.29806
      H   27    0.09450      0.00000     0.40383    0.00167     0.40550
      H   28    0.10927      0.00000     0.38973    0.00101     0.39073
      H   29    0.10792      0.00000     0.39127    0.00081     0.39208
      H   30    0.11281      0.00000     0.38620    0.00099     0.38719
      H   31    0.10592      0.00000     0.39316    0.00092     0.39408
      H   32    0.10585      0.00000     0.39336    0.00079     0.39415
      H   33    0.10688      0.00000     0.39156    0.00156     0.39312
      H   34    0.11464      0.00000     0.38332    0.00204     0.38536
      H   35    0.24052      0.00000     0.24620    0.01328     0.25948
      H   36    0.23775      0.00000     0.25925    0.00299     0.26225
 =======================================================================
   * Total *   -0.00000     17.99339    49.77070    0.23591    68.00000

 Normal termination of Gaussian 16 at Fri Dec 11 21:44:05 2020.
