 Gaussian 16, Revision A.03,

 -----------------------------------------------------------
 # opt freq B3LYP/6-31G(d) empiricaldispersion=gd3bj scf=xqc
 -----------------------------------------------------------

 ------------------------------
 CID_22607833_JID_5204_neutraal
 ------------------------------
 Symbolic Z-matrix:
 Charge =  0 Multiplicity = 1

 SCF Done:  E(RB3LYP) =  -741.952570093     A.U. after   15 cycles
 SCF Done:  E(RB3LYP) =  -741.960951806     A.U. after   14 cycles
 SCF Done:  E(RB3LYP) =  -741.962866542     A.U. after   14 cycles
 SCF Done:  E(RB3LYP) =  -741.963078956     A.U. after   11 cycles
 SCF Done:  E(RB3LYP) =  -741.963199428     A.U. after   12 cycles
 SCF Done:  E(RB3LYP) =  -741.963369755     A.U. after   11 cycles
 SCF Done:  E(RB3LYP) =  -741.963389632     A.U. after   10 cycles
 SCF Done:  E(RB3LYP) =  -741.963391438     A.U. after    9 cycles
 SCF Done:  E(RB3LYP) =  -741.963392204     A.U. after    8 cycles
 SCF Done:  E(RB3LYP) =  -741.963392314     A.U. after    7 cycles
 Optimization completed.
    -- Stationary point found.
 Normal termination of Gaussian 16 at Thu Dec 10 14:48:43 2020.

 --------------------------------------------------------------------
 #N Geom=AllCheck Guess=TCheck SCRF=Check GenChk RB3LYP/6-31G(d) Freq
 --------------------------------------------------------------------

 Structure from the checkpoint file:  "JID_5204.chk"
 ------------------------------
 CID_22607833_JID_5204_neutraal
 ------------------------------
 Charge =  0 Multiplicity = 1

 SCF Done:  E(RB3LYP) =  -741.963392314     A.U. after    1 cycles

  Exact polarizability: 132.923 -14.889 111.687  -5.223  -4.278 110.435
 Approx polarizability: 189.134 -32.955 153.457 -12.572  -8.473 180.023

                      1                      2                      3
                      A                      A                      A
 Frequencies --     21.8573                33.4801                46.9965
 Red. masses --      4.4301                 5.3290                 3.6743
 Frc consts  --      0.0012                 0.0035                 0.0048
 IR Inten    --      0.0020                 0.8428                 0.4540

                      4                      5                      6
                      A                      A                      A
 Frequencies --     60.5320                93.8039               117.9058
 Red. masses --      4.6285                 4.9537                 3.8652
 Frc consts  --      0.0100                 0.0257                 0.0317
 IR Inten    --      0.2926                 0.3253                 0.5883

                      7                      8                      9
                      A                      A                      A
 Frequencies --    137.8194               194.8256               214.5921
 Red. masses --      3.6152                 3.6472                 2.0465
 Frc consts  --      0.0405                 0.0816                 0.0555
 IR Inten    --      1.1443                 4.5976                 3.8269

                     10                     11                     12
                      A                      A                      A
 Frequencies --    227.6000               241.5542               255.6683
 Red. masses --      1.0711                 1.4535                 1.3072
 Frc consts  --      0.0327                 0.0500                 0.0503
 IR Inten    --      0.2217                 3.7228                 0.4079

                     13                     14                     15
                      A                      A                      A
 Frequencies --    268.0378               276.4201               352.0534
 Red. masses --      3.2990                 2.5135                 3.5088
 Frc consts  --      0.1396                 0.1132                 0.2562
 IR Inten    --      2.7615                 0.4335                 1.3623

                     16                     17                     18
                      A                      A                      A
 Frequencies --    371.1684               411.1443               436.9272
 Red. masses --      3.1057                 3.6249                 2.2277
 Frc consts  --      0.2521                 0.3610                 0.2506
 IR Inten    --      1.3563                 0.7499                 3.4556

                     19                     20                     21
                      A                      A                      A
 Frequencies --    450.9494               468.5544               528.6119
 Red. masses --      4.0417                 3.9853                 6.9980
 Frc consts  --      0.4842                 0.5155                 1.1521
 IR Inten    --      8.1941                 1.7143                 4.7041

                     22                     23                     24
                      A                      A                      A
 Frequencies --    580.9957               592.4963               674.7201
 Red. masses --      2.7494                 1.6541                 3.9685
 Frc consts  --      0.5468                 0.3421                 1.0645
 IR Inten    --     23.0306                31.8371                22.4779

                     25                     26                     27
                      A                      A                      A
 Frequencies --    705.7180               714.8573               749.9004
 Red. masses --      3.4818                 4.1531                 3.0111
 Frc consts  --      1.0217                 1.2504                 0.9977
 IR Inten    --     88.4502                44.9394                51.8918

                     28                     29                     30
                      A                      A                      A
 Frequencies --    803.1369               836.8066               853.2459
 Red. masses --     11.3574                 2.5611                 1.4153
 Frc consts  --      4.3163                 1.0567                 0.6071
 IR Inten    --      5.0080                 0.5244                 7.3946

                     31                     32                     33
                      A                      A                      A
 Frequencies --    895.8153               932.9327               944.1869
 Red. masses --      3.0684                 1.3965                 1.2098
 Frc consts  --      1.4508                 0.7161                 0.6355
 IR Inten    --     35.7715                 2.7437                 1.9897

                     34                     35                     36
                      A                      A                      A
 Frequencies --    968.9270               982.3399              1002.5179
 Red. masses --      1.5720                 1.6479                 2.4914
 Frc consts  --      0.8695                 0.9369                 1.4753
 IR Inten    --      8.6146                 5.9835                36.5570

                     37                     38                     39
                      A                      A                      A
 Frequencies --   1022.1014              1053.0938              1074.4051
 Red. masses --      7.0682                 3.2743                 2.4901
 Frc consts  --      4.3506                 2.1394                 1.6936
 IR Inten    --      6.0662                21.7424                32.1407

                     40                     41                     42
                      A                      A                      A
 Frequencies --   1135.8883              1157.5264              1160.9199
 Red. masses --      2.7233                 2.2027                 3.2641
 Frc consts  --      2.0702                 1.7389                 2.5919
 IR Inten    --     53.2599                32.7426               286.7471

                     43                     44                     45
                      A                      A                      A
 Frequencies --   1186.8982              1209.1760              1213.0299
 Red. masses --      2.7674                 1.7584                 1.7190
 Frc consts  --      2.2969                 1.5148                 1.4903
 IR Inten    --    175.1560                72.6861                19.3480

                     46                     47                     48
                      A                      A                      A
 Frequencies --   1222.0983              1277.4490              1313.0475
 Red. masses --      2.2284                 3.5335                 1.1956
 Frc consts  --      1.9609                 3.3973                 1.2145
 IR Inten    --     37.2744                50.9808                 2.0376

                     49                     50                     51
                      A                      A                      A
 Frequencies --   1323.5327              1349.9226              1380.5672
 Red. masses --      2.0762                 1.3684                 2.3578
 Frc consts  --      2.1428                 1.4692                 2.6477
 IR Inten    --     16.9207                 4.3047                 3.3872

                     52                     53                     54
                      A                      A                      A
 Frequencies --   1393.5895              1398.4598              1412.4319
 Red. masses --      1.3473                 4.3827                 1.6108
 Frc consts  --      1.5417                 5.0500                 1.8933
 IR Inten    --      1.5892                 1.1081                 6.2739

                     55                     56                     57
                      A                      A                      A
 Frequencies --   1427.9764              1434.0273              1439.6372
 Red. masses --      1.2985                 1.3551                 1.3654
 Frc consts  --      1.5601                 1.6418                 1.6673
 IR Inten    --      2.8158                10.9653                 6.4940

                     58                     59                     60
                      A                      A                      A
 Frequencies --   1448.4572              1458.5482              1502.0778
 Red. masses --      1.5670                 1.2916                 6.4388
 Frc consts  --      1.9370                 1.6188                 8.5593
 IR Inten    --     33.6618                12.1523                52.4979

                     61                     62                     63
                      A                      A                      A
 Frequencies --   1515.4344              1519.3583              1521.6691
 Red. masses --      1.0476                 1.0550                 1.0451
 Frc consts  --      1.4175                 1.4350                 1.4258
 IR Inten    --      3.0820                 1.8945                 1.2481

                     64                     65                     66
                      A                      A                      A
 Frequencies --   1524.7228              1534.6662              1535.2258
 Red. masses --      1.0744                 1.1615                 3.4332
 Frc consts  --      1.4716                 1.6117                 4.7675
 IR Inten    --      5.5728                 2.6629                32.4788

                     67                     68                     69
                      A                      A                      A
 Frequencies --   1541.5478              1545.7505              1848.5426
 Red. masses --      1.0729                 1.0693                10.2397
 Frc consts  --      1.5021                 1.5053                20.6157
 IR Inten    --      7.1294                12.8557               319.0737

                     70                     71                     72
                      A                      A                      A
 Frequencies --   3031.4999              3033.8391              3042.3007
 Red. masses --      1.0691                 1.0734                 1.0374
 Frc consts  --      5.7889                 5.8210                 5.6575
 IR Inten    --     25.6487                23.1085                40.3101

                     73                     74                     75
                      A                      A                      A
 Frequencies --   3049.9730              3080.3634              3094.5006
 Red. masses --      1.0396                 1.0364                 1.1033
 Frc consts  --      5.6977                 5.7942                 6.2250
 IR Inten    --     14.5420                 8.2185                 6.8968

                     76                     77                     78
                      A                      A                      A
 Frequencies --   3102.0975              3105.5843              3112.6760
 Red. masses --      1.0869                 1.1016                 1.1011
 Frc consts  --      6.1622                 6.2601                 6.2853
 IR Inten    --     20.3309                32.4711                42.5937

                     79                     80                     81
                      A                      A                      A
 Frequencies --   3119.6951              3138.7074              3151.5844
 Red. masses --      1.1012                 1.1000                 1.1038
 Frc consts  --      6.3147                 6.3848                 6.4593
 IR Inten    --     45.7844                25.8618                16.2905

                     82                     83                     84
                      A                      A                      A
 Frequencies --   3174.4500              3277.0509              3695.0049
 Red. masses --      1.1018                 1.0984                 1.0640
 Frc consts  --      6.5418                 6.9501                 8.5592
 IR Inten    --     11.2370                 0.4371                68.6276

 - Thermochemistry -
 -------------------
 Temperature   298.150 Kelvin.  Pressure   1.00000 Atm.
 Atom     1 has atomic number  6 and mass  12.00000

 Molecular mass:   213.11134 amu.
 Principal axes and moments of inertia in atomic units:
                           1         2         3
     Eigenvalues --  2293.695314452.024125273.69722
           X            0.99947   0.03237  -0.00200
           Y           -0.03231   0.99915   0.02572
           Z            0.00284  -0.02564   0.99967
 This molecule is an asymmetric top.
 Rotational symmetry number  1.
 Warning -- assumption of classical behavior for rotation
           may cause significant error
 Rotational temperatures (Kelvin)      0.03776     0.01945     0.01642
 Rotational constants (GHZ):           0.78683     0.40538     0.34222
 Zero-point vibrational energy     656392.2 (Joules/Mol)
                                  156.88150 (Kcal/Mol)
 Warning -- explicit consideration of  23 degrees of freedom as
           vibrations may cause significant error
 Vibrational temperatures:     31.45    48.17    67.62    87.09   134.96
          (Kelvin)            169.64   198.29   280.31   308.75   327.47
                              347.54   367.85   385.65   397.71   506.53
                              534.03   591.54   628.64   648.82   674.15
                              760.55   835.92   852.47   970.77  1015.37
                             1028.52  1078.94  1155.53  1203.98  1227.63
                             1288.88  1342.28  1358.47  1394.07  1413.37
                             1442.40  1470.58  1515.17  1545.83  1634.29
                             1665.42  1670.30  1707.68  1739.73  1745.28
                             1758.33  1837.96  1889.18  1904.27  1942.24
                             1986.33  2005.06  2012.07  2032.17  2054.54
                             2063.25  2071.32  2084.01  2098.53  2161.15
                             2180.37  2186.02  2189.34  2193.74  2208.04
                             2208.85  2217.94  2223.99  2659.64  4361.65
                             4365.02  4377.19  4388.23  4431.96  4452.30
                             4463.23  4468.24  4478.45  4488.55  4515.90
                             4534.43  4567.33  4714.95  5316.29

 Zero-point correction=                           0.250007 (Hartree/Particle)
 Thermal correction to Energy=                    0.265480
 Thermal correction to Enthalpy=                  0.266424
 Thermal correction to Gibbs Free Energy=         0.205408
 Sum of electronic and zero-point Energies=           -741.713386
 Sum of electronic and thermal Energies=              -741.697913
 Sum of electronic and thermal Enthalpies=            -741.696968
 Sum of electronic and thermal Free Energies=         -741.757984

                     E (Thermal)             CV                S
                      KCal/Mol        Cal/Mol-Kelvin    Cal/Mol-Kelvin
 Total                  166.591             56.265            128.419
 Electronic               0.000              0.000              0.000
 Translational            0.889              2.981             41.973
 Rotational               0.889              2.981             32.354
 Vibrational            164.814             50.303             54.091
 Vibration     1          0.593              1.985              6.458
 Vibration     2          0.594              1.983              5.612
 Vibration     3          0.595              1.979              4.940
 Vibration     4          0.597              1.973              4.440
 Vibration     5          0.603              1.954              3.579
 Vibration     6          0.608              1.934              3.134
 Vibration     7          0.614              1.916              2.834
 Vibration     8          0.635              1.847              2.181
 Vibration     9          0.645              1.819              2.004
 Vibration    10          0.651              1.799              1.898
 Vibration    11          0.658              1.777              1.791
 Vibration    12          0.666              1.753              1.691
 Vibration    13          0.673              1.732              1.609
 Vibration    14          0.678              1.717              1.556
 Vibration    15          0.729              1.571              1.157
 Vibration    16          0.743              1.531              1.075
 Vibration    17          0.775              1.446              0.923
 Vibration    18          0.797              1.390              0.836
 Vibration    19          0.810              1.359              0.793
 Vibration    20          0.826              1.320              0.742
 Vibration    21          0.884              1.187              0.590
 Vibration    22          0.938              1.072              0.484
 Vibration    23          0.950              1.048              0.463

                           ! Non-Optimized Parameters !
 Normal termination of Gaussian 16 at Thu Dec 10 14:58:33 2020.

 ----------------------------------------------------------------------
 # B3LYP/6-311++G(d,p) empiricaldispersion=gd3bj scf=xqc pop=npa geom=c
 heck
 ----------------------------------------------------------------------

 --------------------------------------
 CID_22607833_JID_5204_Energie_neutraal
 --------------------------------------
 Structure from the checkpoint file:  "JID_5204.chk"
 Charge =  0 Multiplicity = 1

 SCF Done:  E(RB3LYP) =  -742.181587978     A.U. after   15 cycles
 Normal termination of Gaussian 16 at Thu Dec 10 15:03:20 2020.

 ----------------------------------------------------------------------
 # B3LYP/6-311++G(d,p) empiricaldispersion=gd3bj scf=xqc pop=npa geom=c
 heck
 ----------------------------------------------------------------------

 ------------------------------------
 CID_22607833_JID_5204_Energie_kation
 ------------------------------------
 Structure from the checkpoint file:  "JID_5204.chk"
 Charge =  1 Multiplicity = 2

 SCF Done:  E(UB3LYP) =  -741.831850880     A.U. after   31 cycles
 Normal termination of Gaussian 16 at Thu Dec 10 15:17:09 2020.
 Gaussian 16:  ES64L-G16RevA.03 25-Dec-2016

 ----------------------------------------------------------------------
 # B3LYP/6-311++G(d,p) empiricaldispersion=gd3bj scf=xqc pop=npa geom=c
 heck
 ----------------------------------------------------------------------

 -----------------------------------
 CID_22607833_JID_5204_Energie_anion
 -----------------------------------
 Structure from the checkpoint file:  "JID_5204.chk"
 Charge = -1 Multiplicity = 2

                         Standard orientation:
 ---------------------------------------------------------------------
 Center     Atomic      Atomic             Coordinates (Angstroms)
 Number     Number       Type             X           Y           Z
 ---------------------------------------------------------------------
      1          6           0       -1.593902   -1.631370   -1.335098
      2          6           0       -2.662476   -1.310177   -0.284871
      3          6           0       -2.937838   -2.513164    0.625018
      4          6           0       -2.249508   -0.110777    0.565154
      5          8           0       -2.142115    1.047081   -0.281541
      6          6           0       -1.093323    1.937282   -0.011889
      7          6           0       -1.074082    2.498995    1.403305
      8          7           0        0.207416    1.330840   -0.347557
      9          6           0        0.788821    1.233377   -1.572953
     10          7           0        1.867429    0.480157   -1.515026
     11          6           0        1.902121    0.111848   -0.199468
     12          7           0        0.912284    0.601962    0.545266
     13          6           0        2.963996   -0.766718    0.346652
     14          8           0        3.885848   -1.210017   -0.298827
     15          8           0        2.781868   -1.024205    1.663720
     16          1           0       -0.641133   -1.889035   -0.855224
     17          1           0       -1.419663   -0.774227   -1.991094
     18          1           0       -1.896996   -2.481161   -1.956367
     19          1           0       -3.593357   -1.040549   -0.803208
     20          1           0       -2.031418   -2.807606    1.169061
     21          1           0       -3.717174   -2.292096    1.363874
     22          1           0       -3.266579   -3.377066    0.037710
     23          1           0       -2.996303    0.091310    1.344710
     24          1           0       -1.290621   -0.321723    1.051896
     25          1           0       -1.226861    2.744694   -0.737264
     26          1           0       -0.868204    1.719281    2.138408
     27          1           0       -0.299427    3.265594    1.495396
     28          1           0       -2.048618    2.947915    1.613436
     29          1           0        0.392593    1.726221   -2.449976
     30          1           0        3.526189   -1.600910    1.917944
 ---------------------------------------------------------------------

 SCF Done:  E(UB3LYP) =  -742.178173458     A.U. after   33 cycles
 SCF Done:  E(UB3LYP) =  -742.178173458     a.u. after    1 cycles

 The electronic state is 2-A.
 Alpha  occ. eigenvalues --  -19.03623 -19.02879 -18.96496 -14.27289 -14.20267
 Alpha  occ. eigenvalues --  -14.18672 -10.17064 -10.15240 -10.12054 -10.10727
 Alpha  occ. eigenvalues --  -10.09088 -10.07402 -10.06862 -10.06172 -10.05197
 Alpha  occ. eigenvalues --   -0.97616  -0.96708  -0.93688  -0.88082  -0.78551
 Alpha  occ. eigenvalues --   -0.72654  -0.70263  -0.65494  -0.59288  -0.58434
 Alpha  occ. eigenvalues --   -0.56287  -0.53143  -0.48610  -0.46947  -0.45997
 Alpha  occ. eigenvalues --   -0.42827  -0.40788  -0.38103  -0.36912  -0.35627
 Alpha  occ. eigenvalues --   -0.34813  -0.34058  -0.32969  -0.32295  -0.31990
 Alpha  occ. eigenvalues --   -0.30992  -0.29938  -0.29290  -0.28480  -0.27456
 Alpha  occ. eigenvalues --   -0.26780  -0.24685  -0.24117  -0.23420  -0.22305
 Alpha  occ. eigenvalues --   -0.20818  -0.19832  -0.18133  -0.17315  -0.16145
 Alpha  occ. eigenvalues --   -0.14973  -0.14674   0.04680
 Alpha virt. eigenvalues --    0.06343   0.06945   0.07939   0.08872   0.09336
 Alpha virt. eigenvalues --    0.09606   0.10315   0.10651   0.11509   0.11969
 Alpha virt. eigenvalues --    0.12493   0.12851   0.13580   0.14709   0.15242

  Beta  occ. eigenvalues --  -19.03579 -19.02851 -18.96226 -14.27152 -14.19820
  Beta  occ. eigenvalues --  -14.18651 -10.17062 -10.14991 -10.12084 -10.10703
  Beta  occ. eigenvalues --  -10.09014 -10.07397 -10.06840 -10.06147 -10.05192
  Beta  occ. eigenvalues --   -0.97340  -0.96482  -0.93530  -0.87695  -0.78378
  Beta  occ. eigenvalues --   -0.72288  -0.70152  -0.65413  -0.59192  -0.58403
  Beta  occ. eigenvalues --   -0.55828  -0.53075  -0.48465  -0.46793  -0.45904
  Beta  occ. eigenvalues --   -0.42733  -0.40626  -0.37950  -0.36758  -0.35393
  Beta  occ. eigenvalues --   -0.34562  -0.33617  -0.32810  -0.32161  -0.31840
  Beta  occ. eigenvalues --   -0.30440  -0.29705  -0.29133  -0.28454  -0.27379
  Beta  occ. eigenvalues --   -0.26571  -0.24642  -0.24084  -0.23381  -0.22153
  Beta  occ. eigenvalues --   -0.20558  -0.18931  -0.17546  -0.16833  -0.15894
  Beta  occ. eigenvalues --   -0.14410  -0.13746
  Beta virt. eigenvalues --    0.06770   0.07362   0.08325   0.08844   0.09632
  Beta virt. eigenvalues --    0.09744   0.10032   0.10539   0.10884   0.11821
  Beta virt. eigenvalues --    0.12119   0.12638   0.13183   0.13606   0.14777

 Mulliken charges and spin densities:
               1          2
     1  C   -0.454992  -0.146709
     2  C   -0.172684   0.550605
     3  C    0.356881  -0.940054
     4  C    0.146352  -0.538291
     5  O   -0.012804   0.011531
     6  C   -1.095831   0.336458
     7  C    0.571525  -0.869112
     8  N    0.237554   0.041354
     9  C    0.268572  -0.000707
    10  N   -0.085272   0.023576
    11  C   -0.446123  -0.065467
    12  N   -0.173456   0.226074
    13  C    0.168208   0.055971
    14  O   -0.368679   0.088883
    15  O   -0.189201   0.007527
    16  H    0.169299   0.000914
    17  H    0.118228   0.028392
    18  H    0.074913   0.071961
    19  H    0.045274   0.115489
    20  H    0.033840   0.108195
    21  H   -0.248913   0.376227
    22  H   -0.104147   0.245753
    23  H   -0.254298   0.437358
    24  H    0.243136  -0.099715
    25  H   -0.104272   0.258377
    26  H    0.035231   0.155783
    27  H    0.080997   0.074278
    28  H   -0.217977   0.371783
    29  H    0.095941   0.071009
    30  H    0.282698   0.002558
 Sum of Mulliken charges =  -1.00000   1.00000

 Dipole moment (field-independent basis, Debye):
    X=             -1.1845    Y=              1.5672    Z=             -0.6559  Tot=              2.0711
 Quadrupole moment (field-independent basis, Debye-Ang):
   XX=           -157.1960   YY=           -116.5856   ZZ=           -113.8422
   XY=              1.6304   XZ=             17.8164   YZ=             -6.1170

 Summary of Natural Population Analysis:

                                       Natural Population
                Natural  -----------------------------------------------
    Atom  No    Charge         Core      Valence    Rydberg      Total
 -----------------------------------------------------------------------
      C    1   -0.28715      0.99965     2.28218    0.00532     3.28715
      C    2   -0.12263      0.99961     2.11345    0.00956     3.12263
      C    3   -0.28545      0.99965     2.28005    0.00575     3.28545
      C    4   -0.01923      0.99952     2.00644    0.01327     3.01923
      O    5   -0.30211      0.99988     3.29356    0.00868     4.30211
      C    6    0.16456      0.99958     1.81862    0.01725     2.83544
      C    7   -0.30368      0.99964     2.29852    0.00551     3.30368
      N    8   -0.11318      0.99965     2.59990    0.01364     3.61318
      C    9    0.09244      0.99964     1.89231    0.01561     2.90756
      N   10   -0.24092      0.99971     2.73092    0.01029     3.74092
      C   11    0.11631      0.99960     1.86567    0.01842     2.88369
      N   12   -0.08400      0.99970     2.57318    0.01112     3.58400
      C   13    0.40822      0.99967     1.56734    0.02476     2.59178
      O   14   -0.28710      0.99987     3.28147    0.00576     4.28710
      O   15   -0.34379      0.99988     3.33721    0.00670     4.34379
      H   16    0.10262      0.00000     0.39638    0.00100     0.39738
      H   17    0.10446      0.00000     0.39442    0.00112     0.39554
      H   18    0.09451      0.00000     0.40473    0.00077     0.40549
      H   19    0.09158      0.00000     0.40645    0.00198     0.40842
      H   20    0.09838      0.00000     0.40065    0.00097     0.40162
      H   21    0.10005      0.00000     0.39881    0.00114     0.39995
      H   22    0.09840      0.00000     0.40077    0.00082     0.40160
      H   23    0.08555      0.00000     0.41286    0.00159     0.41445
      H   24    0.09786      0.00000     0.40033    0.00181     0.40214
      H   25    0.09116      0.00000     0.40767    0.00118     0.40884
      H   26    0.11344      0.00000     0.38536    0.00120     0.38656
      H   27    0.10536      0.00000     0.39384    0.00080     0.39464
      H   28    0.10354      0.00000     0.39535    0.00111     0.39646
      H   29    0.09213      0.00000     0.40645    0.00142     0.40787
      H   30    0.22868      0.00000     0.26651    0.00480     0.27132
 =======================================================================
   * Total *   -0.00000     14.99524    41.81144    0.19332    57.00000

 Normal termination of Gaussian 16 at Thu Dec 10 15:31:48 2020.
