 Gaussian 16, Revision A.03,

 -----------------------------------------------------------
 # opt freq B3LYP/6-31G(d) empiricaldispersion=gd3bj scf=xqc
 -----------------------------------------------------------

 ------------------------------
 CID_72123067_JID_9690_neutraal
 ------------------------------
 Symbolic Z-matrix:
 Charge =  0 Multiplicity = 1

 SCF Done:  E(RB3LYP) =  -875.699700509     A.U. after   14 cycles
 SCF Done:  E(RB3LYP) =  -875.705571400     A.U. after   12 cycles
 SCF Done:  E(RB3LYP) =  -875.706604203     A.U. after   12 cycles
 SCF Done:  E(RB3LYP) =  -875.706764086     A.U. after   11 cycles
 SCF Done:  E(RB3LYP) =  -875.706855409     A.U. after   11 cycles
 SCF Done:  E(RB3LYP) =  -875.706888498     A.U. after   10 cycles
 SCF Done:  E(RB3LYP) =  -875.706929609     A.U. after   10 cycles
 SCF Done:  E(RB3LYP) =  -875.706952670     A.U. after   11 cycles
 SCF Done:  E(RB3LYP) =  -875.706980813     A.U. after   10 cycles
 SCF Done:  E(RB3LYP) =  -875.707025713     A.U. after   12 cycles
 SCF Done:  E(RB3LYP) =  -875.707125584     A.U. after    8 cycles
 SCF Done:  E(RB3LYP) =  -875.707125865     A.U. after    8 cycles
 SCF Done:  E(RB3LYP) =  -875.707126135     A.U. after    9 cycles
 SCF Done:  E(RB3LYP) =  -875.707126227     A.U. after    7 cycles
 SCF Done:  E(RB3LYP) =  -875.707126259     A.U. after    6 cycles
 Optimization completed.
    -- Stationary point found.
 Normal termination of Gaussian 16 at Sun Dec 13 12:53:56 2020.

 --------------------------------------------------------------------
 #N Geom=AllCheck Guess=TCheck SCRF=Check GenChk RB3LYP/6-31G(d) Freq
 --------------------------------------------------------------------

 Structure from the checkpoint file:  "JID_9690.chk"
 ------------------------------
 CID_72123067_JID_9690_neutraal
 ------------------------------
 Charge =  0 Multiplicity = 1

 SCF Done:  E(RB3LYP) =  -875.707126259     A.U. after    1 cycles

  Exact polarizability: 205.931   0.059 140.427 -16.575  -3.995 128.950
 Approx polarizability: 254.467  -5.451 233.432 -25.777  -3.750 205.661

                      1                      2                      3
                      A                      A                      A
 Frequencies --     16.6296                18.9419                40.9068
 Red. masses --      4.7065                 5.0210                 4.9151
 Frc consts  --      0.0008                 0.0011                 0.0048
 IR Inten    --      0.7717                 1.2815                 0.2717

                      4                      5                      6
                      A                      A                      A
 Frequencies --     48.6336                64.6377                73.8094
 Red. masses --      4.1117                 2.4321                 1.4409
 Frc consts  --      0.0057                 0.0060                 0.0046
 IR Inten    --      0.5997                 0.2376                 0.3265

                      7                      8                      9
                      A                      A                      A
 Frequencies --    105.0501               145.7901               172.8566
 Red. masses --      3.3474                 1.0895                 3.4623
 Frc consts  --      0.0218                 0.0136                 0.0610
 IR Inten    --      0.1112                 0.1027                 1.4437

                     10                     11                     12
                      A                      A                      A
 Frequencies --    183.1639               203.0929               213.7834
 Red. masses --      4.1129                 3.8007                 3.8404
 Frc consts  --      0.0813                 0.0924                 0.1034
 IR Inten    --      1.9350                 0.9521                 4.1121

                     13                     14                     15
                      A                      A                      A
 Frequencies --    260.9658               281.9577               320.5057
 Red. masses --      2.3530                 3.7237                 4.0039
 Frc consts  --      0.0944                 0.1744                 0.2423
 IR Inten    --      1.1246                 1.2416                 0.2453

                     16                     17                     18
                      A                      A                      A
 Frequencies --    339.2609               347.6092               355.8217
 Red. masses --      3.7222                 2.7553                 3.0553
 Frc consts  --      0.2524                 0.1962                 0.2279
 IR Inten    --      0.5436                 3.3741                 0.6217

                     19                     20                     21
                      A                      A                      A
 Frequencies --    401.8610               425.9765               451.3965
 Red. masses --      2.2320                 1.8454                 2.7417
 Frc consts  --      0.2124                 0.1973                 0.3291
 IR Inten    --      5.6748                 2.8384                 4.8863

                     22                     23                     24
                      A                      A                      A
 Frequencies --    529.6878               541.5551               590.0612
 Red. masses --      3.3927                 4.0072                 3.1237
 Frc consts  --      0.5608                 0.6924                 0.6408
 IR Inten    --      3.7317                 0.9660                 2.3826

                     25                     26                     27
                      A                      A                      A
 Frequencies --    633.7268               644.2982               651.0626
 Red. masses --      4.6749                 4.2928                 5.0244
 Frc consts  --      1.1062                 1.0499                 1.2548
 IR Inten    --      3.8818                 3.4341                 1.8110

                     28                     29                     30
                      A                      A                      A
 Frequencies --    689.2625               710.2688               725.2591
 Red. masses --      4.5382                 4.8494                 4.9068
 Frc consts  --      1.2703                 1.4414                 1.5207
 IR Inten    --      1.6901                 7.4890                10.4154

                     31                     32                     33
                      A                      A                      A
 Frequencies --    782.5876               807.4515               813.0463
 Red. masses --      4.0870                 4.0417                 3.1258
 Frc consts  --      1.4748                 1.5526                 1.2174
 IR Inten    --     10.5354                10.3718                 6.5701

                     34                     35                     36
                      A                      A                      A
 Frequencies --    842.1525               872.4071               898.4208
 Red. masses --      1.3156                 2.7636                 1.5591
 Frc consts  --      0.5497                 1.2392                 0.7415
 IR Inten    --     13.3549                 6.3593                17.8697

                     37                     38                     39
                      A                      A                      A
 Frequencies --    905.4379               914.7753               948.9479
 Red. masses --      2.3198                 6.4540                 2.7192
 Frc consts  --      1.1205                 3.1820                 1.4427
 IR Inten    --      4.2766                16.8875                 3.2894

                     40                     41                     42
                      A                      A                      A
 Frequencies --    972.2172               983.8250              1002.8037
 Red. masses --      2.2371                 4.0317                 2.5328
 Frc consts  --      1.2458                 2.2992                 1.5007
 IR Inten    --      3.7198                10.8434                 2.8343

                     43                     44                     45
                      A                      A                      A
 Frequencies --   1010.0397              1023.7277              1044.3749
 Red. masses --      2.5644                 3.4062                 2.2115
 Frc consts  --      1.5414                 2.1033                 1.4212
 IR Inten    --     12.3593                11.3609                12.0623

                     46                     47                     48
                      A                      A                      A
 Frequencies --   1044.8939              1051.8058              1076.0635
 Red. masses --      2.6270                 2.2444                 3.6525
 Frc consts  --      1.6898                 1.4629                 2.4918
 IR Inten    --     11.9925                 5.4957                 1.7584

                     49                     50                     51
                      A                      A                      A
 Frequencies --   1082.5022              1082.9689              1103.9587
 Red. masses --      1.5571                 1.4600                 1.6002
 Frc consts  --      1.0750                 1.0089                 1.1491
 IR Inten    --      4.0665                 2.0442                18.2176

                     52                     53                     54
                      A                      A                      A
 Frequencies --   1121.0575              1140.8686              1165.4335
 Red. masses --      2.3800                 2.2606                 2.3160
 Frc consts  --      1.7623                 1.7336                 1.8534
 IR Inten    --     23.0601                19.4823                 6.6538

                     55                     56                     57
                      A                      A                      A
 Frequencies --   1180.0120              1207.8132              1223.8027
 Red. masses --      2.0554                 1.7171                 1.6240
 Frc consts  --      1.6863                 1.4759                 1.4331
 IR Inten    --     45.5554                10.4868                 1.2512

                     58                     59                     60
                      A                      A                      A
 Frequencies --   1241.7437              1268.1057              1290.4319
 Red. masses --      2.7437                 2.2340                 1.1992
 Frc consts  --      2.4926                 2.1166                 1.1765
 IR Inten    --      9.7031                 2.0877                 4.9819

                     61                     62                     63
                      A                      A                      A
 Frequencies --   1303.9383              1331.2698              1338.2831
 Red. masses --      3.1535                 2.1137                 1.6467
 Frc consts  --      3.1591                 2.2072                 1.7376
 IR Inten    --     50.4356                22.0015                 7.4228

                     64                     65                     66
                      A                      A                      A
 Frequencies --   1349.0132              1357.5576              1375.8666
 Red. masses --      2.1017                 1.4328                 1.4514
 Frc consts  --      2.2535                 1.5558                 1.6188
 IR Inten    --     24.9412                24.6748                 7.3292

                     67                     68                     69
                      A                      A                      A
 Frequencies --   1382.6843              1397.0467              1401.0213
 Red. masses --      1.3216                 1.7721                 1.7755
 Frc consts  --      1.4887                 2.0378                 2.0533
 IR Inten    --      4.7233                31.8181                19.5286

                     70                     71                     72
                      A                      A                      A
 Frequencies --   1420.1142              1422.9043              1436.9587
 Red. masses --      1.5809                 1.7411                 1.3650
 Frc consts  --      1.8785                 2.0769                 1.6606
 IR Inten    --      5.6212                15.3414                10.7622

                     73                     74                     75
                      A                      A                      A
 Frequencies --   1442.8951              1447.1532              1486.2782
 Red. masses --      1.4193                 1.2871                 1.0894
 Frc consts  --      1.7409                 1.5882                 1.4178
 IR Inten    --      3.0339                 1.7680                 9.2910

                     76                     77                     78
                      A                      A                      A
 Frequencies --   1502.5752              1504.9208              1506.0486
 Red. masses --      1.0424                 1.0467                 1.0982
 Frc consts  --      1.3867                 1.3967                 1.4676
 IR Inten    --      7.0286                 8.4609                16.9815

                     79                     80                     81
                      A                      A                      A
 Frequencies --   1510.4767              1519.3460              1520.3019
 Red. masses --      1.0935                 1.1044                 1.0971
 Frc consts  --      1.4700                 1.5021                 1.4940
 IR Inten    --      8.5231                 4.8064                 5.7337

                     82                     83                     84
                      A                      A                      A
 Frequencies --   1521.3630              1537.3268              1556.2827
 Red. masses --      1.0930                 1.1164                 8.5192
 Frc consts  --      1.4905                 1.5546                12.1569
 IR Inten    --      6.9122                21.4442                 8.1119

                     85                     86                     87
                      A                      A                      A
 Frequencies --   1606.4864              1640.8289              1660.9768
 Red. masses --      8.3557                 8.1381                 6.4286
 Frc consts  --     12.7054                12.9093                10.4495
 IR Inten    --     27.5664               114.0980                14.3816

                     88                     89                     90
                      A                      A                      A
 Frequencies --   2944.5079              2952.9933              3029.7850
 Red. masses --      1.0733                 1.0724                 1.0808
 Frc consts  --      5.4828                 5.5096                 5.8453
 IR Inten    --     27.4897                78.5233                14.2355

                     91                     92                     93
                      A                      A                      A
 Frequencies --   3047.2407              3047.7666              3057.2031
 Red. masses --      1.0709                 1.0386                 1.0611
 Frc consts  --      5.8588                 5.6843                 5.8433
 IR Inten    --     33.7320                37.3287                26.1113

                     94                     95                     96
                      A                      A                      A
 Frequencies --   3069.3871              3071.6163              3087.1100
 Red. masses --      1.0377                 1.0600                 1.0880
 Frc consts  --      5.7600                 5.8922                 6.1092
 IR Inten    --      7.9543                18.8976                35.0038

                     97                     98                     99
                      A                      A                      A
 Frequencies --   3099.2528              3101.0471              3112.9913
 Red. masses --      1.1017                 1.1025                 1.0888
 Frc consts  --      6.2350                 6.2469                 6.2165
 IR Inten    --     14.3638                41.6392                11.4820

                    100                    101                    102
                      A                      A                      A
 Frequencies --   3119.3799              3125.3590              3127.3613
 Red. masses --      1.0962                 1.1054                 1.1013
 Frc consts  --      6.2846                 6.3618                 6.3462
 IR Inten    --     24.8571                12.0691                 5.2941

                    103                    104                    105
                      A                      A                      A
 Frequencies --   3141.7938              3177.5976              3273.6155
 Red. masses --      1.0998                 1.1015                 1.0980
 Frc consts  --      6.3963                 6.5526                 6.9329
 IR Inten    --     10.8563                 2.7646                 9.5506

 - Thermochemistry -
 -------------------
 Temperature   298.150 Kelvin.  Pressure   1.00000 Atm.
 Atom     1 has atomic number  6 and mass  12.00000

 Molecular mass:   262.14298 amu.
 Principal axes and moments of inertia in atomic units:
                           1         2         3
     Eigenvalues --  1879.42459********************
           X            0.99991   0.00928  -0.00926
           Y           -0.00944   0.99980  -0.01791
           Z            0.00909   0.01799   0.99980
 This molecule is an asymmetric top.
 Rotational symmetry number  1.
 Warning -- assumption of classical behavior for rotation
           may cause significant error
 Rotational temperatures (Kelvin)      0.04609     0.00827     0.00793
 Rotational constants (GHZ):           0.96026     0.17226     0.16523
 Zero-point vibrational energy     815598.6 (Joules/Mol)
                                  194.93274 (Kcal/Mol)
 Warning -- explicit consideration of  24 degrees of freedom as
           vibrations may cause significant error
 Vibrational temperatures:     23.93    27.25    58.86    69.97    93.00
          (Kelvin)            106.20   151.14   209.76   248.70   263.53
                              292.21   307.59   375.47   405.67   461.14
                              488.12   500.13   511.95   578.19   612.89
                              649.46   762.10   779.18   848.97   911.79
                              927.00   936.73   991.69  1021.92  1043.49
                             1125.97  1161.74  1169.79  1211.67  1255.20
                             1292.63  1302.72  1316.16  1365.32  1398.80
                             1415.50  1442.81  1453.22  1472.92  1502.62
                             1503.37  1513.31  1548.22  1557.48  1558.15
                             1588.35  1612.95  1641.46  1676.80  1697.77
                             1737.77  1760.78  1786.59  1824.52  1856.64
                             1876.08  1915.40  1925.49  1940.93  1953.22
                             1979.57  1989.37  2010.04  2015.76  2043.23
                             2047.24  2067.46  2076.00  2082.13  2138.42
                             2161.87  2165.25  2166.87  2173.24  2186.00
                             2187.38  2188.90  2211.87  2239.14  2311.38
                             2360.79  2389.78  4236.49  4248.70  4359.18
                             4384.30  4385.06  4398.63  4416.16  4419.37
                             4441.66  4459.13  4461.72  4478.90  4488.09
                             4496.69  4499.58  4520.34  4571.85  4710.00

 Zero-point correction=                           0.310645 (Hartree/Particle)
 Thermal correction to Energy=                    0.328060
 Thermal correction to Enthalpy=                  0.329004
 Thermal correction to Gibbs Free Energy=         0.262049
 Sum of electronic and zero-point Energies=           -875.396481
 Sum of electronic and thermal Energies=              -875.379066
 Sum of electronic and thermal Enthalpies=            -875.378122
 Sum of electronic and thermal Free Energies=         -875.445077

                     E (Thermal)             CV                S
                      KCal/Mol        Cal/Mol-Kelvin    Cal/Mol-Kelvin
 Total                  205.861             65.096            140.918
 Electronic               0.000              0.000              0.000
 Translational            0.889              2.981             42.591
 Rotational               0.889              2.981             33.730
 Vibrational            204.083             59.134             64.597
 Vibration     1          0.593              1.986              7.001
 Vibration     2          0.593              1.986              6.742
 Vibration     3          0.594              1.981              5.215
 Vibration     4          0.595              1.978              4.872
 Vibration     5          0.597              1.971              4.310
 Vibration     6          0.599              1.966              4.049
 Vibration     7          0.605              1.945              3.358
 Vibration     8          0.617              1.907              2.726
 Vibration     9          0.626              1.876              2.404
 Vibration    10          0.631              1.863              2.296
 Vibration    11          0.639              1.835              2.105
 Vibration    12          0.644              1.820              2.011
 Vibration    13          0.669              1.744              1.655
 Vibration    14          0.681              1.707              1.522
 Vibration    15          0.706              1.634              1.308
 Vibration    16          0.719              1.597              1.216
 Vibration    17          0.725              1.580              1.177
 Vibration    18          0.731              1.563              1.140
 Vibration    19          0.767              1.466              0.956
 Vibration    20          0.788              1.414              0.872
 Vibration    21          0.810              1.358              0.792
 Vibration    22          0.885              1.184              0.588
 Vibration    23          0.897              1.158              0.562
 Vibration    24          0.947              1.053              0.467

                           ! Non-Optimized Parameters !
 Normal termination of Gaussian 16 at Sun Dec 13 13:13:07 2020.

 ----------------------------------------------------------------------
 # B3LYP/6-311++G(d,p) empiricaldispersion=gd3bj scf=xqc pop=npa geom=c
 heck
 ----------------------------------------------------------------------

 --------------------------------------
 CID_72123067_JID_9690_Energie_neutraal
 --------------------------------------
 Structure from the checkpoint file:  "JID_9690.chk"
 Charge =  0 Multiplicity = 1

 SCF Done:  E(RB3LYP) =  -875.939243202     A.U. after   15 cycles
 Normal termination of Gaussian 16 at Sun Dec 13 13:21:42 2020.

 ----------------------------------------------------------------------
 # B3LYP/6-311++G(d,p) empiricaldispersion=gd3bj scf=xqc pop=npa geom=c
 heck
 ----------------------------------------------------------------------

 ------------------------------------
 CID_72123067_JID_9690_Energie_kation
 ------------------------------------
 Structure from the checkpoint file:  "JID_9690.chk"
 Charge =  1 Multiplicity = 2

 SCF Done:  E(UB3LYP) =  -875.653812913     A.U. after   23 cycles
 Normal termination of Gaussian 16 at Sun Dec 13 13:40:45 2020.
 Gaussian 16:  ES64L-G16RevA.03 25-Dec-2016

 ----------------------------------------------------------------------
 # B3LYP/6-311++G(d,p) empiricaldispersion=gd3bj scf=xqc pop=npa geom=c
 heck
 ----------------------------------------------------------------------

 -----------------------------------
 CID_72123067_JID_9690_Energie_anion
 -----------------------------------
 Structure from the checkpoint file:  "JID_9690.chk"
 Charge = -1 Multiplicity = 2

                         Standard orientation:
 ---------------------------------------------------------------------
 Center     Atomic      Atomic             Coordinates (Angstroms)
 Number     Number       Type             X           Y           Z
 ---------------------------------------------------------------------
      1          6           0       -5.148058   -1.401178    1.301365
      2          6           0       -4.406986   -0.589332    0.303764
      3          6           0       -4.662250    0.541483   -0.404547
      4          7           0       -3.572930    0.847035   -1.215793
      5          6           0       -2.709959   -0.095432   -0.980176
      6          8           0       -3.145992   -1.011345   -0.058384
      7          6           0       -1.308254   -0.232272   -1.498773
      8          7           0       -0.271217    0.336238   -0.641571
      9          6           0       -0.380967    1.784507   -0.465561
     10          6           0        0.895616    2.325965    0.180055
     11          6           0        1.183125    1.611796    1.504425
     12          6           0        1.182441    0.083332    1.320709
     13          6           0       -0.115941   -0.363258    0.629995
     14          6           0        2.394470   -0.398090    0.565860
     15          7           0        2.413608   -1.534630   -0.084889
     16          8           0        3.729923   -1.600825   -0.590730
     17          6           0        4.354145   -0.483312   -0.181351
     18          7           0        3.592785    0.293965    0.533696
     19          6           0        5.771845   -0.281583   -0.581396
     20          1           0       -5.305388   -2.427150    0.947427
     21          1           0       -4.606523   -1.459372    2.253321
     22          1           0       -6.126009   -0.950150    1.490453
     23          1           0       -5.551677    1.155509   -0.392512
     24          1           0       -1.078010   -1.291762   -1.653472
     25          1           0       -1.269607    0.274187   -2.467691
     26          1           0       -1.258463    2.057254    0.151319
     27          1           0       -0.535959    2.237676   -1.450644
     28          1           0        0.795292    3.405160    0.346133
     29          1           0        1.736722    2.175502   -0.506230
     30          1           0        2.138491    1.940460    1.922443
     31          1           0        0.398362    1.860184    2.231401
     32          1           0        1.214774   -0.387142    2.313622
     33          1           0       -0.087702   -1.438399    0.433327
     34          1           0       -0.959280   -0.173600    1.319845
     35          1           0        6.397273   -1.103324   -0.217092
     36          1           0        5.864062   -0.251108   -1.672234
     37          1           0        6.131104    0.659419   -0.162822
 ---------------------------------------------------------------------

 SCF Done:  E(UB3LYP) =  -875.929256292     A.U. after   33 cycles
 SCF Done:  E(UB3LYP) =  -875.929256292     a.u. after    1 cycles

 The electronic state is 2-A.
 Alpha  occ. eigenvalues --  -19.11787 -19.10762 -14.26165 -14.22281 -14.22237
 Alpha  occ. eigenvalues --  -14.22110 -10.18198 -10.16758 -10.14662 -10.14071
 Alpha  occ. eigenvalues --  -10.12392 -10.10554 -10.10404 -10.10289 -10.10233
 Alpha  occ. eigenvalues --  -10.09940 -10.09129 -10.07952 -10.07693  -1.06511
 Alpha  occ. eigenvalues --   -1.04127  -0.85200  -0.84132  -0.83072  -0.78288
 Alpha  occ. eigenvalues --   -0.72593  -0.70464  -0.67543  -0.65680  -0.64492
 Alpha  occ. eigenvalues --   -0.59591  -0.56800  -0.54519  -0.52648  -0.51883
 Alpha  occ. eigenvalues --   -0.50638  -0.48529  -0.46075  -0.42928  -0.41597
 Alpha  occ. eigenvalues --   -0.40737  -0.40188  -0.38788  -0.37951  -0.36692
 Alpha  occ. eigenvalues --   -0.35589  -0.35195  -0.34104  -0.33881  -0.33520
 Alpha  occ. eigenvalues --   -0.32978  -0.32658  -0.32089  -0.31516  -0.31114
 Alpha  occ. eigenvalues --   -0.30745  -0.30064  -0.28312  -0.27256  -0.24958
 Alpha  occ. eigenvalues --   -0.24797  -0.24122  -0.23611  -0.23307  -0.22371
 Alpha  occ. eigenvalues --   -0.20613  -0.20093  -0.18692  -0.15379  -0.13302
 Alpha  occ. eigenvalues --    0.03775
 Alpha virt. eigenvalues --    0.04908   0.05860   0.06758   0.07215   0.07442
 Alpha virt. eigenvalues --    0.08048   0.08460   0.08882   0.09338   0.09479
 Alpha virt. eigenvalues --    0.09759   0.10317   0.10803   0.11282   0.11836

  Beta  occ. eigenvalues --  -19.11716 -19.10753 -14.26076 -14.22293 -14.22235
  Beta  occ. eigenvalues --  -14.22106 -10.18115 -10.16755 -10.14661 -10.14039
  Beta  occ. eigenvalues --  -10.12391 -10.10542 -10.10394 -10.10285 -10.10200
  Beta  occ. eigenvalues --  -10.09939 -10.09074 -10.07943 -10.07686  -1.06390
  Beta  occ. eigenvalues --   -1.04116  -0.85179  -0.84085  -0.83064  -0.78152
  Beta  occ. eigenvalues --   -0.72570  -0.70436  -0.67518  -0.65589  -0.64457
  Beta  occ. eigenvalues --   -0.59552  -0.56749  -0.54495  -0.52610  -0.51847
  Beta  occ. eigenvalues --   -0.50539  -0.48508  -0.46027  -0.42894  -0.41544
  Beta  occ. eigenvalues --   -0.40610  -0.40017  -0.38766  -0.37907  -0.36657
  Beta  occ. eigenvalues --   -0.35554  -0.35157  -0.34058  -0.33795  -0.33456
  Beta  occ. eigenvalues --   -0.32891  -0.32614  -0.32032  -0.31481  -0.31082
  Beta  occ. eigenvalues --   -0.30719  -0.30037  -0.28295  -0.27221  -0.24912
  Beta  occ. eigenvalues --   -0.24726  -0.24010  -0.23590  -0.23294  -0.22265
  Beta  occ. eigenvalues --   -0.20605  -0.20048  -0.18266  -0.15357  -0.13276
  Beta virt. eigenvalues --    0.05775   0.06054   0.06685   0.07139   0.07486
  Beta virt. eigenvalues --    0.07611   0.08334   0.08576   0.09299   0.09549
  Beta virt. eigenvalues --    0.09779   0.10203   0.10524   0.10817   0.11677

 Mulliken charges and spin densities:
               1          2
     1  C    2.067171  -2.603884
     2  C   -0.777648   1.184897
     3  C   -0.376259   0.143658
     4  N    0.019552   0.042457
     5  C   -0.183509   0.014941
     6  O    0.033175   0.032514
     7  C    0.041642  -0.589603
     8  N    0.314582   0.011279
     9  C   -0.246438  -0.063211
    10  C   -0.310365  -0.112584
    11  C   -0.391001  -0.284824
    12  C    0.482365  -0.319951
    13  C   -1.230715   0.148804
    14  C   -0.277293   0.151352
    15  N   -0.368871   0.078753
    16  O    0.218353   0.009972
    17  C   -0.806096   1.234535
    18  N   -0.086695   0.052459
    19  C    1.868043  -2.265990
    20  H   -0.222681   0.385221
    21  H   -0.375309   0.541242
    22  H   -0.538275   0.713398
    23  H   -0.408381   0.567119
    24  H    0.165477   0.024799
    25  H    0.149176   0.036669
    26  H    0.177529  -0.026803
    27  H    0.120165   0.033709
    28  H    0.050512   0.119734
    29  H    0.130543   0.024861
    30  H    0.189487  -0.006444
    31  H   -0.156365   0.292088
    32  H   -0.139465   0.408203
    33  H    0.146950   0.064139
    34  H    0.299579  -0.147488
    35  H   -0.099236   0.265759
    36  H   -0.380175   0.567628
    37  H   -0.099523   0.270592
 Sum of Mulliken charges =  -1.00000   1.00000

 Dipole moment (field-independent basis, Debye):
    X=              2.4163    Y=              1.7263    Z=             -1.6867  Tot=              3.4152
 Quadrupole moment (field-independent basis, Debye-Ang):
   XX=           -249.0731   YY=           -146.7984   ZZ=           -149.7689
   XY=             -4.0428   XZ=             20.5199   YZ=              3.2787

 Summary of Natural Population Analysis:

                                       Natural Population
                Natural  -----------------------------------------------
    Atom  No    Charge         Core      Valence    Rydberg      Total
 -----------------------------------------------------------------------
      C    1   -0.30756      0.99963     2.30208    0.00585     3.30756
      C    2    0.13822      0.99948     1.84824    0.01407     2.86178
      C    3   -0.05075      0.99948     2.03756    0.01370     3.05075
      N    4   -0.25316      0.99968     2.74431    0.00917     3.75316
      C    5    0.25492      0.99960     1.72597    0.01951     2.74508
      O    6   -0.24262      0.99985     3.23508    0.00768     4.24262
      C    7   -0.10909      0.99957     2.09879    0.01073     3.10909
      N    8   -0.27311      0.99972     2.76273    0.01067     3.77311
      C    9   -0.08449      0.99961     2.07554    0.00934     3.08449
      C   10   -0.19506      0.99962     2.18777    0.00767     3.19506
      C   11   -0.18863      0.99962     2.17940    0.00962     3.18863
      C   12   -0.13278      0.99954     2.12135    0.01188     3.13278
      C   13   -0.08464      0.99960     2.07180    0.01323     3.08464
      C   14    0.18838      0.99962     1.79193    0.02007     2.81162
      N   15   -0.08360      0.99966     2.57199    0.01195     3.58360
      O   16   -0.16793      0.99985     3.16023    0.00785     4.16793
      C   17    0.29771      0.99964     1.68357    0.01908     2.70229
      N   18   -0.28005      0.99967     2.77140    0.00897     3.78005
      C   19   -0.31596      0.99962     2.31097    0.00537     3.31596
      H   20    0.10909      0.00000     0.38943    0.00149     0.39091
      H   21    0.11151      0.00000     0.38669    0.00180     0.38849
      H   22    0.11293      0.00000     0.38484    0.00223     0.38707
      H   23    0.10237      0.00000     0.39652    0.00111     0.39763
      H   24    0.10703      0.00000     0.39197    0.00099     0.39297
      H   25    0.10733      0.00000     0.39170    0.00097     0.39267
      H   26    0.08382      0.00000     0.41450    0.00168     0.41618
      H   27    0.09699      0.00000     0.40194    0.00108     0.40301
      H   28    0.09770      0.00000     0.40138    0.00093     0.40230
      H   29    0.10227      0.00000     0.39620    0.00153     0.39773
      H   30    0.10918      0.00000     0.38950    0.00131     0.39082
      H   31    0.09741      0.00000     0.40139    0.00120     0.40259
      H   32    0.11385      0.00000     0.38481    0.00134     0.38615
      H   33    0.10722      0.00000     0.39105    0.00173     0.39278
      H   34    0.08729      0.00000     0.41095    0.00175     0.41271
      H   35    0.11171      0.00000     0.38737    0.00092     0.38829
      H   36    0.11720      0.00000     0.38002    0.00277     0.38280
      H   37    0.11530      0.00000     0.38364    0.00106     0.38470
 =======================================================================
   * Total *   -0.00000     18.99307    50.76463    0.24230    70.00000

 Normal termination of Gaussian 16 at Sun Dec 13 14:08:32 2020.
