 Gaussian 16, Revision A.03,

 -----------------------------------------------------------
 # opt freq B3LYP/6-31G(d) empiricaldispersion=gd3bj scf=xqc
 -----------------------------------------------------------

 -------------------------------
 CID_65219080_JID_10756_neutraal
 -------------------------------
 Symbolic Z-matrix:
 Charge =  0 Multiplicity = 1

 SCF Done:  E(RB3LYP) =  -917.712066849     A.U. after   15 cycles
 SCF Done:  E(RB3LYP) =  -917.716993194     A.U. after   13 cycles
 SCF Done:  E(RB3LYP) =  -917.716456770     A.U. after   14 cycles
 SCF Done:  E(RB3LYP) =  -917.718324973     A.U. after   12 cycles
 SCF Done:  E(RB3LYP) =  -917.719123162     A.U. after   12 cycles
 SCF Done:  E(RB3LYP) =  -917.719887546     A.U. after   12 cycles
 SCF Done:  E(RB3LYP) =  -917.720987299     A.U. after   14 cycles
 SCF Done:  E(RB3LYP) =  -917.721572474     A.U. after   12 cycles
 SCF Done:  E(RB3LYP) =  -917.721700802     A.U. after   12 cycles
 SCF Done:  E(RB3LYP) =  -917.722072616     A.U. after   12 cycles
 SCF Done:  E(RB3LYP) =  -917.722204717     A.U. after   10 cycles
 SCF Done:  E(RB3LYP) =  -917.722204988     A.U. after    9 cycles
 SCF Done:  E(RB3LYP) =  -917.722205128     A.U. after    9 cycles
 SCF Done:  E(RB3LYP) =  -917.722205122     A.U. after    8 cycles
 SCF Done:  E(RB3LYP) =  -917.722205128     A.U. after    6 cycles
 Optimization completed.
    -- Stationary point found.
 Normal termination of Gaussian 16 at Sun Dec 13 21:00:07 2020.

 --------------------------------------------------------------------
 #N Geom=AllCheck Guess=TCheck SCRF=Check GenChk RB3LYP/6-31G(d) Freq
 --------------------------------------------------------------------

 Structure from the checkpoint file:  "JID_10756.chk"
 -------------------------------
 CID_65219080_JID_10756_neutraal
 -------------------------------
 Charge =  0 Multiplicity = 1

 SCF Done:  E(RB3LYP) =  -917.722205128     A.U. after    1 cycles

  Exact polarizability: 198.674   8.350 196.037 -34.545   0.611 118.400
 Approx polarizability: 274.718  15.134 330.662 -70.960   3.218 198.822

                      1                      2                      3
                      A                      A                      A
 Frequencies --      8.4235                17.0263                41.3836
 Red. masses --      5.8065                 6.5296                 4.5868
 Frc consts  --      0.0002                 0.0011                 0.0046
 IR Inten    --      0.6121                 0.9852                 2.8896

                      4                      5                      6
                      A                      A                      A
 Frequencies --     45.0839                53.7604                69.7286
 Red. masses --      4.6451                 5.1117                 7.7010
 Frc consts  --      0.0056                 0.0087                 0.0221
 IR Inten    --      2.5433                 1.1601                 1.0567

                      7                      8                      9
                      A                      A                      A
 Frequencies --     93.1989               121.5015               133.0896
 Red. masses --      3.3490                 3.0993                 5.7386
 Frc consts  --      0.0171                 0.0270                 0.0599
 IR Inten    --      1.2872                 0.7944                 0.4090

                     10                     11                     12
                      A                      A                      A
 Frequencies --    169.9803               196.3447               222.6664
 Red. masses --      3.0372                 3.8650                 1.9928
 Frc consts  --      0.0517                 0.0878                 0.0582
 IR Inten    --      0.2381                 1.1402                 0.7980

                     13                     14                     15
                      A                      A                      A
 Frequencies --    227.2702               258.1826               284.1098
 Red. masses --      3.9865                 2.4231                 3.8147
 Frc consts  --      0.1213                 0.0952                 0.1814
 IR Inten    --     12.0808                 0.4312                 3.2912

                     16                     17                     18
                      A                      A                      A
 Frequencies --    321.1662               357.7267               365.3339
 Red. masses --      2.2515                 3.6160                 4.5074
 Frc consts  --      0.1368                 0.2726                 0.3544
 IR Inten    --      2.6297                 3.0037                 4.4256

                     19                     20                     21
                      A                      A                      A
 Frequencies --    426.4904               434.0235               439.9178
 Red. masses --      1.7665                 2.8955                 2.5862
 Frc consts  --      0.1893                 0.3214                 0.2949
 IR Inten    --     65.9987                 2.0407                19.4699

                     22                     23                     24
                      A                      A                      A
 Frequencies --    443.7389               455.0777               519.3856
 Red. masses --      2.2426                 3.9864                 2.8639
 Frc consts  --      0.2602                 0.4864                 0.4552
 IR Inten    --      8.6341                 7.0051                15.9110

                     25                     26                     27
                      A                      A                      A
 Frequencies --    525.5710               581.5915               595.3671
 Red. masses --      4.4511                 4.2328                 3.1080
 Frc consts  --      0.7244                 0.8436                 0.6491
 IR Inten    --      6.1312                 5.9975                29.6572

                     28                     29                     30
                      A                      A                      A
 Frequencies --    599.5878               601.7711               632.7525
 Red. masses --      3.1102                 3.6774                 2.8435
 Frc consts  --      0.6588                 0.7846                 0.6708
 IR Inten    --     48.3145                30.2852                 6.2890

                     31                     32                     33
                      A                      A                      A
 Frequencies --    655.0256               692.4187               717.8066
 Red. masses --      1.6981                 4.4041                 2.0046
 Frc consts  --      0.4293                 1.2441                 0.6086
 IR Inten    --     27.2789                 8.5955                44.3550

                     34                     35                     36
                      A                      A                      A
 Frequencies --    746.9515               757.1758               765.5995
 Red. masses --      1.5438                 1.3275                 3.1257
 Frc consts  --      0.5075                 0.4484                 1.0794
 IR Inten    --     24.7770                15.4860               112.0433

                     37                     38                     39
                      A                      A                      A
 Frequencies --    781.0030               785.8277               810.3033
 Red. masses --      3.4336                 3.3226                 3.1300
 Frc consts  --      1.2340                 1.2089                 1.2108
 IR Inten    --     10.5049                11.1199                22.4554

                     40                     41                     42
                      A                      A                      A
 Frequencies --    830.0636               843.1121               864.0896
 Red. masses --      1.6930                 1.9145                 1.4847
 Frc consts  --      0.6873                 0.8018                 0.6531
 IR Inten    --      4.7688                 4.4283                 0.7874

                     43                     44                     45
                      A                      A                      A
 Frequencies --    880.0138               894.1724               905.4211
 Red. masses --      2.5433                 4.8351                 2.1841
 Frc consts  --      1.1605                 2.2777                 1.0549
 IR Inten    --      2.7183                 0.6293                14.5421

                     46                     47                     48
                      A                      A                      A
 Frequencies --    932.3918               940.4419               974.2212
 Red. masses --      1.3330                 1.6674                 1.2320
 Frc consts  --      0.6828                 0.8689                 0.6890
 IR Inten    --      2.2070                 5.4410                 0.4003

                     49                     50                     51
                      A                      A                      A
 Frequencies --    994.9447              1038.1058              1047.4552
 Red. masses --      2.3528                 2.6828                 2.2529
 Frc consts  --      1.3722                 1.7034                 1.4563
 IR Inten    --      6.3067                11.3733                10.7556

                     52                     53                     54
                      A                      A                      A
 Frequencies --   1065.5478              1078.7808              1101.2580
 Red. masses --      1.8748                 2.1409                 2.3725
 Frc consts  --      1.2542                 1.4680                 1.6952
 IR Inten    --      7.6614                 1.7936                 4.5686

                     55                     56                     57
                      A                      A                      A
 Frequencies --   1122.5534              1138.2737              1158.4946
 Red. masses --      1.4571                 2.0256                 1.4854
 Frc consts  --      1.0818                 1.5463                 1.1746
 IR Inten    --     35.3353                69.1995                 9.8935

                     58                     59                     60
                      A                      A                      A
 Frequencies --   1172.8282              1187.7598              1204.1360
 Red. masses --      2.6075                 1.1277                 2.3167
 Frc consts  --      2.1132                 0.9373                 1.9791
 IR Inten    --     34.2209                 1.9487               173.3668

                     61                     62                     63
                      A                      A                      A
 Frequencies --   1218.6510              1256.3353              1277.8518
 Red. masses --      2.1295                 1.4546                 1.4937
 Frc consts  --      1.8633                 1.3527                 1.4370
 IR Inten    --    100.4871                 9.9847                25.8168

                     64                     65                     66
                      A                      A                      A
 Frequencies --   1280.0124              1300.3024              1314.8046
 Red. masses --      1.5610                 1.6950                 1.6060
 Frc consts  --      1.5069                 1.6885                 1.6357
 IR Inten    --     17.0678                26.0098                21.3689

                     67                     68                     69
                      A                      A                      A
 Frequencies --   1327.8470              1356.3239              1366.5533
 Red. masses --      1.4779                 1.2618                 2.0379
 Frc consts  --      1.5353                 1.3676                 2.2423
 IR Inten    --     10.3512                12.3855                26.2441

                     70                     71                     72
                      A                      A                      A
 Frequencies --   1379.3623              1386.8283              1396.6059
 Red. masses --      1.9044                 3.8197                 1.9485
 Frc consts  --      2.1348                 4.3284                 2.2392
 IR Inten    --      8.9083                42.1092                20.8799

                     73                     74                     75
                      A                      A                      A
 Frequencies --   1403.6993              1419.3690              1427.7448
 Red. masses --      1.9737                 1.5180                 1.8579
 Frc consts  --      2.2913                 1.8018                 2.2314
 IR Inten    --     26.4570                 3.2698                68.1929

                     76                     77                     78
                      A                      A                      A
 Frequencies --   1446.1857              1462.7879              1490.9980
 Red. masses --      1.2677                 2.5313                 1.4620
 Frc consts  --      1.5621                 3.1912                 1.9149
 IR Inten    --      5.3429                74.1536                32.3893

                     79                     80                     81
                      A                      A                      A
 Frequencies --   1500.4281              1514.4977              1524.0553
 Red. masses --      2.5919                 1.0887                 1.0810
 Frc consts  --      3.4380                 1.4713                 1.4793
 IR Inten    --     22.0321                10.2918                 1.8901

                     82                     83                     84
                      A                      A                      A
 Frequencies --   1530.3471              1536.0842              1541.6365
 Red. masses --      1.0562                 1.0580                 2.0647
 Frc consts  --      1.4573                 1.4708                 2.8912
 IR Inten    --      9.8218                 3.6655                 7.0148

                     85                     86                     87
                      A                      A                      A
 Frequencies --   1542.4033              1591.8526              1633.4071
 Red. masses --      1.2649                 5.3225                 5.7022
 Frc consts  --      1.7729                 7.9464                 8.9635
 IR Inten    --      2.4890               134.7928                 1.0043

                     88                     89                     90
                      A                      A                      A
 Frequencies --   1680.5827              1760.2314              1835.5033
 Red. masses --      6.2253                 8.0394                 9.8280
 Frc consts  --     10.3593                14.6762                19.5087
 IR Inten    --      6.9427               332.7062               250.6205

                     91                     92                     93
                      A                      A                      A
 Frequencies --   3040.3301              3046.5404              3054.7065
 Red. masses --      1.0626                 1.0380                 1.0684
 Frc consts  --      5.7873                 5.6765                 5.8737
 IR Inten    --     17.9892                24.3110                 8.6009

                     94                     95                     96
                      A                      A                      A
 Frequencies --   3061.7098              3072.3186              3084.2378
 Red. masses --      1.0819                 1.0917                 1.0734
 Frc consts  --      5.9752                 6.0712                 6.0157
 IR Inten    --      4.6988                28.3030                35.6608

                     97                     98                     99
                      A                      A                      A
 Frequencies --   3095.2604              3111.9627              3118.2807
 Red. masses --      1.1012                 1.1019                 1.1015
 Frc consts  --      6.2162                 6.2874                 6.3107
 IR Inten    --     36.1423                57.5946                45.9706

                    100                    101                    102
                      A                      A                      A
 Frequencies --   3181.3435              3185.1670              3193.6925
 Red. masses --      1.0938                 1.0856                 1.0896
 Frc consts  --      6.5225                 6.4889                 6.5479
 IR Inten    --      1.9014                 0.2303                15.5479

                    103                    104                    105
                      A                      A                      A
 Frequencies --   3207.4965              3217.0773              3292.1274
 Red. masses --      1.0938                 1.0952                 1.0973
 Frc consts  --      6.6302                 6.6785                 7.0070
 IR Inten    --     31.1714                13.7596                 0.2724

                    106                    107                    108
                      A                      A                      A
 Frequencies --   3557.6768              3667.9108              3685.4987
 Red. masses --      1.0740                 1.0802                 1.0639
 Frc consts  --      8.0093                 8.5622                 8.5144
 IR Inten    --     11.9728                72.0850                46.7509

 - Thermochemistry -
 -------------------
 Temperature   298.150 Kelvin.  Pressure   1.00000 Atm.
 Atom     1 has atomic number  6 and mass  12.00000

 Molecular mass:   274.13174 amu.
 Principal axes and moments of inertia in atomic units:
                           1         2         3
     Eigenvalues --  3300.347018144.778239594.32479
           X            0.99974  -0.02202  -0.00505
           Y            0.02205   0.99974   0.00552
           Z            0.00493  -0.00563   0.99997
 This molecule is an asymmetric top.
 Rotational symmetry number  1.
 Warning -- assumption of classical behavior for rotation
           may cause significant error
 Rotational temperatures (Kelvin)      0.02624     0.01063     0.00903
 Rotational constants (GHZ):           0.54683     0.22158     0.18811
 Zero-point vibrational energy     830830.8 (Joules/Mol)
                                  198.57332 (Kcal/Mol)
 Warning -- explicit consideration of  29 degrees of freedom as
           vibrations may cause significant error
 Vibrational temperatures:     12.12    24.50    59.54    64.87    77.35
          (Kelvin)            100.32   134.09   174.81   191.49   244.56
                              282.50   320.37   326.99   371.47   408.77
                              462.09   514.69   525.63   613.62   624.46
                              632.94   638.44   654.76   747.28   756.18
                              836.78   856.60   862.67   865.81   910.39
                              942.44   996.24  1032.76  1074.70  1089.41
                             1101.53  1123.69  1130.63  1165.85  1194.28
                             1213.05  1243.23  1266.14  1286.51  1302.70
                             1341.50  1353.09  1401.69  1431.50  1493.60
                             1507.05  1533.09  1552.12  1584.46  1615.10
                             1637.72  1666.82  1687.44  1708.92  1732.48
                             1753.37  1807.59  1838.54  1841.65  1870.85
                             1891.71  1910.48  1951.45  1966.17  1984.59
                             1995.34  2009.40  2019.61  2042.16  2054.21
                             2080.74  2104.63  2145.21  2158.78  2179.02
                             2192.78  2201.83  2210.08  2218.07  2219.17
                             2290.32  2350.11  2417.98  2532.58  2640.88
                             4374.36  4383.29  4395.04  4405.12  4420.38
                             4437.53  4453.39  4477.42  4486.51  4577.24
                             4582.74  4595.01  4614.87  4628.66  4736.64
                             5118.70  5277.31  5302.61

 Zero-point correction=                           0.316447 (Hartree/Particle)
 Thermal correction to Energy=                    0.335222
 Thermal correction to Enthalpy=                  0.336166
 Thermal correction to Gibbs Free Energy=         0.265761
 Sum of electronic and zero-point Energies=           -917.405758
 Sum of electronic and thermal Energies=              -917.386983
 Sum of electronic and thermal Enthalpies=            -917.386039
 Sum of electronic and thermal Free Energies=         -917.456444

                     E (Thermal)             CV                S
                      KCal/Mol        Cal/Mol-Kelvin    Cal/Mol-Kelvin
 Total                  210.355             71.134            148.180
 Electronic               0.000              0.000              0.000
 Translational            0.889              2.981             42.724
 Rotational               0.889              2.981             33.911
 Vibrational            208.578             65.173             71.546
 Vibration     1          0.593              1.987              8.352
 Vibration     2          0.593              1.986              6.954
 Vibration     3          0.594              1.981              5.192
 Vibration     4          0.595              1.979              5.022
 Vibration     5          0.596              1.976              4.674
 Vibration     6          0.598              1.969              4.161
 Vibration     7          0.602              1.954              3.592
 Vibration     8          0.609              1.931              3.076
 Vibration     9          0.613              1.920              2.901
 Vibration    10          0.625              1.879              2.436
 Vibration    11          0.636              1.845              2.167
 Vibration    12          0.648              1.807              1.937
 Vibration    13          0.651              1.799              1.900
 Vibration    14          0.667              1.749              1.674
 Vibration    15          0.683              1.703              1.509
 Vibration    16          0.707              1.633              1.304
 Vibration    17          0.733              1.559              1.132
 Vibration    18          0.739              1.544              1.099
 Vibration    19          0.788              1.413              0.870
 Vibration    20          0.795              1.396              0.846
 Vibration    21          0.800              1.383              0.827
 Vibration    22          0.803              1.375              0.815
 Vibration    23          0.813              1.350              0.781
 Vibration    24          0.874              1.207              0.611
 Vibration    25          0.881              1.193              0.597
 Vibration    26          0.938              1.071              0.482
 Vibration    27          0.953              1.042              0.458
 Vibration    28          0.958              1.033              0.450
 Vibration    29          0.960              1.028              0.447

 Optimization completed on the basis of negligible forces.
    -- Stationary point found.
 Normal termination of Gaussian 16 at Sun Dec 13 21:18:57 2020.

 ----------------------------------------------------------------------
 # B3LYP/6-311++G(d,p) empiricaldispersion=gd3bj scf=xqc pop=npa geom=c
 heck
 ----------------------------------------------------------------------

 ---------------------------------------
 CID_65219080_JID_10756_Energie_neutraal
 ---------------------------------------
 Structure from the checkpoint file:  "JID_10756.chk"
 Charge =  0 Multiplicity = 1

 SCF Done:  E(RB3LYP) =  -917.989188409     A.U. after   15 cycles
 Normal termination of Gaussian 16 at Sun Dec 13 21:26:06 2020.

 ----------------------------------------------------------------------
 # B3LYP/6-311++G(d,p) empiricaldispersion=gd3bj scf=xqc pop=npa geom=c
 heck
 ----------------------------------------------------------------------

 -------------------------------------
 CID_65219080_JID_10756_Energie_kation
 -------------------------------------
 Structure from the checkpoint file:  "JID_10756.chk"
 Charge =  1 Multiplicity = 2

 SCF Done:  E(UB3LYP) =  -917.707119115     A.U. after   26 cycles
 Normal termination of Gaussian 16 at Sun Dec 13 21:42:44 2020.
 Gaussian 16:  ES64L-G16RevA.03 25-Dec-2016

 ----------------------------------------------------------------------
 # B3LYP/6-311++G(d,p) empiricaldispersion=gd3bj scf=xqc pop=npa geom=c
 heck
 ----------------------------------------------------------------------

 ------------------------------------
 CID_65219080_JID_10756_Energie_anion
 ------------------------------------
 Structure from the checkpoint file:  "JID_10756.chk"
 Charge = -1 Multiplicity = 2

                         Standard orientation:
 ---------------------------------------------------------------------
 Center     Atomic      Atomic             Coordinates (Angstroms)
 Number     Number       Type             X           Y           Z
 ---------------------------------------------------------------------
      1          6           0       -4.270735    2.555067   -0.591648
      2          6           0       -4.110022    1.532968    0.537744
      3          6           0       -3.637342    0.147517    0.071668
      4          6           0       -2.290028    0.144031   -0.669876
      5          6           0       -1.117944    0.747733    0.143197
      6          7           0       -0.807488   -0.009159    1.352951
      7          6           0        0.093767   -1.069075    1.386738
      8          8           0       -0.142664   -2.071379    2.055916
      9          6           0        1.347752   -0.904793    0.629037
     10          6           0        2.017269   -1.970111    0.070687
     11          7           0        3.156044   -1.526977   -0.551077
     12          6           0        3.267002   -0.154541   -0.395807
     13          6           0        4.259063    0.726241   -0.831165
     14          6           0        4.115760    2.067945   -0.496319
     15          6           0        3.016119    2.514821    0.262524
     16          6           0        2.031467    1.634339    0.692651
     17          6           0        2.137529    0.275301    0.353756
     18          6           0       -1.846989   -1.232107   -1.146316
     19          8           0       -0.901691   -1.423955   -1.880795
     20          8           0       -2.582383   -2.244289   -0.632890
     21          1           0       -3.311182    2.804954   -1.058492
     22          1           0       -4.704623    3.488640   -0.217867
     23          1           0       -4.931179    2.170493   -1.378535
     24          1           0       -3.424304    1.931180    1.297347
     25          1           0       -5.073523    1.404349    1.046516
     26          1           0       -3.582262   -0.529011    0.932067
     27          1           0       -4.396836   -0.285630   -0.590415
     28          1           0       -2.371409    0.750217   -1.580567
     29          1           0       -0.231785    0.767937   -0.488672
     30          1           0       -1.357129    1.782069    0.409682
     31          1           0       -1.610192   -0.225690    1.935909
     32          1           0        1.738997   -3.013320    0.068250
     33          1           0        3.799221   -2.107835   -1.066031
     34          1           0        5.112636    0.376479   -1.405207
     35          1           0        4.868317    2.781305   -0.819064
     36          1           0        2.941764    3.567620    0.519227
     37          1           0        1.196561    1.982004    1.292378
     38          1           0       -2.165075   -3.067842   -0.948716
 ---------------------------------------------------------------------

 SCF Done:  E(UB3LYP) =  -917.980008781     A.U. after   33 cycles
 SCF Done:  E(UB3LYP) =  -917.981359140     a.u. after    9 cycles

 The electronic state is 2-A.
 Alpha  occ. eigenvalues --  -19.09043 -19.02814 -18.99176 -14.26898 -14.23814
 Alpha  occ. eigenvalues --  -10.21873 -10.17799 -10.12264 -10.11790 -10.11724
 Alpha  occ. eigenvalues --  -10.10868 -10.08805 -10.08652 -10.08557 -10.08517
 Alpha  occ. eigenvalues --  -10.08300 -10.08105 -10.07981 -10.07622 -10.07525
 Alpha  occ. eigenvalues --   -1.02891  -0.94137  -0.93653  -0.89421  -0.83035
 Alpha  occ. eigenvalues --   -0.75549  -0.73323  -0.70196  -0.67569  -0.65124
 Alpha  occ. eigenvalues --   -0.63700  -0.60770  -0.58271  -0.55582  -0.53624
 Alpha  occ. eigenvalues --   -0.52211  -0.50588  -0.49247  -0.46060  -0.45369
 Alpha  occ. eigenvalues --   -0.42556  -0.40711  -0.40431  -0.40120  -0.39179
 Alpha  occ. eigenvalues --   -0.38201  -0.37265  -0.35967  -0.35064  -0.34788
 Alpha  occ. eigenvalues --   -0.34401  -0.33764  -0.33126  -0.32648  -0.32141
 Alpha  occ. eigenvalues --   -0.31070  -0.30455  -0.29971  -0.28829  -0.28151
 Alpha  occ. eigenvalues --   -0.27244  -0.26173  -0.25793  -0.25560  -0.25206
 Alpha  occ. eigenvalues --   -0.24512  -0.23822  -0.19606  -0.19199  -0.17617
 Alpha  occ. eigenvalues --   -0.15739  -0.14238  -0.12305   0.03694
 Alpha virt. eigenvalues --    0.04884   0.05610   0.06450   0.06943   0.07045
 Alpha virt. eigenvalues --    0.07282   0.07670   0.08622   0.08693   0.09063
 Alpha virt. eigenvalues --    0.10011   0.10026   0.10523   0.10833   0.11172

  Beta  occ. eigenvalues --  -19.09033 -19.02788 -18.99155 -14.26841 -14.23805
  Beta  occ. eigenvalues --  -10.21830 -10.17777 -10.12245 -10.11795 -10.11652
  Beta  occ. eigenvalues --  -10.10867 -10.08798 -10.08652 -10.08517 -10.08495
  Beta  occ. eigenvalues --  -10.08295 -10.08075 -10.07974 -10.07625 -10.07489
  Beta  occ. eigenvalues --   -1.02847  -0.94096  -0.93611  -0.89338  -0.83004
  Beta  occ. eigenvalues --   -0.75503  -0.73291  -0.70137  -0.67523  -0.65067
  Beta  occ. eigenvalues --   -0.63631  -0.60726  -0.58200  -0.55498  -0.53534
  Beta  occ. eigenvalues --   -0.52158  -0.50548  -0.49191  -0.46016  -0.45296
  Beta  occ. eigenvalues --   -0.42513  -0.40657  -0.40389  -0.40048  -0.39119
  Beta  occ. eigenvalues --   -0.38170  -0.37209  -0.35920  -0.35004  -0.34747
  Beta  occ. eigenvalues --   -0.34361  -0.33672  -0.33060  -0.32603  -0.32110
  Beta  occ. eigenvalues --   -0.31024  -0.30412  -0.29934  -0.28756  -0.28119
  Beta  occ. eigenvalues --   -0.27213  -0.26135  -0.25757  -0.25508  -0.25085
  Beta  occ. eigenvalues --   -0.24476  -0.23730  -0.19575  -0.19101  -0.17572
  Beta  occ. eigenvalues --   -0.15691  -0.14126  -0.12130
  Beta virt. eigenvalues --    0.05674   0.06005   0.06450   0.06620   0.07367
  Beta virt. eigenvalues --    0.07505   0.07547   0.08029   0.08908   0.09008
  Beta virt. eigenvalues --    0.09389   0.10133   0.10207   0.10641   0.10912

 Mulliken charges and spin densities:
               1          2
     1  C    0.688625  -1.290850
     2  C   -0.718341   0.536084
     3  C   -0.027231  -0.622418
     4  C    0.172523   0.273024
     5  C    0.145359  -0.592689
     6  N   -0.159389   0.111996
     7  C   -0.366136  -0.082461
     8  O   -0.296122   0.019781
     9  C    0.826039  -0.459657
    10  C    0.012691  -0.074920
    11  N   -0.110663   0.018210
    12  C    0.416429  -0.613744
    13  C   -0.937296   0.554518
    14  C    0.274699  -0.503697
    15  C   -0.485048   0.048856
    16  C   -0.603065   0.303415
    17  C    1.211927  -0.575365
    18  C   -0.318318  -0.064811
    19  O   -0.176163   0.002060
    20  O   -0.091466   0.015713
    21  H   -0.128649   0.266509
    22  H   -0.430018   0.589771
    23  H   -0.012003   0.142932
    24  H   -0.059328   0.183863
    25  H   -0.375549   0.552222
    26  H    0.231892  -0.035538
    27  H   -0.022933   0.202982
    28  H    0.149304   0.125589
    29  H    0.309080  -0.144655
    30  H    0.141100   0.073246
    31  H    0.246917   0.067533
    32  H   -0.035853   0.239103
    33  H   -0.376051   0.712179
    34  H   -0.521353   0.676523
    35  H    0.154266  -0.007698
    36  H    0.024853   0.126106
    37  H    0.013249   0.175181
    38  H    0.232023   0.051108
 Sum of Mulliken charges =  -1.00000   1.00000

 Dipole moment (field-independent basis, Debye):
    X=             -1.2141    Y=              0.0714    Z=             -0.1589  Tot=              1.2265
 Quadrupole moment (field-independent basis, Debye-Ang):
   XX=           -215.5952   YY=           -164.7757   ZZ=           -156.0619
   XY=             28.1954   XZ=              9.3073   YZ=              1.7068

 Summary of Natural Population Analysis:

                                       Natural Population
                Natural  -----------------------------------------------
    Atom  No    Charge         Core      Valence    Rydberg      Total
 -----------------------------------------------------------------------
      C    1   -0.28879      0.99967     2.28360    0.00552     3.28879
      C    2   -0.19298      0.99964     2.18473    0.00861     3.19298
      C    3   -0.19475      0.99962     2.18454    0.01059     3.19475
      C    4   -0.15981      0.99953     2.15015    0.01013     3.15981
      C    5   -0.09068      0.99959     2.07891    0.01218     3.09068
      N    6   -0.32745      0.99969     2.81785    0.00992     3.82745
      C    7    0.34022      0.99961     1.63838    0.02180     2.65978
      O    8   -0.31886      0.99988     3.31380    0.00518     4.31886
      C    9   -0.11591      0.99943     2.10566    0.01083     3.11591
      C   10    0.05639      0.99953     1.93126    0.01283     2.94361
      N   11   -0.26053      0.99966     2.75101    0.00987     3.76053
      C   12    0.07584      0.99947     1.91225    0.01243     2.92416
      C   13   -0.10914      0.99952     2.10005    0.00957     3.10914
      C   14   -0.10880      0.99958     2.09989    0.00933     3.10880
      C   15   -0.11351      0.99957     2.10428    0.00966     3.11351
      C   16   -0.09440      0.99953     2.08705    0.00782     3.09440
      C   17   -0.03839      0.99947     2.03002    0.00890     3.03839
      C   18    0.41356      0.99968     1.56085    0.02590     2.58644
      O   19   -0.30331      0.99987     3.29715    0.00629     4.30331
      O   20   -0.34181      0.99987     3.33569    0.00625     4.34181
      H   21    0.09544      0.00000     0.40351    0.00106     0.40456
      H   22    0.10296      0.00000     0.39577    0.00127     0.39704
      H   23    0.09631      0.00000     0.40272    0.00097     0.40369
      H   24    0.09416      0.00000     0.40461    0.00123     0.40584
      H   25    0.09947      0.00000     0.39940    0.00113     0.40053
      H   26    0.10243      0.00000     0.39609    0.00148     0.39757
      H   27    0.10245      0.00000     0.39642    0.00113     0.39755
      H   28    0.11621      0.00000     0.38260    0.00119     0.38379
      H   29    0.11655      0.00000     0.38194    0.00150     0.38345
      H   30    0.09849      0.00000     0.40027    0.00124     0.40151
      H   31    0.18857      0.00000     0.30896    0.00247     0.31143
      H   32    0.10620      0.00000     0.39265    0.00115     0.39380
      H   33    0.20719      0.00000     0.28012    0.01269     0.29281
      H   34    0.10486      0.00000     0.39395    0.00120     0.39514
      H   35    0.09811      0.00000     0.40117    0.00072     0.40189
      H   36    0.09849      0.00000     0.40075    0.00076     0.40151
      H   37    0.10467      0.00000     0.39382    0.00152     0.39533
      H   38    0.24057      0.00000     0.25638    0.00306     0.25943
 =======================================================================
   * Total *    0.00000     19.99240    52.75821    0.24939    73.00000

 Normal termination of Gaussian 16 at Mon Dec 14 00:28:49 2020.
