 Gaussian 16, Revision A.03,

 -----------------------------------------------------------
 # opt freq B3LYP/6-31G(d) empiricaldispersion=gd3bj scf=xqc
 -----------------------------------------------------------

 -------------------------------
 CID_122129197_JID_6044_neutraal
 -------------------------------
 Symbolic Z-matrix:
 Charge =  0 Multiplicity = 1

 SCF Done:  E(RB3LYP) =  -1072.16146238     A.U. after   14 cycles
 SCF Done:  E(RB3LYP) =  -1072.16674005     A.U. after   13 cycles
 SCF Done:  E(RB3LYP) =  -1072.16722599     A.U. after   12 cycles
 SCF Done:  E(RB3LYP) =  -1072.16745805     A.U. after   13 cycles
 SCF Done:  E(RB3LYP) =  -1072.16801694     A.U. after   13 cycles
 SCF Done:  E(RB3LYP) =  -1072.16843125     A.U. after   12 cycles
 SCF Done:  E(RB3LYP) =  -1072.16880129     A.U. after   12 cycles
 SCF Done:  E(RB3LYP) =  -1072.16902092     A.U. after   12 cycles
 SCF Done:  E(RB3LYP) =  -1072.16915282     A.U. after   11 cycles
 SCF Done:  E(RB3LYP) =  -1072.16918770     A.U. after   11 cycles
 SCF Done:  E(RB3LYP) =  -1072.16921029     A.U. after    9 cycles
 SCF Done:  E(RB3LYP) =  -1072.16921143     A.U. after    9 cycles
 SCF Done:  E(RB3LYP) =  -1072.16921213     A.U. after    9 cycles
 SCF Done:  E(RB3LYP) =  -1072.16921234     A.U. after    8 cycles
 SCF Done:  E(RB3LYP) =  -1072.16921241     A.U. after    7 cycles
 Optimization completed.
    -- Stationary point found.
 Normal termination of Gaussian 16 at Thu Dec 10 21:14:42 2020.

 --------------------------------------------------------------------
 #N Geom=AllCheck Guess=TCheck SCRF=Check GenChk RB3LYP/6-31G(d) Freq
 --------------------------------------------------------------------

 Structure from the checkpoint file:  "JID_6044.chk"
 -------------------------------
 CID_122129197_JID_6044_neutraal
 -------------------------------
 Charge =  0 Multiplicity = 1

 SCF Done:  E(RB3LYP) =  -1072.16921241     A.U. after    1 cycles

  Exact polarizability: 160.409 -20.179 135.453  -5.340   0.990 143.991
 Approx polarizability: 213.931 -45.067 204.748 -14.744   7.393 245.512

                      1                      2                      3
                      A                      A                      A
 Frequencies --     15.9208                26.1314                35.1035
 Red. masses --      5.1164                 3.8774                 6.0043
 Frc consts  --      0.0008                 0.0016                 0.0044
 IR Inten    --      0.2411                 0.1932                 0.1656

                      4                      5                      6
                      A                      A                      A
 Frequencies --     69.8581                77.7461               103.7181
 Red. masses --      6.5677                 6.0387                 2.6465
 Frc consts  --      0.0189                 0.0215                 0.0168
 IR Inten    --      0.2295                 0.9105                 0.0746

                      7                      8                      9
                      A                      A                      A
 Frequencies --    126.4647               148.7685               178.6464
 Red. masses --      2.5518                 2.2060                 4.1916
 Frc consts  --      0.0240                 0.0288                 0.0788
 IR Inten    --      0.1616                 0.1808                 0.6335

                     10                     11                     12
                      A                      A                      A
 Frequencies --    193.2613               205.9298               234.1440
 Red. masses --      2.4254                 2.6029                 1.1733
 Frc consts  --      0.0534                 0.0650                 0.0379
 IR Inten    --      0.8604                 1.2983                 0.3230

                     13                     14                     15
                      A                      A                      A
 Frequencies --    251.6584               285.5011               311.4343
 Red. masses --      2.3508                 2.6045                 2.5297
 Frc consts  --      0.0877                 0.1251                 0.1446
 IR Inten    --      1.0651                 1.3737                 0.8589

                     16                     17                     18
                      A                      A                      A
 Frequencies --    327.7482               342.0145               366.2002
 Red. masses --      2.2054                 2.0571                 2.5410
 Frc consts  --      0.1396                 0.1418                 0.2008
 IR Inten    --      0.3287                 2.3638                 2.0588

                     19                     20                     21
                      A                      A                      A
 Frequencies --    390.3315               409.2644               458.8958
 Red. masses --      3.6820                 4.4482                 4.4248
 Frc consts  --      0.3305                 0.4390                 0.5490
 IR Inten    --      1.0841                 1.0562                 2.8488

                     22                     23                     24
                      A                      A                      A
 Frequencies --    479.3613               555.8809               570.9460
 Red. masses --      4.0074                 3.0618                 3.0888
 Frc consts  --      0.5425                 0.5574                 0.5932
 IR Inten    --      5.9110                 9.9762                 6.3847

                     25                     26                     27
                      A                      A                      A
 Frequencies --    599.0472               625.8813               653.6107
 Red. masses --      2.5840                 1.7029                 4.2790
 Frc consts  --      0.5463                 0.3930                 1.0770
 IR Inten    --     25.4277                82.5433                 2.4427

                     28                     29                     30
                      A                      A                      A
 Frequencies --    683.9536               698.5851               713.3313
 Red. masses --      1.4189                 1.9097                 2.8129
 Frc consts  --      0.3911                 0.5491                 0.8433
 IR Inten    --     15.3948                30.8280                 9.5297

                     31                     32                     33
                      A                      A                      A
 Frequencies --    766.2510               782.2353               794.3915
 Red. masses --      1.9983                 1.3021                 1.9506
 Frc consts  --      0.6913                 0.4694                 0.7253
 IR Inten    --     40.7210                77.3292                27.1938

                     34                     35                     36
                      A                      A                      A
 Frequencies --    803.3066               808.6133               836.6511
 Red. masses --      1.6743                 1.4823                 3.9689
 Frc consts  --      0.6366                 0.5711                 1.6369
 IR Inten    --     39.0093                15.7080                51.8367

                     37                     38                     39
                      A                      A                      A
 Frequencies --    861.9195               887.2550               889.8251
 Red. masses --      3.9284                 1.2885                 2.0747
 Frc consts  --      1.7195                 0.5976                 0.9678
 IR Inten    --      5.3699                 0.4927                 3.0666

                     40                     41                     42
                      A                      A                      A
 Frequencies --    932.1763               955.4185               967.1173
 Red. masses --      2.0935                 2.3008                 2.2287
 Frc consts  --      1.0718                 1.2374                 1.2282
 IR Inten    --      4.3463                 3.1988                 1.1899

                     43                     44                     45
                      A                      A                      A
 Frequencies --   1013.8958              1021.4979              1056.5209
 Red. masses --      2.0594                 1.7787                 2.1719
 Frc consts  --      1.2473                 1.0935                 1.4284
 IR Inten    --      0.7152                11.6232                 6.0824

                     46                     47                     48
                      A                      A                      A
 Frequencies --   1063.9200              1077.7732              1104.7626
 Red. masses --      2.5158                 1.7552                 1.9257
 Frc consts  --      1.6778                 1.2013                 1.3848
 IR Inten    --      1.5506                 8.4857                23.8790

                     49                     50                     51
                      A                      A                      A
 Frequencies --   1118.7502              1146.5461              1160.8087
 Red. masses --      1.1151                 4.1241                 2.4255
 Frc consts  --      0.8223                 3.1942                 1.9256
 IR Inten    --      4.3851                66.0995               145.8949

                     52                     53                     54
                      A                      A                      A
 Frequencies --   1188.6936              1192.6884              1208.4095
 Red. masses --      1.5656                 2.1479                 2.3171
 Frc consts  --      1.3034                 1.8002                 1.9935
 IR Inten    --     10.4329                 1.9220                20.2361

                     55                     56                     57
                      A                      A                      A
 Frequencies --   1212.1883              1263.8472              1289.2213
 Red. masses --      1.6225                 1.7677                 1.4159
 Frc consts  --      1.4047                 1.6636                 1.3866
 IR Inten    --     40.2182                32.3141                 1.9493

                     58                     59                     60
                      A                      A                      A
 Frequencies --   1329.5630              1338.1459              1344.4647
 Red. masses --      1.2192                 1.2880                 1.2634
 Frc consts  --      1.2698                 1.3589                 1.3455
 IR Inten    --      4.0711                 6.1329                 2.9422

                     61                     62                     63
                      A                      A                      A
 Frequencies --   1373.3027              1382.5021              1392.1377
 Red. masses --      1.6794                 1.3465                 1.4441
 Frc consts  --      1.8661                 1.5163                 1.6490
 IR Inten    --     21.1401                15.8322                 1.1559

                     64                     65                     66
                      A                      A                      A
 Frequencies --   1410.1116              1417.7174              1433.9785
 Red. masses --      1.5131                 1.4929                 2.4076
 Frc consts  --      1.7727                 1.7679                 2.9169
 IR Inten    --      3.3611                 8.8503                 1.2790

                     67                     68                     69
                      A                      A                      A
 Frequencies --   1439.0489              1446.1833              1478.7457
 Red. masses --      1.2545                 1.2506                 5.9933
 Frc consts  --      1.5306                 1.5411                 7.7216
 IR Inten    --      3.2650                 5.8892                17.2510

                     70                     71                     72
                      A                      A                      A
 Frequencies --   1502.3252              1511.9355              1523.2410
 Red. masses --      1.0881                 1.0831                 1.1666
 Frc consts  --      1.4469                 1.4587                 1.5948
 IR Inten    --      3.1339                 6.0461                15.6957

                     73                     74                     75
                      A                      A                      A
 Frequencies --   1523.8640              1533.7104              1535.2001
 Red. masses --      1.0671                 1.0490                 1.0515
 Frc consts  --      1.4600                 1.4538                 1.4602
 IR Inten    --      9.8709                 4.2570                10.4811

                     76                     77                     78
                      A                      A                      A
 Frequencies --   1541.9477              1542.8017              1548.6392
 Red. masses --      1.0613                 1.0711                 1.0673
 Frc consts  --      1.4867                 1.5021                 1.5081
 IR Inten    --      9.9643                10.0144                 0.0523

                     79                     80                     81
                      A                      A                      A
 Frequencies --   1601.0042              1836.0294              3001.6208
 Red. masses --      5.6478                 9.7650                 1.0683
 Frc consts  --      8.5294                19.3945                 5.6708
 IR Inten    --      0.4512               242.8387                36.1565

                     82                     83                     84
                      A                      A                      A
 Frequencies --   3050.2085              3051.3049              3058.3993
 Red. masses --      1.0606                 1.0598                 1.0418
 Frc consts  --      5.8137                 5.8137                 5.7413
 IR Inten    --     25.8847                41.5820                11.3632

                     85                     86                     87
                      A                      A                      A
 Frequencies --   3059.2247              3064.0781              3082.9597
 Red. masses --      1.0425                 1.0547                 1.0930
 Frc consts  --      5.7484                 5.8344                 6.1206
 IR Inten    --     35.6039                27.9185                12.5598

                     88                     89                     90
                      A                      A                      A
 Frequencies --   3092.5635              3094.7440              3100.3045
 Red. masses --      1.0996                 1.1055                 1.1000
 Frc consts  --      6.1961                 6.2381                 6.2293
 IR Inten    --     15.9979                18.7161                10.3506

                     91                     92                     93
                      A                      A                      A
 Frequencies --   3119.1208              3120.9774              3131.9229
 Red. masses --      1.1008                 1.1010                 1.1024
 Frc consts  --      6.3097                 6.3187                 6.3713
 IR Inten    --     65.6052                21.0136                38.8105

                     94                     95                     96
                      A                      A                      A
 Frequencies --   3149.6691              3206.5522              3261.7659
 Red. masses --      1.1012                 1.0909                 1.0935
 Frc consts  --      6.4367                 6.6087                 6.8543
 IR Inten    --     18.3834                 5.5712                 0.8370

                     97                     98                     99
                      A                      A                      A
 Frequencies --   3271.0220              3500.8984              3690.0758
 Red. masses --      1.0966                 1.0733                 1.0640
 Frc consts  --      6.9130                 7.7506                 8.5364
 IR Inten    --      0.9490                 0.4549                52.6446

 - Thermochemistry -
 -------------------
 Temperature   298.150 Kelvin.  Pressure   1.00000 Atm.
 Atom     1 has atomic number  6 and mass  12.00000

 Molecular mass:   241.11365 amu.
 Principal axes and moments of inertia in atomic units:
                           1         2         3
     Eigenvalues --  2272.180627646.286188164.93412
           X            0.99971   0.02398   0.00089
           Y           -0.02397   0.99964  -0.01245
           Z           -0.00119   0.01243   0.99992
 This molecule is an asymmetric top.
 Rotational symmetry number  1.
 Warning -- assumption of classical behavior for rotation
           may cause significant error
 Rotational temperatures (Kelvin)      0.03812     0.01133     0.01061
 Rotational constants (GHZ):           0.79428     0.23603     0.22104
 Zero-point vibrational energy     787370.3 (Joules/Mol)
                                  188.18602 (Kcal/Mol)
 Warning -- explicit consideration of  25 degrees of freedom as
           vibrations may cause significant error
 Vibrational temperatures:     22.91    37.60    50.51   100.51   111.86
          (Kelvin)            149.23   181.95   214.04   257.03   278.06
                              296.29   336.88   362.08   410.77   448.08
                              471.56   492.08   526.88   561.60   588.84
                              660.25   689.69   799.79   821.46   861.90
                              900.50   940.40   984.06  1005.11  1026.32
                             1102.46  1125.46  1142.95  1155.78  1163.41
                             1203.75  1240.11  1276.56  1280.26  1341.19
                             1374.63  1391.47  1458.77  1469.71  1520.10
                             1530.74  1550.68  1589.51  1609.63  1649.62
                             1670.14  1710.26  1716.01  1738.63  1744.07
                             1818.39  1854.90  1912.94  1925.29  1934.38
                             1975.88  1989.11  2002.98  2028.84  2039.78
                             2063.18  2070.47  2080.74  2127.59  2161.51
                             2175.34  2191.60  2192.50  2206.67  2208.81
                             2218.52  2219.75  2228.15  2303.49  2641.64
                             4318.66  4388.57  4390.15  4400.35  4401.54
                             4408.53  4435.69  4449.51  4452.65  4460.65
                             4487.72  4490.39  4506.14  4531.67  4613.51
                             4692.95  4706.27  5037.01  5309.20

 Zero-point correction=                           0.299894 (Hartree/Particle)
 Thermal correction to Energy=                    0.317182
 Thermal correction to Enthalpy=                  0.318127
 Thermal correction to Gibbs Free Energy=         0.252581
 Sum of electronic and zero-point Energies=          -1071.869319
 Sum of electronic and thermal Energies=             -1071.852030
 Sum of electronic and thermal Enthalpies=           -1071.851086
 Sum of electronic and thermal Free Energies=        -1071.916631

                     E (Thermal)             CV                S
                      KCal/Mol        Cal/Mol-Kelvin    Cal/Mol-Kelvin
 Total                  199.035             64.640            137.952
 Electronic               0.000              0.000              0.000
 Translational            0.889              2.981             42.341
 Rotational               0.889              2.981             33.317
 Vibrational            197.257             58.678             62.294
 Vibration     1          0.593              1.986              7.087
 Vibration     2          0.593              1.985              6.103
 Vibration     3          0.594              1.982              5.518
 Vibration     4          0.598              1.968              4.157
 Vibration     5          0.599              1.964              3.947
 Vibration     6          0.605              1.946              3.383
 Vibration     7          0.611              1.927              2.999
 Vibration     8          0.618              1.904              2.688
 Vibration     9          0.629              1.869              2.343
 Vibration    10          0.635              1.849              2.196
 Vibration    11          0.640              1.831              2.079
 Vibration    12          0.654              1.789              1.847
 Vibration    13          0.664              1.760              1.719
 Vibration    14          0.683              1.701              1.500
 Vibration    15          0.700              1.652              1.355
 Vibration    16          0.711              1.620              1.271
 Vibration    17          0.721              1.591              1.203
 Vibration    18          0.739              1.542              1.096
 Vibration    19          0.758              1.491              0.999
 Vibration    20          0.774              1.450              0.929
 Vibration    21          0.817              1.341              0.769
 Vibration    22          0.836              1.296              0.712
 Vibration    23          0.911              1.127              0.532
 Vibration    24          0.927              1.094              0.502
 Vibration    25          0.957              1.034              0.451

 Optimization completed.
    -- Stationary point found.
 Normal termination of Gaussian 16 at Thu Dec 10 21:26:53 2020.

 ----------------------------------------------------------------------
 # B3LYP/6-311++G(d,p) empiricaldispersion=gd3bj scf=xqc pop=npa geom=c
 heck
 ----------------------------------------------------------------------

 ---------------------------------------
 CID_122129197_JID_6044_Energie_neutraal
 ---------------------------------------
 Structure from the checkpoint file:  "JID_6044.chk"
 Charge =  0 Multiplicity = 1

 SCF Done:  E(RB3LYP) =  -1072.39749001     A.U. after   15 cycles
 Normal termination of Gaussian 16 at Thu Dec 10 21:32:12 2020.

 ----------------------------------------------------------------------
 # B3LYP/6-311++G(d,p) empiricaldispersion=gd3bj scf=xqc pop=npa geom=c
 heck
 ----------------------------------------------------------------------

 -------------------------------------
 CID_122129197_JID_6044_Energie_kation
 -------------------------------------
 Structure from the checkpoint file:  "JID_6044.chk"
 Charge =  1 Multiplicity = 2

 SCF Done:  E(UB3LYP) =  -1072.09420697     A.U. after   31 cycles
 Normal termination of Gaussian 16 at Thu Dec 10 21:49:19 2020.
 Gaussian 16:  ES64L-G16RevA.03 25-Dec-2016

 ----------------------------------------------------------------------
 # B3LYP/6-311++G(d,p) empiricaldispersion=gd3bj scf=xqc pop=npa geom=c
 heck
 ----------------------------------------------------------------------

 ------------------------------------
 CID_122129197_JID_6044_Energie_anion
 ------------------------------------
 Structure from the checkpoint file:  "JID_6044.chk"
 Charge = -1 Multiplicity = 2

                         Standard orientation:
 ---------------------------------------------------------------------
 Center     Atomic      Atomic             Coordinates (Angstroms)
 Number     Number       Type             X           Y           Z
 ---------------------------------------------------------------------
      1          6           0        3.228663    1.457354   -1.755217
      2          6           0        1.912738    0.800096   -1.327965
      3          6           0        1.878333    0.234338    0.110790
      4          6           0        2.383772    1.259402    1.162806
      5          6           0        1.615563    2.584695    1.198739
      6          6           0        0.441720   -0.211172    0.471270
      7          7           0        0.036903   -1.378596   -0.308698
      8          6           0       -1.278382   -1.905404    0.070172
      9          6           0       -2.419315   -0.920637   -0.063178
     10          6           0       -3.064029   -0.326652    0.988808
     11         16           0       -4.261766    0.818570    0.468565
     12          6           0       -3.889624    0.503742   -1.198562
     13          6           0       -2.902625   -0.431721   -1.323785
     14          6           0        2.758657   -1.014494    0.181433
     15          8           0        3.381847   -1.509010   -0.732493
     16          8           0        2.793050   -1.543368    1.432331
     17          1           0        3.453055    2.351867   -1.164731
     18          1           0        3.172160    1.764090   -2.805393
     19          1           0        4.061662    0.757050   -1.655106
     20          1           0        1.092667    1.522381   -1.426357
     21          1           0        1.701582   -0.018221   -2.024335
     22          1           0        2.339484    0.786233    2.148902
     23          1           0        3.443668    1.464589    0.972503
     24          1           0        0.560274    2.440166    1.451159
     25          1           0        2.047401    3.246437    1.957484
     26          1           0        1.659654    3.110624    0.239526
     27          1           0        0.414345   -0.502429    1.527261
     28          1           0       -0.240782    0.644988    0.353692
     29          1           0        0.022510   -1.136169   -1.297373
     30          1           0       -1.468823   -2.787513   -0.552861
     31          1           0       -1.212746   -2.253929    1.107325
     32          1           0       -2.900071   -0.497580    2.044531
     33          1           0       -4.428525    1.019932   -1.981339
     34          1           0       -2.527314   -0.775426   -2.282821
     35          1           0        3.347718   -2.342297    1.361195
 ---------------------------------------------------------------------

 SCF Done:  E(UB3LYP) =  -1072.38392981     A.U. after   33 cycles
 SCF Done:  E(UB3LYP) =  -1072.38392981     a.u. after    1 cycles

 The electronic state is 2-A.
 Alpha  occ. eigenvalues --  -88.78622 -19.07508 -19.02098 -14.20975 -10.21040
 Alpha  occ. eigenvalues --  -10.11005 -10.10840 -10.10500 -10.10466 -10.10113
 Alpha  occ. eigenvalues --  -10.08968 -10.08524 -10.08135 -10.07733 -10.07025
 Alpha  occ. eigenvalues --  -10.06716  -7.87229  -5.83509  -5.83145  -5.82844
 Alpha  occ. eigenvalues --   -1.01624  -0.92587  -0.82483  -0.78828  -0.73820
 Alpha  occ. eigenvalues --   -0.66541  -0.66006  -0.63853  -0.63161  -0.58419
 Alpha  occ. eigenvalues --   -0.54480  -0.53820  -0.52581  -0.48076  -0.45843
 Alpha  occ. eigenvalues --   -0.45279  -0.42277  -0.40967  -0.40253  -0.38881
 Alpha  occ. eigenvalues --   -0.37354  -0.35828  -0.34605  -0.33933  -0.33480
 Alpha  occ. eigenvalues --   -0.32285  -0.31894  -0.31765  -0.30888  -0.30289
 Alpha  occ. eigenvalues --   -0.29141  -0.28497  -0.27947  -0.27480  -0.26885
 Alpha  occ. eigenvalues --   -0.26046  -0.25672  -0.25355  -0.23276  -0.23000
 Alpha  occ. eigenvalues --   -0.22612  -0.18616  -0.16420  -0.15052  -0.14012
 Alpha  occ. eigenvalues --    0.04143
 Alpha virt. eigenvalues --    0.05809   0.06362   0.06737   0.06827   0.07303
 Alpha virt. eigenvalues --    0.08209   0.08789   0.09127   0.09270   0.09787
 Alpha virt. eigenvalues --    0.10460   0.11107   0.11546   0.11673   0.11801

  Beta  occ. eigenvalues --  -88.78619 -19.07482 -19.02090 -14.20966 -10.21037
  Beta  occ. eigenvalues --  -10.10992 -10.10814 -10.10498 -10.10431 -10.10101
  Beta  occ. eigenvalues --  -10.08967 -10.08503 -10.08123 -10.07720 -10.06999
  Beta  occ. eigenvalues --  -10.06703  -7.87225  -5.83507  -5.83142  -5.82836
  Beta  occ. eigenvalues --   -1.01590  -0.92559  -0.82465  -0.78796  -0.73799
  Beta  occ. eigenvalues --   -0.66513  -0.65980  -0.63800  -0.63128  -0.58381
  Beta  occ. eigenvalues --   -0.54434  -0.53780  -0.52523  -0.48012  -0.45798
  Beta  occ. eigenvalues --   -0.45225  -0.42242  -0.40930  -0.40234  -0.38856
  Beta  occ. eigenvalues --   -0.37327  -0.35802  -0.34581  -0.33908  -0.33451
  Beta  occ. eigenvalues --   -0.32243  -0.31866  -0.31738  -0.30852  -0.30256
  Beta  occ. eigenvalues --   -0.29112  -0.28444  -0.27907  -0.27450  -0.26855
  Beta  occ. eigenvalues --   -0.26021  -0.25645  -0.25332  -0.23256  -0.22978
  Beta  occ. eigenvalues --   -0.22589  -0.18592  -0.16378  -0.14956  -0.13994
  Beta virt. eigenvalues --    0.06186   0.06767   0.06872   0.07087   0.07436
  Beta virt. eigenvalues --    0.07788   0.08624   0.09048   0.09172   0.09515
  Beta virt. eigenvalues --    0.09971   0.10676   0.11364   0.11635   0.11882

 Mulliken charges and spin densities:
               1          2
     1  C    0.133596  -0.780346
     2  C   -0.863398   0.563706
     3  C    0.717475   0.041243
     4  C    0.077836  -0.288815
     5  C    0.250407  -0.877458
     6  C   -1.417766   0.215693
     7  N    0.220941  -0.013456
     8  C    2.168752  -3.102656
     9  C    0.978061  -0.946616
    10  C   -1.667620   2.016072
    11  S    0.786061  -0.954645
    12  C    0.431165  -0.870304
    13  C   -1.203412   1.331100
    14  C    0.307692  -0.388792
    15  O   -0.244102   0.027384
    16  O   -0.165614   0.060412
    17  H    0.031547   0.097552
    18  H   -0.030519   0.167689
    19  H    0.132911   0.046714
    20  H    0.007799   0.158155
    21  H    0.082663   0.065904
    22  H   -0.065271   0.239941
    23  H    0.025731   0.162220
    24  H   -0.262083   0.404559
    25  H   -0.335706   0.487103
    26  H    0.034166   0.114462
    27  H    0.062081   0.138532
    28  H    0.690116  -0.590731
    29  H    0.205047   0.014311
    30  H    0.033254   0.173321
    31  H   -0.030557   0.186141
    32  H   -0.562019   0.835449
    33  H   -0.675391   0.939515
    34  H   -0.771187   0.957892
    35  H   -0.082658   0.368747
 Sum of Mulliken charges =  -1.00000   1.00000

 Dipole moment (field-independent basis, Debye):
    X=              0.9039    Y=             -0.0577    Z=              0.7588  Tot=              1.1816
 Quadrupole moment (field-independent basis, Debye-Ang):
   XX=           -181.4512   YY=           -149.1185   ZZ=           -156.6340
   XY=              2.3024   XZ=             -9.9914   YZ=             -1.9767

 Summary of Natural Population Analysis:

                                       Natural Population
                Natural  -----------------------------------------------
    Atom  No    Charge         Core      Valence    Rydberg      Total
 -----------------------------------------------------------------------
      C    1   -0.28700      0.99966     2.28285    0.00449     3.28700
      C    2   -0.19492      0.99961     2.18482    0.01049     3.19492
      C    3   -0.07882      0.99950     2.06540    0.01392     3.07882
      C    4   -0.18985      0.99960     2.17974    0.01050     3.18985
      C    5   -0.28847      0.99966     2.28325    0.00556     3.28847
      C    6   -0.08679      0.99958     2.07480    0.01241     3.08679
      N    7   -0.33459      0.99975     2.82393    0.01091     3.83459
      C    8   -0.08947      0.99958     2.07868    0.01120     3.08947
      C    9   -0.05522      0.99947     2.04455    0.01121     3.05522
      C   10   -0.18526      0.99945     2.17588    0.00993     3.18526
      S   11    0.19670      4.99945     2.78197    0.02188     7.80330
      C   12   -0.18715      0.99954     2.17548    0.01213     3.18715
      C   13   -0.12610      0.99948     2.11472    0.01190     3.12610
      C   14    0.42393      0.99963     1.54765    0.02879     2.57607
      O   15   -0.31031      0.99987     3.30436    0.00609     4.31031
      O   16   -0.34747      0.99987     3.34072    0.00688     4.34747
      H   17    0.09439      0.00000     0.40465    0.00095     0.40561
      H   18    0.09888      0.00000     0.40036    0.00077     0.40112
      H   19    0.10501      0.00000     0.39393    0.00106     0.39499
      H   20    0.09979      0.00000     0.39896    0.00125     0.40021
      H   21    0.10445      0.00000     0.39418    0.00138     0.39555
      H   22    0.10692      0.00000     0.39154    0.00154     0.39308
      H   23    0.09903      0.00000     0.39978    0.00119     0.40097
      H   24    0.09979      0.00000     0.39890    0.00131     0.40021
      H   25    0.10162      0.00000     0.39745    0.00094     0.39838
      H   26    0.09706      0.00000     0.40199    0.00095     0.40294
      H   27    0.09972      0.00000     0.39824    0.00204     0.40028
      H   28    0.09097      0.00000     0.40666    0.00236     0.40903
      H   29    0.17238      0.00000     0.32380    0.00382     0.32762
      H   30    0.10016      0.00000     0.39872    0.00112     0.39984
      H   31    0.09761      0.00000     0.40099    0.00139     0.40239
      H   32    0.11163      0.00000     0.38675    0.00163     0.38837
      H   33    0.11208      0.00000     0.38609    0.00183     0.38792
      H   34    0.10935      0.00000     0.38853    0.00212     0.39065
      H   35    0.23997      0.00000     0.25510    0.00493     0.26003
 =======================================================================
   * Total *    0.00000     19.99370    44.78542    0.22088    65.00000

 Normal termination of Gaussian 16 at Thu Dec 10 22:09:50 2020.
