 Gaussian 16, Revision A.03,

 -----------------------------------------------------------
 # opt freq B3LYP/6-31G(d) empiricaldispersion=gd3bj scf=xqc
 -----------------------------------------------------------

 ------------------------------
 CID_82508979_JID_4500_neutraal
 ------------------------------
 Symbolic Z-matrix:
 Charge =  0 Multiplicity = 1

 SCF Done:  E(RB3LYP) =  -974.825369897     A.U. after   13 cycles
 SCF Done:  E(RB3LYP) =  -974.830256449     A.U. after   12 cycles
 SCF Done:  E(RB3LYP) =  -974.828219289     A.U. after   13 cycles
 SCF Done:  E(RB3LYP) =  -974.829270928     A.U. after   12 cycles
 SCF Done:  E(RB3LYP) =  -974.831157333     A.U. after    9 cycles
 SCF Done:  E(RB3LYP) =  -974.831997935     A.U. after   12 cycles
 SCF Done:  E(RB3LYP) =  -974.832171388     A.U. after   11 cycles
 SCF Done:  E(RB3LYP) =  -974.832207067     A.U. after    9 cycles
 SCF Done:  E(RB3LYP) =  -974.832216350     A.U. after    9 cycles
 SCF Done:  E(RB3LYP) =  -974.832217985     A.U. after    8 cycles
 SCF Done:  E(RB3LYP) =  -974.832219274     A.U. after    8 cycles
 SCF Done:  E(RB3LYP) =  -974.832219293     A.U. after    8 cycles
 SCF Done:  E(RB3LYP) =  -974.832219465     A.U. after    7 cycles
 SCF Done:  E(RB3LYP) =  -974.832219717     A.U. after    7 cycles
 Optimization completed.
    -- Stationary point found.
 Normal termination of Gaussian 16 at Thu Dec 10 09:58:13 2020.

 --------------------------------------------------------------------
 #N Geom=AllCheck Guess=TCheck SCRF=Check GenChk RB3LYP/6-31G(d) Freq
 --------------------------------------------------------------------

 Structure from the checkpoint file:  "JID_4500.chk"
 ------------------------------
 CID_82508979_JID_4500_neutraal
 ------------------------------
 Charge =  0 Multiplicity = 1

 SCF Done:  E(RB3LYP) =  -974.832219717     A.U. after    1 cycles

  Exact polarizability: 148.787  -0.136 141.741  -7.310   4.112 111.302
 Approx polarizability: 200.679  -5.784 218.843 -17.468  15.801 178.068

                      1                      2                      3
                      A                      A                      A
 Frequencies --     38.3202                49.7118                91.7145
 Red. masses --      3.5558                 3.9724                 3.0168
 Frc consts  --      0.0031                 0.0058                 0.0150
 IR Inten    --      0.1930                 2.0502                 0.8954

                      4                      5                      6
                      A                      A                      A
 Frequencies --    119.6764               134.6170               151.8786
 Red. masses --      3.4874                 3.5357                 1.6472
 Frc consts  --      0.0294                 0.0378                 0.0224
 IR Inten    --      1.2843                 2.5864                 0.7410

                      7                      8                      9
                      A                      A                      A
 Frequencies --    191.4729               209.2227               297.7316
 Red. masses --      2.7824                 2.3530                 2.2898
 Frc consts  --      0.0601                 0.0607                 0.1196
 IR Inten    --      0.2826                 0.5031                 9.5260

                     10                     11                     12
                      A                      A                      A
 Frequencies --    300.1076               307.5639               338.0604
 Red. masses --      2.1921                 2.3811                 3.7492
 Frc consts  --      0.1163                 0.1327                 0.2525
 IR Inten    --      1.2887                 2.4917                 3.1684

                     13                     14                     15
                      A                      A                      A
 Frequencies --    387.9638               397.5756               431.2699
 Red. masses --      3.2305                 2.5459                 5.6749
 Frc consts  --      0.2865                 0.2371                 0.6219
 IR Inten    --      2.0079                 2.6246                 2.3961

                     16                     17                     18
                      A                      A                      A
 Frequencies --    437.2529               467.3319               478.3586
 Red. masses --      3.6010                 1.8048                 2.4350
 Frc consts  --      0.4056                 0.2322                 0.3283
 IR Inten    --      1.7132                 0.3922                 0.0430

                     19                     20                     21
                      A                      A                      A
 Frequencies --    506.1539               559.9241               592.2715
 Red. masses --      2.9765                 4.8912                 1.7789
 Frc consts  --      0.4493                 0.9035                 0.3677
 IR Inten    --      5.8454                 0.6650                 3.2796

                     22                     23                     24
                      A                      A                      A
 Frequencies --    606.2007               680.9331               711.2675
 Red. masses --      2.4858                 4.5083                 5.6339
 Frc consts  --      0.5382                 1.2316                 1.6793
 IR Inten    --      3.1194                15.3157                23.0111

                     25                     26                     27
                      A                      A                      A
 Frequencies --    779.8782               823.4194               823.5602
 Red. masses --      3.1774                 2.6898                 2.4974
 Frc consts  --      1.1386                 1.0745                 0.9980
 IR Inten    --      2.4995                35.4489                96.3079

                     28                     29                     30
                      A                      A                      A
 Frequencies --    838.6015               884.5038               895.3051
 Red. masses --      1.6780                 2.3969                 2.2236
 Frc consts  --      0.6953                 1.1048                 1.0502
 IR Inten    --      2.9066                 6.0870                 3.0179

                     31                     32                     33
                      A                      A                      A
 Frequencies --    898.3739               958.1370               991.2761
 Red. masses --      1.5686                 1.9577                 1.8221
 Frc consts  --      0.7459                 1.0589                 1.0549
 IR Inten    --     63.1132                 4.9910                 3.8381

                     34                     35                     36
                      A                      A                      A
 Frequencies --   1001.5751              1032.1895              1047.4999
 Red. masses --      2.5320                 1.8290                 2.1648
 Frc consts  --      1.4965                 1.1481                 1.3995
 IR Inten    --     10.8620                 3.5259                12.0808

                     37                     38                     39
                      A                      A                      A
 Frequencies --   1048.5973              1060.2722              1075.1008
 Red. masses --      2.5064                 1.7261                 1.4773
 Frc consts  --      1.6238                 1.1433                 1.0060
 IR Inten    --     25.4628                10.5804                 0.4580

                     40                     41                     42
                      A                      A                      A
 Frequencies --   1097.9296              1113.4159              1140.5659
 Red. masses --      2.1466                 2.4034                 4.3917
 Frc consts  --      1.5246                 1.7555                 3.3661
 IR Inten    --     22.2934                46.0567                19.4059

                     43                     44                     45
                      A                      A                      A
 Frequencies --   1156.7133              1192.0800              1209.6312
 Red. masses --      4.9671                 2.4315                 2.0732
 Frc consts  --      3.9156                 2.0358                 1.7873
 IR Inten    --     32.0198                 5.0065                36.0361

                     46                     47                     48
                      A                      A                      A
 Frequencies --   1215.2316              1224.9109              1256.4284
 Red. masses --      1.3712                 1.1773                 3.2388
 Frc consts  --      1.1931                 1.0408                 3.0124
 IR Inten    --      2.3070                 0.2043               103.0383

                     49                     50                     51
                      A                      A                      A
 Frequencies --   1275.6583              1283.6653              1345.9804
 Red. masses --      1.2015                 1.3719                 1.2175
 Frc consts  --      1.1520                 1.3319                 1.2996
 IR Inten    --      1.4467                 3.6852                42.1162

                     52                     53                     54
                      A                      A                      A
 Frequencies --   1354.2412              1366.2883              1381.5865
 Red. masses --      1.3043                 1.2703                 1.3689
 Frc consts  --      1.4093                 1.3972                 1.5395
 IR Inten    --      1.2727                 1.0688                17.1086

                     55                     56                     57
                      A                      A                      A
 Frequencies --   1390.7908              1394.8997              1397.8072
 Red. masses --      1.5292                 1.2771                 1.2507
 Frc consts  --      1.7428                 1.4641                 1.4397
 IR Inten    --     26.5877                16.8677                 5.7881

                     58                     59                     60
                      A                      A                      A
 Frequencies --   1418.5050              1426.2676              1431.0124
 Red. masses --      1.2101                 1.3321                 1.3942
 Frc consts  --      1.4346                 1.5966                 1.6821
 IR Inten    --      9.3196                 8.2242                 9.5462

                     61                     62                     63
                      A                      A                      A
 Frequencies --   1441.5034              1489.8226              1491.6078
 Red. masses --      1.2980                 1.0867                 1.0935
 Frc consts  --      1.5891                 1.4211                 1.4334
 IR Inten    --      2.3404                10.4146                10.3973

                     64                     65                     66
                      A                      A                      A
 Frequencies --   1493.3488              1500.1502              1503.5818
 Red. masses --      1.0918                 1.0823                 1.0871
 Frc consts  --      1.4345                 1.4351                 1.4480
 IR Inten    --      8.3886                 3.0612                 2.4773

                     67                     68                     69
                      A                      A                      A
 Frequencies --   1508.7460              1513.6338              1515.7870
 Red. masses --      1.1556                 1.0891                 1.0951
 Frc consts  --      1.5498                 1.4701                 1.4824
 IR Inten    --      8.1255                 3.7238                 0.5665

                     70                     71                     72
                      A                      A                      A
 Frequencies --   1523.9543              1528.6243              1710.2704
 Red. masses --      1.0742                 1.0925                 7.2412
 Frc consts  --      1.4698                 1.5041                12.4794
 IR Inten    --     19.7963                 1.4060                78.8418

                     73                     74                     75
                      A                      A                      A
 Frequencies --   2977.5338              2984.2858              3030.4429
 Red. masses --      1.0715                 1.0730                 1.0677
 Frc consts  --      5.5967                 5.6301                 5.7770
 IR Inten    --     30.4585               126.7243                40.0320

                     76                     77                     78
                      A                      A                      A
 Frequencies --   3048.9655              3051.0221              3053.2099
 Red. masses --      1.0607                 1.0448                 1.0625
 Frc consts  --      5.8094                 5.7303                 5.8360
 IR Inten    --     34.5712                40.4567                56.1948

                     79                     80                     81
                      A                      A                      A
 Frequencies --   3053.8045              3078.4502              3089.0341
 Red. masses --      1.0644                 1.0597                 1.0925
 Frc consts  --      5.8485                 5.9170                 6.1424
 IR Inten    --     39.7783                10.7011                 9.0934

                     82                     83                     84
                      A                      A                      A
 Frequencies --   3092.8244              3094.9190              3101.6701
 Red. masses --      1.0913                 1.0936                 1.0987
 Frc consts  --      6.1502                 6.1717                 6.2278
 IR Inten    --     14.6292                73.9845                28.8588

                     85                     86                     87
                      A                      A                      A
 Frequencies --   3103.5877              3110.6565              3112.7374
 Red. masses --      1.1022                 1.1011                 1.1029
 Frc consts  --      6.2554                 6.2776                 6.2959
 IR Inten    --     25.2683                55.9500                27.9434

                     88                     89                     90
                      A                      A                      A
 Frequencies --   3137.3385              3184.2248              3440.8387
 Red. masses --      1.1077                 1.0949                 1.0732
 Frc consts  --      6.4239                 6.5411                 7.4863
 IR Inten    --     10.4321                16.2820                 8.3892

 - Thermochemistry -
 -------------------
 Temperature   298.150 Kelvin.  Pressure   1.00000 Atm.
 Atom     1 has atomic number  6 and mass  12.00000

 Molecular mass:   214.11399 amu.
 Principal axes and moments of inertia in atomic units:
                           1         2         3
     Eigenvalues --  1949.924993721.732164258.27593
           X            0.99998   0.00043  -0.00627
           Y           -0.00066   0.99931  -0.03725
           Z            0.00625   0.03726   0.99929
 This molecule is an asymmetric top.
 Rotational symmetry number  1.
 Warning -- assumption of classical behavior for rotation
           may cause significant error
 Rotational temperatures (Kelvin)      0.04442     0.02327     0.02034
 Rotational constants (GHZ):           0.92554     0.48492     0.42382
 Zero-point vibrational energy     739800.9 (Joules/Mol)
                                  176.81667 (Kcal/Mol)
 Warning -- explicit consideration of  22 degrees of freedom as
           vibrations may cause significant error
 Vibrational temperatures:     55.13    71.52   131.96   172.19   193.68
          (Kelvin)            218.52   275.49   301.02   428.37   431.79
                              442.52   486.39   558.19   572.02   620.50
                              629.11   672.39   688.25   728.24   805.61
                              852.15   872.19   979.71  1023.36  1122.07
                             1184.72  1184.92  1206.56  1272.60  1288.14
                             1292.56  1378.55  1426.23  1441.04  1485.09
                             1507.12  1508.70  1525.50  1546.83  1579.68
                             1601.96  1641.02  1664.25  1715.14  1740.39
                             1748.45  1762.37  1807.72  1835.39  1846.91
                             1936.57  1948.45  1965.78  1987.79  2001.04
                             2006.95  2011.13  2040.91  2052.08  2058.91
                             2074.00  2143.52  2146.09  2148.60  2158.38
                             2163.32  2170.75  2177.78  2180.88  2192.63
                             2199.35  2460.70  4284.01  4293.72  4360.13
                             4386.78  4389.74  4392.89  4393.74  4429.20
                             4444.43  4449.88  4452.90  4462.61  4465.37
                             4475.54  4478.53  4513.93  4581.39  4950.60

 Zero-point correction=                           0.281775 (Hartree/Particle)
 Thermal correction to Energy=                    0.295498
 Thermal correction to Enthalpy=                  0.296442
 Thermal correction to Gibbs Free Energy=         0.241121
 Sum of electronic and zero-point Energies=           -974.550444
 Sum of electronic and thermal Energies=              -974.536721
 Sum of electronic and thermal Enthalpies=            -974.535777
 Sum of electronic and thermal Free Energies=         -974.591099

                     E (Thermal)             CV                S
                      KCal/Mol        Cal/Mol-Kelvin    Cal/Mol-Kelvin
 Total                  185.428             53.499            116.434
 Electronic               0.000              0.000              0.000
 Translational            0.889              2.981             41.987
 Rotational               0.889              2.981             31.802
 Vibrational            183.651             47.538             42.645
 Vibration     1          0.594              1.982              5.344
 Vibration     2          0.595              1.978              4.829
 Vibration     3          0.602              1.955              3.623
 Vibration     4          0.609              1.933              3.106
 Vibration     5          0.613              1.919              2.879
 Vibration     6          0.619              1.901              2.649
 Vibration     7          0.634              1.852              2.214
 Vibration     8          0.642              1.827              2.050
 Vibration     9          0.691              1.678              1.430
 Vibration    10          0.693              1.673              1.416
 Vibration    11          0.697              1.659              1.375
 Vibration    12          0.718              1.599              1.221
 Vibration    13          0.756              1.496              1.008
 Vibration    14          0.764              1.475              0.972
 Vibration    15          0.792              1.402              0.855
 Vibration    16          0.798              1.389              0.835
 Vibration    17          0.825              1.323              0.745
 Vibration    18          0.835              1.298              0.715
 Vibration    19          0.861              1.236              0.643
 Vibration    20          0.916              1.118              0.524
 Vibration    21          0.950              1.048              0.463
 Vibration    22          0.965              1.019              0.439

                           ! Non-Optimized Parameters !
 Normal termination of Gaussian 16 at Thu Dec 10 10:08:22 2020.

 ----------------------------------------------------------------------
 # B3LYP/6-311++G(d,p) empiricaldispersion=gd3bj scf=xqc pop=npa geom=c
 heck
 ----------------------------------------------------------------------

 --------------------------------------
 CID_82508979_JID_4500_Energie_neutraal
 --------------------------------------
 Structure from the checkpoint file:  "JID_4500.chk"
 Charge =  0 Multiplicity = 1

 SCF Done:  E(RB3LYP) =  -975.020243020     A.U. after   14 cycles
 Normal termination of Gaussian 16 at Thu Dec 10 10:12:56 2020.

 ----------------------------------------------------------------------
 # B3LYP/6-311++G(d,p) empiricaldispersion=gd3bj scf=xqc pop=npa geom=c
 heck
 ----------------------------------------------------------------------

 ------------------------------------
 CID_82508979_JID_4500_Energie_kation
 ------------------------------------
 Structure from the checkpoint file:  "JID_4500.chk"
 Charge =  1 Multiplicity = 2

 SCF Done:  E(UB3LYP) =  -974.769635467     A.U. after   23 cycles
 Normal termination of Gaussian 16 at Thu Dec 10 10:22:48 2020.
 Gaussian 16:  ES64L-G16RevA.03 25-Dec-2016

 ----------------------------------------------------------------------
 # B3LYP/6-311++G(d,p) empiricaldispersion=gd3bj scf=xqc pop=npa geom=c
 heck
 ----------------------------------------------------------------------

 -----------------------------------
 CID_82508979_JID_4500_Energie_anion
 -----------------------------------
 Structure from the checkpoint file:  "JID_4500.chk"
 Charge = -1 Multiplicity = 2

                         Standard orientation:
 ---------------------------------------------------------------------
 Center     Atomic      Atomic             Coordinates (Angstroms)
 Number     Number       Type             X           Y           Z
 ---------------------------------------------------------------------
      1          6           0       -0.891483    2.610783   -0.159328
      2          6           0       -1.329662    1.174964   -0.134047
      3          6           0       -0.735710    0.150360   -0.777992
      4         16           0       -1.307423   -1.540793   -0.661373
      5          6           0       -2.389933   -1.365442    0.793352
      6          6           0       -3.223140   -0.098392    0.655754
      7          8           0       -2.426199    1.078655    0.695172
      8          6           0        0.484672    0.284162   -1.686087
      9          7           0        1.824665    0.104754   -1.140298
     10          6           0        2.358471    1.163480   -0.289955
     11          6           0        2.083486    0.951375    1.208356
     12          7           0        2.532295   -0.365021    1.678386
     13          6           0        1.960925   -1.432199    0.845866
     14          6           0        2.202349   -1.222829   -0.659988
     15          1           0       -0.101179    2.796729   -0.885041
     16          1           0       -0.528228    2.915777    0.830190
     17          1           0       -1.749025    3.248883   -0.400286
     18          1           0       -1.788836   -1.325874    1.707076
     19          1           0       -3.032632   -2.249406    0.829649
     20          1           0       -3.799844   -0.127647   -0.276906
     21          1           0       -3.915649    0.004208    1.496707
     22          1           0        0.375155   -0.449990   -2.495977
     23          1           0        0.463404    1.266530   -2.168571
     24          1           0        3.452135    1.187272   -0.433122
     25          1           0        1.973635    2.129124   -0.634777
     26          1           0        1.007506    1.021605    1.403316
     27          1           0        2.582753    1.726839    1.802862
     28          1           0        3.550287   -0.402799    1.598414
     29          1           0        0.884592   -1.469207    1.042400
     30          1           0        2.386383   -2.391494    1.165892
     31          1           0        1.669204   -1.978122   -1.247453
     32          1           0        3.280120   -1.354672   -0.855991
 ---------------------------------------------------------------------

 SCF Done:  E(UB3LYP) =  -975.004463359     A.U. after   33 cycles
 SCF Done:  E(UB3LYP) =  -975.004463359     a.u. after    1 cycles

 The electronic state is 2-A.
 Alpha  occ. eigenvalues --  -88.75046 -19.05293 -14.20481 -14.19832 -10.13476
 Alpha  occ. eigenvalues --  -10.13184 -10.11028 -10.10633 -10.09327 -10.09309
 Alpha  occ. eigenvalues --  -10.09269 -10.08748 -10.08678 -10.07560  -7.83690
 Alpha  occ. eigenvalues --   -5.80066  -5.79712  -5.79075  -0.96918  -0.84139
 Alpha  occ. eigenvalues --   -0.79118  -0.72497  -0.70880  -0.66093  -0.63568
 Alpha  occ. eigenvalues --   -0.61116  -0.56834  -0.54333  -0.53984  -0.52635
 Alpha  occ. eigenvalues --   -0.47482  -0.43978  -0.41254  -0.39443  -0.38721
 Alpha  occ. eigenvalues --   -0.36870  -0.36445  -0.35952  -0.34713  -0.34401
 Alpha  occ. eigenvalues --   -0.33249  -0.31986  -0.31582  -0.30825  -0.29815
 Alpha  occ. eigenvalues --   -0.29347  -0.28531  -0.26420  -0.26070  -0.25168
 Alpha  occ. eigenvalues --   -0.24800  -0.23976  -0.22787  -0.21636  -0.17576
 Alpha  occ. eigenvalues --   -0.15383  -0.10606  -0.09336   0.04448
 Alpha virt. eigenvalues --    0.05832   0.06828   0.07780   0.08451   0.08536
 Alpha virt. eigenvalues --    0.09227   0.09472   0.09931   0.10361   0.10741
 Alpha virt. eigenvalues --    0.11202   0.12115   0.12225   0.12836   0.13001

  Beta  occ. eigenvalues --  -88.75043 -19.05292 -14.20476 -14.19819 -10.13465
  Beta  occ. eigenvalues --  -10.13151 -10.11020 -10.10600 -10.09314 -10.09301
  Beta  occ. eigenvalues --  -10.09247 -10.08733 -10.08669 -10.07538  -7.83687
  Beta  occ. eigenvalues --   -5.80061  -5.79709  -5.79073  -0.96907  -0.84120
  Beta  occ. eigenvalues --   -0.79091  -0.72470  -0.70841  -0.66065  -0.63536
  Beta  occ. eigenvalues --   -0.61072  -0.56795  -0.54293  -0.53946  -0.52581
  Beta  occ. eigenvalues --   -0.47435  -0.43926  -0.41220  -0.39413  -0.38673
  Beta  occ. eigenvalues --   -0.36834  -0.36409  -0.35917  -0.34681  -0.34372
  Beta  occ. eigenvalues --   -0.33211  -0.31938  -0.31548  -0.30785  -0.29788
  Beta  occ. eigenvalues --   -0.29323  -0.28495  -0.26394  -0.26042  -0.25133
  Beta  occ. eigenvalues --   -0.24774  -0.23952  -0.22757  -0.21605  -0.17552
  Beta  occ. eigenvalues --   -0.15344  -0.10579  -0.09286
  Beta virt. eigenvalues --    0.06501   0.07219   0.07446   0.08118   0.08856
  Beta virt. eigenvalues --    0.09051   0.09709   0.09835   0.10210   0.10596
  Beta virt. eigenvalues --    0.11158   0.11653   0.12304   0.12432   0.12961

 Mulliken charges and spin densities:
               1          2
     1  C    2.324243  -2.883843
     2  C   -2.111260   1.012390
     3  C    0.092519   1.737584
     4  S    0.818396  -1.075506
     5  C   -0.037362  -0.405336
     6  C    0.200996  -0.365320
     7  O   -0.086360   0.088472
     8  C   -0.483309  -0.707690
     9  N    0.102115   0.113601
    10  C    0.004332  -0.199304
    11  C    0.189132  -0.671662
    12  N   -0.193035   0.096501
    13  C    0.187947  -0.569871
    14  C   -0.243213   0.015518
    15  H   -0.067885   0.166815
    16  H   -0.049839   0.253215
    17  H   -0.039260   0.208235
    18  H    0.342456  -0.163174
    19  H   -0.958553   1.205704
    20  H    0.076330   0.086097
    21  H   -0.874357   1.069718
    22  H    0.032243   0.147208
    23  H   -0.086359   0.228883
    24  H   -0.267579   0.448343
    25  H   -0.042263   0.149680
    26  H    0.394618  -0.160733
    27  H   -0.303214   0.473698
    28  H    0.099443   0.120106
    29  H    0.034353   0.098367
    30  H   -0.016020   0.170740
    31  H    0.154211  -0.050863
    32  H   -0.193464   0.362426
 Sum of Mulliken charges =  -1.00000   1.00000

 Dipole moment (field-independent basis, Debye):
    X=              2.5057    Y=              0.1367    Z=             -2.7755  Tot=              3.7417
 Quadrupole moment (field-independent basis, Debye-Ang):
   XX=           -173.4196   YY=           -139.5082   ZZ=           -132.0334
   XY=            -12.7879   XZ=              7.1795   YZ=              1.5445

 Summary of Natural Population Analysis:

                                       Natural Population
                Natural  -----------------------------------------------
    Atom  No    Charge         Core      Valence    Rydberg      Total
 -----------------------------------------------------------------------
      C    1   -0.30084      0.99962     2.29493    0.00630     3.30084
      C    2    0.14945      0.99929     1.83678    0.01448     2.85055
      C    3   -0.14568      0.99936     2.13483    0.01149     3.14568
      S    4    0.11894      4.99955     2.86176    0.01976     7.88106
      C    5   -0.26518      0.99960     2.25519    0.01039     3.26518
      C    6   -0.01067      0.99955     1.99801    0.01311     3.01067
      O    7   -0.28438      0.99986     3.27425    0.01027     4.28438
      C    8   -0.08971      0.99955     2.07658    0.01358     3.08971
      N    9   -0.28246      0.99973     2.76662    0.01610     3.78246
      C   10   -0.09226      0.99960     2.08016    0.01249     3.09226
      C   11   -0.10021      0.99962     2.08917    0.01142     3.10021
      N   12   -0.33513      0.99977     2.82269    0.01267     3.83513
      C   13   -0.10164      0.99962     2.09097    0.01105     3.10164
      C   14   -0.09287      0.99961     2.08185    0.01141     3.09287
      H   15    0.10310      0.00000     0.39578    0.00112     0.39690
      H   16    0.10765      0.00000     0.39105    0.00131     0.39235
      H   17    0.10667      0.00000     0.39209    0.00124     0.39333
      H   18    0.10407      0.00000     0.39413    0.00179     0.39593
      H   19    0.11550      0.00000     0.38084    0.00365     0.38450
      H   20    0.08668      0.00000     0.41154    0.00178     0.41332
      H   21    0.09774      0.00000     0.39961    0.00265     0.40226
      H   22    0.09749      0.00000     0.40121    0.00130     0.40251
      H   23    0.10109      0.00000     0.39764    0.00127     0.39891
      H   24    0.08932      0.00000     0.40899    0.00168     0.41068
      H   25    0.09679      0.00000     0.40180    0.00141     0.40321
      H   26    0.09341      0.00000     0.40434    0.00225     0.40659
      H   27    0.09336      0.00000     0.40543    0.00120     0.40664
      H   28    0.16582      0.00000     0.33172    0.00246     0.33418
      H   29    0.09603      0.00000     0.40182    0.00215     0.40397
      H   30    0.09130      0.00000     0.40771    0.00100     0.40870
      H   31    0.09919      0.00000     0.39978    0.00103     0.40081
      H   32    0.08741      0.00000     0.41114    0.00145     0.41259
 =======================================================================
   * Total *    0.00000     17.99432    39.80041    0.20526    58.00000

 Normal termination of Gaussian 16 at Thu Dec 10 10:39:57 2020.
