 Gaussian 16, Revision A.03,

 -----------------------------------------------------------
 # opt freq B3LYP/6-31G(d) empiricaldispersion=gd3bj scf=xqc
 -----------------------------------------------------------

 ------------------------------
 CID_154126438_JID_533_neutraal
 ------------------------------
 Symbolic Z-matrix:
 Charge =  0 Multiplicity = 1

 SCF Done:  E(RB3LYP) =  -427.787217098     A.U. after   13 cycles
 SCF Done:  E(RB3LYP) =  -427.789385343     A.U. after   12 cycles
 SCF Done:  E(RB3LYP) =  -427.787743352     A.U. after   13 cycles
 SCF Done:  E(RB3LYP) =  -427.789242704     A.U. after   12 cycles
 SCF Done:  E(RB3LYP) =  -427.789828229     A.U. after    9 cycles
 SCF Done:  E(RB3LYP) =  -427.789835886     A.U. after   11 cycles
 SCF Done:  E(RB3LYP) =  -427.789981648     A.U. after   11 cycles
 SCF Done:  E(RB3LYP) =  -427.789897406     A.U. after   11 cycles
 SCF Done:  E(RB3LYP) =  -427.790032155     A.U. after   10 cycles
 SCF Done:  E(RB3LYP) =  -427.790044866     A.U. after   10 cycles
 SCF Done:  E(RB3LYP) =  -427.790047145     A.U. after    8 cycles
 SCF Done:  E(RB3LYP) =  -427.790047393     A.U. after    7 cycles
 SCF Done:  E(RB3LYP) =  -427.790047494     A.U. after    7 cycles
 SCF Done:  E(RB3LYP) =  -427.790047500     A.U. after    6 cycles
 Optimization completed.
    -- Stationary point found.

 1\1\GINC-NODE371\FOpt\RB3LYP\6-31G(d)\C9H16O1\VSC10255\08-Dec-2020\0\\
 # opt freq B3LYP/6-31G(d) empiricaldispersion=gd3bj scf=xqc\\CID_15412
 6438_JID_533_neutraal\\0,1\C,1.0399516408,-0.0870053446,0.0691478212\C
 ,0.6896826893,0.5318090442,-1.2862974395\C,1.1413842006,-0.2762986904,
 -2.521386706\C,0.6352182321,-1.7399176673,-2.4961183596\C,-0.879437346
 7,-1.9216818678,-2.3549825866\C,0.6204436163,0.4277734868,-3.803439611
 4\O,1.0768865558,1.7612984171,-3.9349144597\C,2.6631228279,-0.32051933
 46,-2.6464946603\C,3.5093788954,0.5089678224,-2.0882011029\C,4.3515747

 Normal termination of Gaussian 16 at Tue Dec  8 12:13:19 2020.

 --------------------------------------------------------------------
 #N Geom=AllCheck Guess=TCheck SCRF=Check GenChk RB3LYP/6-31G(d) Freq
 --------------------------------------------------------------------

 Structure from the checkpoint file:  "JID_533.chk"
 ------------------------------
 CID_154126438_JID_533_neutraal
 ------------------------------
 Charge =  0 Multiplicity = 1

 SCF Done:  E(RB3LYP) =  -427.790047500     A.U. after    1 cycles

  Exact polarizability: 130.529  -9.199  86.669   7.163  -2.597  79.036
 Approx polarizability: 182.572 -17.406 119.301  17.147  -2.628 118.754

                      1                      2                      3
                      A                      A                      A
 Frequencies --     57.6510               103.2438               115.9106
 Red. masses --      3.3639                 2.0425                 3.0048
 Frc consts  --      0.0066                 0.0128                 0.0238
 IR Inten    --      0.2311                 0.0258                 0.3733

                      4                      5                      6
                      A                      A                      A
 Frequencies --    134.6903               151.7251               196.4555
 Red. masses --      1.8021                 3.0115                 2.9452
 Frc consts  --      0.0193                 0.0408                 0.0670
 IR Inten    --      0.3411                 1.6973                 0.6454

                      7                      8                      9
                      A                      A                      A
 Frequencies --    220.0372               237.9702               264.3984
 Red. masses --      1.2362                 1.4943                 2.1642
 Frc consts  --      0.0353                 0.0499                 0.0891
 IR Inten    --      0.0668                 0.2323                 0.7973

                     10                     11                     12
                      A                      A                      A
 Frequencies --    305.1997               332.4160               349.2325
 Red. masses --      1.9147                 2.0077                 2.5494
 Frc consts  --      0.1051                 0.1307                 0.1832
 IR Inten    --      1.4067                 1.9875                 0.4283

                     13                     14                     15
                      A                      A                      A
 Frequencies --    350.9700               397.0411               430.8459
 Red. masses --      2.3136                 2.2047                 2.5187
 Frc consts  --      0.1679                 0.2048                 0.2755
 IR Inten    --      3.2881                24.1041                30.3745

                     16                     17                     18
                      A                      A                      A
 Frequencies --    441.7303               522.6836               594.5783
 Red. masses --      1.5035                 2.4800                 2.9833
 Frc consts  --      0.1728                 0.3992                 0.6214
 IR Inten    --     89.1848                 5.4525                 1.9247

                     19                     20                     21
                      A                      A                      A
 Frequencies --    650.9989               738.3783               779.0919
 Red. masses --      2.2699                 2.7654                 1.2787
 Frc consts  --      0.5668                 0.8883                 0.4573
 IR Inten    --      4.8054                 2.1210                 7.5219

                     22                     23                     24
                      A                      A                      A
 Frequencies --    810.8427               868.8553               909.8866
 Red. masses --      1.2529                 1.3177                 1.3471
 Frc consts  --      0.4853                 0.5861                 0.6571
 IR Inten    --      5.4188                52.9229                20.0554

                     25                     26                     27
                      A                      A                      A
 Frequencies --    919.0764               949.6112               973.3566
 Red. masses --      1.7438                 1.7489                 2.1022
 Frc consts  --      0.8679                 0.9292                 1.1735
 IR Inten    --      1.3416                 8.4800                 3.3587

                     28                     29                     30
                      A                      A                      A
 Frequencies --   1018.8578              1037.4081              1055.1024
 Red. masses --      1.6776                 1.4993                 1.7285
 Frc consts  --      1.0261                 0.9507                 1.1338
 IR Inten    --      2.7204                 0.8609                 2.0737

                     31                     32                     33
                      A                      A                      A
 Frequencies --   1062.3481              1086.2018              1113.9193
 Red. masses --      2.3420                 2.7851                 2.7925
 Frc consts  --      1.5573                 1.9360                 2.0415
 IR Inten    --      1.1722                57.1855                28.3329

                     34                     35                     36
                      A                      A                      A
 Frequencies --   1143.1647              1175.4059              1200.0399
 Red. masses --      1.8420                 1.6187                 2.3733
 Frc consts  --      1.4183                 1.3176                 2.0137
 IR Inten    --      2.1365                 4.3081                 1.9037

                     37                     38                     39
                      A                      A                      A
 Frequencies --   1208.8274              1282.2419              1315.1305
 Red. masses --      1.6951                 1.7793                 1.2039
 Frc consts  --      1.4594                 1.7236                 1.2269
 IR Inten    --     10.3062                19.4575                 6.0581

                     40                     41                     42
                      A                      A                      A
 Frequencies --   1337.8384              1364.5287              1386.5003
 Red. masses --      1.2242                 1.3753                 1.2966
 Frc consts  --      1.2909                 1.5087                 1.4685
 IR Inten    --      6.7086                 1.2251                 0.5972

                     43                     44                     45
                      A                      A                      A
 Frequencies --   1397.8208              1413.1872              1440.4877
 Red. masses --      1.5051                 1.4128                 1.2626
 Frc consts  --      1.7326                 1.6624                 1.5436
 IR Inten    --      1.5550                 4.7469                19.4663

                     46                     47                     48
                      A                      A                      A
 Frequencies --   1441.6040              1452.8455              1503.3890
 Red. masses --      1.2445                 1.2312                 1.4240
 Frc consts  --      1.5239                 1.5312                 1.8963
 IR Inten    --      2.8428                28.5881                 1.5969

                     49                     50                     51
                      A                      A                      A
 Frequencies --   1515.7849              1523.4091              1531.6872
 Red. masses --      1.0593                 1.0659                 1.0614
 Frc consts  --      1.4340                 1.4575                 1.4671
 IR Inten    --      0.3458                 6.7969                 5.3122

                     52                     53                     54
                      A                      A                      A
 Frequencies --   1534.5901              1536.0638              1538.8568
 Red. masses --      1.0763                 1.0454                 1.0469
 Frc consts  --      1.4934                 1.4533                 1.4606
 IR Inten    --      2.9580                 0.9102                 3.1898

                     55                     56                     57
                      A                      A                      A
 Frequencies --   1546.9223              2065.0346              2977.2889
 Red. masses --      1.0730                10.1726                 1.0725
 Frc consts  --      1.5128                25.5585                 5.6013
 IR Inten    --      0.9110                42.0176                70.1337

                     58                     59                     60
                      A                      A                      A
 Frequencies --   3031.4457              3054.9742              3055.5323
 Red. masses --      1.0664                 1.0459                 1.0452
 Frc consts  --      5.7737                 5.7513                 5.7495
 IR Inten    --     36.5125                23.7681                 3.7753

                     61                     62                     63
                      A                      A                      A
 Frequencies --   3059.5952              3075.2523              3101.0333
 Red. masses --      1.0495                 1.0953                 1.0964
 Frc consts  --      5.7882                 6.1030                 6.2119
 IR Inten    --     33.7679                23.5814                 0.4208

                     64                     65                     66
                      A                      A                      A
 Frequencies --   3107.2132              3118.7180              3120.8509
 Red. masses --      1.0921                 1.0994                 1.0976
 Frc consts  --      6.2121                 6.3002                 6.2983
 IR Inten    --     37.3160                59.7600                 8.4764

                     67                     68                     69
                      A                      A                      A
 Frequencies --   3121.6862              3129.2991              3131.6611
 Red. masses --      1.0893                 1.1013                 1.1018
 Frc consts  --      6.2545                 6.3539                 6.3666
 IR Inten    --     22.4767                42.1581                38.2346

                     70                     71                     72
                      A                      A                      A
 Frequencies --   3143.9754              3212.5255              3698.2722
 Red. masses --      1.0583                 1.1154                 1.0648
 Frc consts  --      6.1636                 6.7820                 8.5810
 IR Inten    --      4.3342                 3.2550                23.8317

 - Thermochemistry -
 -------------------
 Temperature   298.150 Kelvin.  Pressure   1.00000 Atm.
 Atom     1 has atomic number  6 and mass  12.00000

 Molecular mass:   140.12012 amu.
 Principal axes and moments of inertia in atomic units:
                           1         2         3
     Eigenvalues --  1127.639551800.287582236.06306
           X            0.99993  -0.00319   0.01104
           Y            0.00374   0.99873  -0.05019
           Z           -0.01086   0.05023   0.99868
 This molecule is an asymmetric top.
 Rotational symmetry number  1.
 Warning -- assumption of classical behavior for rotation
           may cause significant error
 Rotational temperatures (Kelvin)      0.07681     0.04811     0.03874
 Rotational constants (GHZ):           1.60046     1.00247     0.80711
 Zero-point vibrational energy     611144.6 (Joules/Mol)
                                  146.06707 (Kcal/Mol)
 Warning -- explicit consideration of  18 degrees of freedom as
           vibrations may cause significant error
 Vibrational temperatures:     82.95   148.54   166.77   193.79   218.30
          (Kelvin)            282.66   316.58   342.39   380.41   439.11
                              478.27   502.47   504.97   571.25   619.89
                              635.55   752.03   855.47   936.64  1062.36
                             1120.94  1166.62  1250.09  1309.12  1322.35
                             1366.28  1400.44  1465.91  1492.60  1518.06
                             1528.48  1562.80  1602.68  1644.76  1691.15
                             1726.59  1739.23  1844.86  1892.18  1924.85
                             1963.25  1994.86  2011.15  2033.26  2072.54
                             2074.15  2090.32  2163.04  2180.88  2191.85
                             2203.76  2207.93  2210.05  2214.07  2225.68
                             2971.12  4283.65  4361.57  4395.43  4396.23
                             4402.08  4424.60  4461.70  4470.59  4487.14
                             4490.21  4491.41  4502.36  4505.76  4523.48
                             4622.11  5320.99

 Zero-point correction=                           0.232773 (Hartree/Particle)
 Thermal correction to Energy=                    0.244991
 Thermal correction to Enthalpy=                  0.245935
 Thermal correction to Gibbs Free Energy=         0.195524
 Sum of electronic and zero-point Energies=           -427.557275
 Sum of electronic and thermal Energies=              -427.545057
 Sum of electronic and thermal Enthalpies=            -427.544112
 Sum of electronic and thermal Free Energies=         -427.594524

                     E (Thermal)             CV                S
                      KCal/Mol        Cal/Mol-Kelvin    Cal/Mol-Kelvin
 Total                  153.734             45.544            106.100
 Electronic               0.000              0.000              0.000
 Translational            0.889              2.981             40.724
 Rotational               0.889              2.981             29.897
 Vibrational            151.957             39.582             35.480
 Vibration     1          0.596              1.974              4.536
 Vibration     2          0.605              1.947              3.392
 Vibration     3          0.608              1.936              3.167
 Vibration     4          0.613              1.919              2.878
 Vibration     5          0.619              1.901              2.650
 Vibration     6          0.636              1.845              2.166
 Vibration     7          0.647              1.811              1.959
 Vibration     8          0.656              1.782              1.818
 Vibration     9          0.671              1.738              1.633
 Vibration    10          0.696              1.664              1.388
 Vibration    11          0.714              1.611              1.248
 Vibration    12          0.726              1.577              1.170
 Vibration    13          0.728              1.573              1.162
 Vibration    14          0.764              1.476              0.974
 Vibration    15          0.792              1.403              0.856
 Vibration    16          0.801              1.379              0.821
 Vibration    17          0.878              1.200              0.604
 Vibration    18          0.952              1.043              0.459

 Optimization completed.
    -- Stationary point found.

 1\1\GINC-NODE371\Freq\RB3LYP\6-31G(d)\C9H16O1\VSC10255\08-Dec-2020\0\\
 #N Geom=AllCheck Guess=TCheck SCRF=Check GenChk RB3LYP/6-31G(d) Freq\\
 CID_154126438_JID_533_neutraal\\0,1\C,1.0399516408,-0.0870053446,0.069
 1478212\C,0.6896826893,0.5318090442,-1.2862974395\C,1.1413842006,-0.27
 62986904,-2.521386706\C,0.6352182321,-1.7399176673,-2.4961183596\C,-0.
 8794373467,-1.9216818678,-2.3549825866\C,0.6204436163,0.4277734868,-3.
 8034396114\O,1.0768865558,1.7612984171,-3.9349144597\C,2.6631228279,-0
 .3205193346,-2.6464946603\C,3.5093788954,0.5089678224,-2.0882011029\C,

 Normal termination of Gaussian 16 at Tue Dec  8 12:19:54 2020.

 ----------------------------------------------------------------------
 # B3LYP/6-311++G(d,p) empiricaldispersion=gd3bj scf=xqc pop=npa geom=c
 heck
 ----------------------------------------------------------------------

 --------------------------------------
 CID_154126438_JID_533_Energie_neutraal
 --------------------------------------
 Structure from the checkpoint file:  "JID_533.chk"
 Charge =  0 Multiplicity = 1

 SCF Done:  E(RB3LYP) =  -427.922581412     A.U. after   14 cycles
 Normal termination of Gaussian 16 at Tue Dec  8 12:25:15 2020.

 ----------------------------------------------------------------------
 # B3LYP/6-311++G(d,p) empiricaldispersion=gd3bj scf=xqc pop=npa geom=c
 heck
 ----------------------------------------------------------------------

 ------------------------------------
 CID_154126438_JID_533_Energie_kation
 ------------------------------------
 Structure from the checkpoint file:  "JID_533.chk"
 Charge =  1 Multiplicity = 2

 SCF Done:  E(UB3LYP) =  -427.588453289     A.U. after   24 cycles
 Normal termination of Gaussian 16 at Tue Dec  8 12:32:32 2020.
 Gaussian 16:  ES64L-G16RevA.03 25-Dec-2016

 -----------------------------------
 CID_154126438_JID_533_Energie_anion
 -----------------------------------
 Structure from the checkpoint file:  "JID_533.chk"
 Charge = -1 Multiplicity = 2

                         Standard orientation:
 ---------------------------------------------------------------------
 Center     Atomic      Atomic             Coordinates (Angstroms)
 Number     Number       Type             X           Y           Z
 ---------------------------------------------------------------------
      1          6           0       -0.091898   -2.155331    0.902635
      2          6           0       -0.202129   -0.642895    1.110574
      3          6           0       -0.388934    0.191782   -0.174313
      4          6           0       -1.592245   -0.283069   -1.026124
      5          6           0       -2.943993   -0.330580   -0.306637
      6          6           0       -0.588774    1.681261    0.215909
      7          8           0        0.491849    2.215744    0.957863
      8          6           0        0.849803    0.146393   -1.066932
      9          6           0        2.062905   -0.173889   -0.690512
     10          6           0        3.263929   -0.532594   -0.318474
     11          1           0       -1.016759   -2.581827    0.498724
     12          1           0        0.111808   -2.656591    1.855191
     13          1           0        0.719952   -2.406789    0.213302
     14          1           0       -1.042629   -0.428070    1.781970
     15          1           0        0.689698   -0.274114    1.626030
     16          1           0       -1.674230    0.378227   -1.900298
     17          1           0       -1.362849   -1.277943   -1.425736
     18          1           0       -3.247360    0.652299    0.068442
     19          1           0       -3.724935   -0.673296   -0.994128
     20          1           0       -2.927685   -1.020617    0.543121
     21          1           0       -0.775089    2.269396   -0.699199
     22          1           0       -1.467158    1.782631    0.859781
     23          1           0        1.295632    2.023346    0.445550
     24          1           0        0.698825    0.465540   -2.100681
     25          1           0        3.600844   -1.563890   -0.407203
     26          1           0        3.975159    0.179284    0.095475
 ---------------------------------------------------------------------

 SCF Done:  E(UB3LYP) =  -427.905608850     A.U. after   33 cycles
 SCF Done:  E(UB3LYP) =  -427.905608850     a.u. after    1 cycles

 The electronic state is 2-A.
 Alpha  occ. eigenvalues --  -19.01710 -10.10969 -10.08745 -10.08736 -10.07885
 Alpha  occ. eigenvalues --  -10.07525 -10.06219 -10.05854 -10.05335 -10.05167
 Alpha  occ. eigenvalues --   -0.92097  -0.73539  -0.68237  -0.64332  -0.62287
 Alpha  occ. eigenvalues --   -0.58937  -0.53541  -0.52145  -0.45457  -0.41020
 Alpha  occ. eigenvalues --   -0.39993  -0.37415  -0.36207  -0.35076  -0.34728
 Alpha  occ. eigenvalues --   -0.33388  -0.31261  -0.30118  -0.29836  -0.26982
 Alpha  occ. eigenvalues --   -0.25803  -0.25583  -0.25199  -0.23113  -0.22013
 Alpha  occ. eigenvalues --   -0.20948  -0.17578  -0.16644  -0.15657   0.04846
 Alpha virt. eigenvalues --    0.06982   0.07398   0.08041   0.09061   0.09647
 Alpha virt. eigenvalues --    0.09714   0.10668   0.10828   0.11307   0.11616
 Alpha virt. eigenvalues --    0.12123   0.12607   0.13586   0.14258   0.14896

  Beta  occ. eigenvalues --  -19.01698 -10.10950 -10.08738 -10.08728 -10.07867
  Beta  occ. eigenvalues --  -10.07478 -10.06192 -10.05840 -10.05296 -10.05139
  Beta  occ. eigenvalues --   -0.92073  -0.73507  -0.68174  -0.64289  -0.62237
  Beta  occ. eigenvalues --   -0.58874  -0.53468  -0.52070  -0.45391  -0.40946
  Beta  occ. eigenvalues --   -0.39952  -0.37367  -0.36153  -0.35038  -0.34679
  Beta  occ. eigenvalues --   -0.33352  -0.31227  -0.30083  -0.29789  -0.26931
  Beta  occ. eigenvalues --   -0.25773  -0.25531  -0.25153  -0.23079  -0.21983
  Beta  occ. eigenvalues --   -0.20911  -0.17547  -0.16558  -0.15618
  Beta virt. eigenvalues --    0.07130   0.07896   0.08161   0.08509   0.09739
  Beta virt. eigenvalues --    0.10060   0.10154   0.10871   0.11247   0.11725
  Beta virt. eigenvalues --    0.12073   0.12628   0.13039   0.14077   0.14451

 Mulliken charges and spin densities:
               1          2
     1  C    0.621683  -1.337829
     2  C   -1.228039   1.134116
     3  C    1.821216  -1.415399
     4  C   -1.222041   0.965643
     5  C    1.441517  -2.097907
     6  C    0.535248  -1.088164
     7  O   -0.215985   0.013846
     8  C   -0.065313  -0.353487
     9  C    1.748321  -1.324020
    10  C   -1.864469   1.352112
    11  H   -0.082253   0.234619
    12  H   -0.095060   0.222872
    13  H   -0.031785   0.166335
    14  H   -0.101046   0.262324
    15  H    0.219401  -0.074583
    16  H   -0.095258   0.254309
    17  H   -0.107396   0.285166
    18  H   -0.223753   0.356773
    19  H   -0.642057   0.794519
    20  H   -0.197662   0.339960
    21  H   -0.307195   0.465591
    22  H    0.195081  -0.008680
    23  H    0.251404  -0.003331
    24  H   -0.946755   1.168045
    25  H   -0.076847   0.211739
    26  H   -0.330956   0.475429
 Sum of Mulliken charges =  -1.00000   1.00000

 Dipole moment (field-independent basis, Debye):
    X=              1.7729    Y=              0.1859    Z=              3.3384  Tot=              3.7845
 Quadrupole moment (field-independent basis, Debye-Ang):
   XX=           -123.9912   YY=           -103.8532   ZZ=           -103.0687
   XY=             -4.1364   XZ=             -2.1049   YZ=              1.0181

 Summary of Natural Population Analysis:

                                       Natural Population
                Natural  -----------------------------------------------
    Atom  No    Charge         Core      Valence    Rydberg      Total
 -----------------------------------------------------------------------
      C    1   -0.28732      0.99966     2.28236    0.00530     3.28732
      C    2   -0.19325      0.99960     2.18344    0.01021     3.19325
      C    3   -0.05811      0.99954     2.04267    0.01590     3.05811
      C    4   -0.19037      0.99960     2.17933    0.01145     3.19037
      C    5   -0.28678      0.99966     2.28115    0.00597     3.28678
      C    6   -0.00234      0.99953     1.98881    0.01400     3.00234
      O    7   -0.37111      0.99990     3.36514    0.00607     4.37111
      C    8   -0.14045      0.99942     2.12700    0.01402     3.14045
      C    9    0.03698      0.99950     1.95294    0.01057     2.96302
      C   10   -0.23138      0.99949     2.22540    0.00649     3.23138
      H   11    0.09687      0.00000     0.40203    0.00110     0.40313
      H   12    0.09698      0.00000     0.40226    0.00076     0.40302
      H   13    0.10089      0.00000     0.39782    0.00129     0.39911
      H   14    0.09854      0.00000     0.40041    0.00105     0.40146
      H   15    0.10629      0.00000     0.39247    0.00124     0.39371
      H   16    0.10021      0.00000     0.39747    0.00232     0.39979
      H   17    0.10187      0.00000     0.39652    0.00162     0.39813
      H   18    0.09536      0.00000     0.40341    0.00123     0.40464
      H   19    0.10372      0.00000     0.39474    0.00154     0.39628
      H   20    0.09734      0.00000     0.40153    0.00113     0.40266
      H   21    0.07892      0.00000     0.41962    0.00146     0.42108
      H   22    0.08870      0.00000     0.40997    0.00133     0.41130
      H   23    0.23135      0.00000     0.26521    0.00344     0.26865
      H   24    0.11777      0.00000     0.37888    0.00334     0.38223
      H   25    0.10471      0.00000     0.39383    0.00147     0.39529
      H   26    0.10460      0.00000     0.39365    0.00175     0.39540
 =======================================================================
   * Total *   -0.00000      9.99589    28.87806    0.12605    39.00000

 Normal termination of Gaussian 16 at Tue Dec  8 12:50:29 2020.
