 Gaussian 16, Revision A.03,

 -----------------------------------------------------------
 # opt freq B3LYP/6-31G(d) empiricaldispersion=gd3bj scf=xqc
 -----------------------------------------------------------

 -------------------------------
 CID_107857507_JID_8592_neutraal
 -------------------------------
 Symbolic Z-matrix:
 Charge =  0 Multiplicity = 1

 SCF Done:  E(RB3LYP) =  -1161.92036383     A.U. after   15 cycles
 SCF Done:  E(RB3LYP) =  -1161.92636835     A.U. after   13 cycles
 SCF Done:  E(RB3LYP) =  -1161.92778644     A.U. after   13 cycles
 SCF Done:  E(RB3LYP) =  -1161.92859789     A.U. after   13 cycles
 SCF Done:  E(RB3LYP) =  -1161.92905064     A.U. after   13 cycles
 SCF Done:  E(RB3LYP) =  -1161.92936120     A.U. after   13 cycles
 SCF Done:  E(RB3LYP) =  -1161.92968257     A.U. after   14 cycles
 SCF Done:  E(RB3LYP) =  -1161.92964385     A.U. after   11 cycles
 SCF Done:  E(RB3LYP) =  -1161.93050871     A.U. after   15 cycles
 SCF Done:  E(RB3LYP) =  -1161.89127201     A.U. after   15 cycles
 SCF Done:  E(RB3LYP) =  -1161.93200577     A.U. after   12 cycles
 SCF Done:  E(RB3LYP) =  -1161.93206083     A.U. after   12 cycles
 SCF Done:  E(RB3LYP) =  -1161.93207007     A.U. after   11 cycles
 SCF Done:  E(RB3LYP) =  -1161.93207243     A.U. after   10 cycles
 SCF Done:  E(RB3LYP) =  -1161.93207287     A.U. after    8 cycles
 SCF Done:  E(RB3LYP) =  -1161.93207289     A.U. after    7 cycles
 Optimization completed.
    -- Stationary point found.
 Normal termination of Gaussian 16 at Fri Dec 11 20:13:18 2020.

 --------------------------------------------------------------------
 #N Geom=AllCheck Guess=TCheck SCRF=Check GenChk RB3LYP/6-31G(d) Freq
 --------------------------------------------------------------------

 Structure from the checkpoint file:  "JID_8592.chk"
 -------------------------------
 CID_107857507_JID_8592_neutraal
 -------------------------------
 Charge =  0 Multiplicity = 1

 SCF Done:  E(RB3LYP) =  -1161.93207289     A.U. after    1 cycles

  Exact polarizability: 203.810  17.407 157.552 -26.466  15.125 119.889
 Approx polarizability: 310.484  39.105 250.191 -61.169  38.871 211.596

                      1                      2                      3
                      A                      A                      A
 Frequencies --     26.0184                38.8929                43.8300
 Red. masses --      5.8386                 4.3787                 4.5874
 Frc consts  --      0.0023                 0.0039                 0.0052
 IR Inten    --      0.8721                 2.5208                 1.3764

                      4                      5                      6
                      A                      A                      A
 Frequencies --     62.4857                73.5758               124.7959
 Red. masses --      4.4691                 4.6785                 7.5825
 Frc consts  --      0.0103                 0.0149                 0.0696
 IR Inten    --      1.7726                 2.0605                 2.7952

                      7                      8                      9
                      A                      A                      A
 Frequencies --    148.4343               176.5798               202.8870
 Red. masses --      7.7946                 2.5708                 4.5162
 Frc consts  --      0.1012                 0.0472                 0.1095
 IR Inten    --      3.8775                 2.7136                 3.1943

                     10                     11                     12
                      A                      A                      A
 Frequencies --    241.3330               255.1124               274.0083
 Red. masses --      4.0052                 7.9601                 7.8970
 Frc consts  --      0.1374                 0.3052                 0.3493
 IR Inten    --      0.5580                 0.9856                 0.2467

                     13                     14                     15
                      A                      A                      A
 Frequencies --    284.5342               314.1121               365.5628
 Red. masses --      3.3059                 4.8865                 2.1326
 Frc consts  --      0.1577                 0.2841                 0.1679
 IR Inten    --      6.1164                 1.9365                 0.5946

                     16                     17                     18
                      A                      A                      A
 Frequencies --    392.5389               413.6315               417.7114
 Red. masses --      2.0756                 3.0225                 5.5399
 Frc consts  --      0.1884                 0.3047                 0.5695
 IR Inten    --      1.3588                 0.0832                 0.8835

                     19                     20                     21
                      A                      A                      A
 Frequencies --    440.8916               462.9842               504.5791
 Red. masses --      5.5577                 7.6310                 5.8224
 Frc consts  --      0.6365                 0.9638                 0.8734
 IR Inten    --      1.0727                20.3541                26.8562

                     22                     23                     24
                      A                      A                      A
 Frequencies --    519.7256               539.9015               559.8368
 Red. masses --      4.1623                 7.9801                 7.5083
 Frc consts  --      0.6624                 1.3705                 1.3865
 IR Inten    --     11.9054                14.4542                 0.0565

                     25                     26                     27
                      A                      A                      A
 Frequencies --    587.8400               650.7039               662.8961
 Red. masses --      3.4505                 4.0354                 6.7712
 Frc consts  --      0.7025                 1.0067                 1.7531
 IR Inten    --     68.4169                15.1189                 0.6377

                     28                     29                     30
                      A                      A                      A
 Frequencies --    665.0410               714.3993               741.1578
 Red. masses --      1.2863                 4.8356                 5.7309
 Frc consts  --      0.3352                 1.4541                 1.8548
 IR Inten    --     21.8083                15.6933                36.4710

                     31                     32                     33
                      A                      A                      A
 Frequencies --    766.8591               789.4151               847.6590
 Red. masses --      3.6208                 1.7362                 1.8321
 Frc consts  --      1.2545                 0.6375                 0.7756
 IR Inten    --     11.1412                 6.2576                12.6802

                     34                     35                     36
                      A                      A                      A
 Frequencies --    851.3099               867.3030               889.5562
 Red. masses --      1.7151                 2.3446                 3.6629
 Frc consts  --      0.7323                 1.0391                 1.7077
 IR Inten    --      7.3192                31.0315                17.2082

                     37                     38                     39
                      A                      A                      A
 Frequencies --    925.3222               947.8806               966.0806
 Red. masses --      1.8248                 2.6585                 1.3959
 Frc consts  --      0.9206                 1.4073                 0.7676
 IR Inten    --     39.3288                57.1997                 1.1787

                     40                     41                     42
                      A                      A                      A
 Frequencies --    969.8058               973.3773               982.7863
 Red. masses --      1.9523                 1.3289                 2.0244
 Frc consts  --      1.0818                 0.7419                 1.1520
 IR Inten    --     28.0878                 0.7626                15.1320

                     43                     44                     45
                      A                      A                      A
 Frequencies --    997.5258              1037.9822              1045.4231
 Red. masses --      1.3976                 1.9079                 2.8671
 Frc consts  --      0.8194                 1.2111                 1.8462
 IR Inten    --      1.0473                19.1095                 3.1292

                     46                     47                     48
                      A                      A                      A
 Frequencies --   1064.6055              1100.2009              1124.3812
 Red. masses --      1.9225                 3.0283                 2.2073
 Frc consts  --      1.2838                 2.1597                 1.6441
 IR Inten    --     19.2873                79.5778                82.3508

                     49                     50                     51
                      A                      A                      A
 Frequencies --   1140.7445              1159.9671              1173.0900
 Red. masses --      1.6428                 1.8648                 1.1866
 Frc consts  --      1.2596                 1.4783                 0.9621
 IR Inten    --     69.7955                19.4587                18.6707

                     52                     53                     54
                      A                      A                      A
 Frequencies --   1215.0577              1237.7786              1238.6512
 Red. masses --      1.4079                 1.2094                 2.9681
 Frc consts  --      1.2247                 1.0917                 2.6831
 IR Inten    --      1.7413                 5.6051                 0.6092

                     55                     56                     57
                      A                      A                      A
 Frequencies --   1240.0559              1250.1744              1275.3586
 Red. masses --      1.7129                 1.5113                 1.3624
 Frc consts  --      1.5519                 1.3917                 1.3056
 IR Inten    --      3.4217                 2.4979                16.3720

                     58                     59                     60
                      A                      A                      A
 Frequencies --   1283.2510              1336.3065              1343.6764
 Red. masses --      1.8891                 4.5363                 2.0282
 Frc consts  --      1.8328                 4.7727                 2.1575
 IR Inten    --     23.8032               146.3790                 4.7260

                     61                     62                     63
                      A                      A                      A
 Frequencies --   1347.3245              1365.2829              1376.5966
 Red. masses --      1.5841                 2.2397                 1.3324
 Frc consts  --      1.6943                 2.4597                 1.4876
 IR Inten    --     16.1383                 1.6135                 4.5860

                     64                     65                     66
                      A                      A                      A
 Frequencies --   1395.8594              1420.2811              1433.7257
 Red. masses --      1.4304                 1.5202                 1.5151
 Frc consts  --      1.6421                 1.8068                 1.8349
 IR Inten    --      2.0243                13.6020                 2.3256

                     67                     68                     69
                      A                      A                      A
 Frequencies --   1461.1508              1491.2506              1501.5423
 Red. masses --      2.6817                 1.1192                 1.0938
 Frc consts  --      3.3733                 1.4664                 1.4530
 IR Inten    --      9.3244                 5.2656                 5.2235

                     70                     71                     72
                      A                      A                      A
 Frequencies --   1518.9458              1533.8657              1558.7294
 Red. masses --      1.0808                 1.0883                 2.4327
 Frc consts  --      1.4692                 1.5086                 3.4823
 IR Inten    --      4.7176                 5.6404                11.1979

                     73                     74                     75
                      A                      A                      A
 Frequencies --   1619.4373              1671.5046              1743.8656
 Red. masses --      6.3816                 5.6818                 6.3799
 Frc consts  --      9.8607                 9.3529                11.4312
 IR Inten    --      0.0935                 7.3819                 1.1781

                     76                     77                     78
                      A                      A                      A
 Frequencies --   2352.1277              3004.6220              3019.6212
 Red. masses --     12.6797                 1.0739                 1.0716
 Frc consts  --     41.3316                 5.7118                 5.7568
 IR Inten    --     31.6156                34.5690                21.6672

                     79                     80                     81
                      A                      A                      A
 Frequencies --   3029.1243              3067.3852              3096.6963
 Red. masses --      1.0679                 1.0956                 1.0587
 Frc consts  --      5.7730                 6.0736                 5.9815
 IR Inten    --     49.4368                46.4564                 5.0433

                     82                     83                     84
                      A                      A                      A
 Frequencies --   3125.8819              3158.1992              3163.4680
 Red. masses --      1.0881                 1.1081                 1.0921
 Frc consts  --      6.2644                 6.5121                 6.4395
 IR Inten    --      4.1812                 1.0257                 2.9912

                     85                     86                     87
                      A                      A                      A
 Frequencies --   3171.6302              3193.6428              3209.2377
 Red. masses --      1.0852                 1.0970                 1.0887
 Frc consts  --      6.4318                 6.5922                 6.6061
 IR Inten    --      7.7976                20.8408                 6.5367

                     88                     89                     90
                      A                      A                      A
 Frequencies --   3212.9020              3227.4389              3228.8420
 Red. masses --      1.0887                 1.0946                 1.0958
 Frc consts  --      6.6215                 6.7177                 6.7307
 IR Inten    --      1.8789                 6.4093                 0.2547

 - Thermochemistry -
 -------------------
 Temperature   298.150 Kelvin.  Pressure   1.00000 Atm.
 Atom     1 has atomic number  6 and mass  12.00000

 Molecular mass:   262.07760 amu.
 Principal axes and moments of inertia in atomic units:
                           1         2         3
     Eigenvalues --  2883.808956138.266657781.48177
           X            0.99959  -0.02806  -0.00532
           Y            0.02808   0.99960   0.00353
           Z            0.00522  -0.00367   0.99998
 This molecule is an asymmetric top.
 Rotational symmetry number  1.
 Warning -- assumption of classical behavior for rotation
           may cause significant error
 Rotational temperatures (Kelvin)      0.03003     0.01411     0.01113
 Rotational constants (GHZ):           0.62582     0.29401     0.23193
 Zero-point vibrational energy     667802.0 (Joules/Mol)
                                  159.60850 (Kcal/Mol)
 Warning -- explicit consideration of  25 degrees of freedom as
           vibrations may cause significant error
 Vibrational temperatures:     37.43    55.96    63.06    89.90   105.86
          (Kelvin)            179.55   213.56   254.06   291.91   347.22
                              367.05   394.24   409.38   451.94   525.96
                              564.78   595.12   600.99   634.34   666.13
                              725.98   747.77   776.80   805.48   845.77
                              936.22   953.76   956.85  1027.86  1066.36
                             1103.34  1135.79  1219.59  1224.85  1247.86
                             1279.87  1331.33  1363.79  1389.97  1395.33
                             1400.47  1414.01  1435.22  1493.42  1504.13
                             1531.73  1582.94  1617.73  1641.28  1668.93
                             1687.81  1748.20  1780.89  1782.14  1784.16
                             1798.72  1834.96  1846.31  1922.65  1933.25
                             1938.50  1964.34  1980.62  2008.33  2043.47
                             2062.81  2102.27  2145.58  2160.38  2185.42
                             2206.89  2242.66  2330.01  2404.92  2509.03
                             3384.19  4322.98  4344.56  4358.23  4413.28
                             4455.46  4497.45  4543.94  4551.52  4563.27
                             4594.94  4617.38  4622.65  4643.56  4645.58

 Zero-point correction=                           0.254352 (Hartree/Particle)
 Thermal correction to Energy=                    0.270591
 Thermal correction to Enthalpy=                  0.271536
 Thermal correction to Gibbs Free Energy=         0.208978
 Sum of electronic and zero-point Energies=          -1161.677721
 Sum of electronic and thermal Energies=             -1161.661481
 Sum of electronic and thermal Enthalpies=           -1161.660537
 Sum of electronic and thermal Free Energies=        -1161.723095

                     E (Thermal)             CV                S
                      KCal/Mol        Cal/Mol-Kelvin    Cal/Mol-Kelvin
 Total                  169.799             62.093            131.664
 Electronic               0.000              0.000              0.000
 Translational            0.889              2.981             42.590
 Rotational               0.889              2.981             33.287
 Vibrational            168.021             56.132             55.787
 Vibration     1          0.593              1.985              6.112
 Vibration     2          0.594              1.981              5.315
 Vibration     3          0.595              1.980              5.078
 Vibration     4          0.597              1.972              4.377
 Vibration     5          0.599              1.966              4.055
 Vibration     6          0.610              1.928              3.025
 Vibration     7          0.618              1.904              2.692
 Vibration     8          0.628              1.871              2.364
 Vibration     9          0.639              1.836              2.107
 Vibration    10          0.658              1.777              1.793
 Vibration    11          0.665              1.754              1.695
 Vibration    12          0.676              1.721              1.571
 Vibration    13          0.683              1.702              1.506
 Vibration    14          0.702              1.647              1.341
 Vibration    15          0.739              1.543              1.098
 Vibration    16          0.760              1.486              0.990
 Vibration    17          0.777              1.441              0.914
 Vibration    18          0.781              1.432              0.900
 Vibration    19          0.801              1.381              0.824
 Vibration    20          0.821              1.332              0.757
 Vibration    21          0.860              1.240              0.647
 Vibration    22          0.875              1.206              0.611
 Vibration    23          0.895              1.162              0.565
 Vibration    24          0.915              1.118              0.524
 Vibration    25          0.945              1.058              0.471

 Optimization completed.
    -- Stationary point found.
 Normal termination of Gaussian 16 at Fri Dec 11 20:28:10 2020.

 ----------------------------------------------------------------------
 # B3LYP/6-311++G(d,p) empiricaldispersion=gd3bj scf=xqc pop=npa geom=c
 heck
 ----------------------------------------------------------------------

 ---------------------------------------
 CID_107857507_JID_8592_Energie_neutraal
 ---------------------------------------
 Structure from the checkpoint file:  "JID_8592.chk"
 Charge =  0 Multiplicity = 1

 SCF Done:  E(RB3LYP) =  -1162.16584786     A.U. after   16 cycles
 Normal termination of Gaussian 16 at Fri Dec 11 20:35:13 2020.

 ----------------------------------------------------------------------
 # B3LYP/6-311++G(d,p) empiricaldispersion=gd3bj scf=xqc pop=npa geom=c
 heck
 ----------------------------------------------------------------------

 -------------------------------------
 CID_107857507_JID_8592_Energie_kation
 -------------------------------------
 Structure from the checkpoint file:  "JID_8592.chk"
 Charge =  1 Multiplicity = 2

 SCF Done:  E(UB3LYP) =  -1161.83889666     A.U. after   30 cycles
 Normal termination of Gaussian 16 at Fri Dec 11 20:53:57 2020.
 Gaussian 16:  ES64L-G16RevA.03 25-Dec-2016

 ----------------------------------------------------------------------
 # B3LYP/6-311++G(d,p) empiricaldispersion=gd3bj scf=xqc pop=npa geom=c
 heck
 ----------------------------------------------------------------------

 ------------------------------------
 CID_107857507_JID_8592_Energie_anion
 ------------------------------------
 Structure from the checkpoint file:  "JID_8592.chk"
 Charge = -1 Multiplicity = 2

                         Standard orientation:
 ---------------------------------------------------------------------
 Center     Atomic      Atomic             Coordinates (Angstroms)
 Number     Number       Type             X           Y           Z
 ---------------------------------------------------------------------
      1          6           0       -2.068800    2.527646    0.831761
      2          6           0       -2.731340    1.317107    0.170760
      3          7           0       -1.679661    0.404922   -0.292417
      4          6           0       -0.808945    0.936168   -1.347911
      5          6           0       -0.396155    2.341849   -1.007872
      6          6           0       -0.940546    3.052527   -0.017953
      7         16           0       -1.902264   -1.246934   -0.206929
      8          8           0       -3.251612   -1.512075    0.301519
      9          8           0       -1.413856   -1.852053   -1.450572
     10          6           0       -0.732826   -1.731483    1.120696
     11          6           0        0.644674   -1.215950    0.839360
     12          6           0        1.054645    0.015374    1.365227
     13          6           0        2.289297    0.555866    1.028538
     14          6           0        3.136657   -0.140105    0.151961
     15          6           0        2.735703   -1.378705   -0.375708
     16          6           0        1.496769   -1.906485   -0.032665
     17          6           0        4.406781    0.416279   -0.206991
     18          7           0        5.435798    0.872409   -0.499902
     19          1           0       -2.821585    3.311121    0.989412
     20          1           0       -1.697450    2.252552    1.830112
     21          1           0       -3.343371    1.642601   -0.682899
     22          1           0       -3.383159    0.781158    0.860174
     23          1           0        0.074561    0.299268   -1.430709
     24          1           0       -1.311641    0.904696   -2.327801
     25          1           0        0.394113    2.763116   -1.624867
     26          1           0       -0.576230    4.056158    0.190633
     27          1           0       -1.155007   -1.324873    2.042346
     28          1           0       -0.783917   -2.823432    1.152443
     29          1           0        0.390053    0.563599    2.024772
     30          1           0        2.600086    1.514508    1.428967
     31          1           0        3.393511   -1.910830   -1.054278
     32          1           0        1.171545   -2.847508   -0.464008
 ---------------------------------------------------------------------

 SCF Done:  E(UB3LYP) =  -1162.18601888     A.U. after   26 cycles

 The electronic state is 2-A.
 Alpha  occ. eigenvalues --  -88.94258 -19.00825 -19.00632 -14.24149 -14.14918
 Alpha  occ. eigenvalues --  -10.12165 -10.11429 -10.09527 -10.09065 -10.08614
 Alpha  occ. eigenvalues --  -10.08461 -10.05167 -10.04239 -10.03951 -10.03862
 Alpha  occ. eigenvalues --  -10.03808 -10.03688 -10.03260  -8.00576  -5.96881
 Alpha  occ. eigenvalues --   -5.96830  -5.96568  -1.00909  -0.90080  -0.84665
 Alpha  occ. eigenvalues --   -0.75534  -0.72953  -0.71711  -0.67778  -0.67263
 Alpha  occ. eigenvalues --   -0.61555  -0.61224  -0.57867  -0.55602  -0.50502
 Alpha  occ. eigenvalues --   -0.48144  -0.47976  -0.43492  -0.43081  -0.40948
 Alpha  occ. eigenvalues --   -0.39306  -0.38906  -0.37345  -0.36339  -0.35368
 Alpha  occ. eigenvalues --   -0.34618  -0.33802  -0.33105  -0.31595  -0.30528
 Alpha  occ. eigenvalues --   -0.30194  -0.29594  -0.28883  -0.27515  -0.25747
 Alpha  occ. eigenvalues --   -0.25281  -0.24560  -0.24192  -0.22009  -0.21763
 Alpha  occ. eigenvalues --   -0.21387  -0.20889  -0.20021  -0.18877  -0.18233
 Alpha  occ. eigenvalues --   -0.16746  -0.15519  -0.12844  -0.11954   0.03860
 Alpha virt. eigenvalues --    0.06245   0.08334   0.08421   0.08837   0.09403
 Alpha virt. eigenvalues --    0.10068   0.10723   0.11095   0.11350   0.11525
 Alpha virt. eigenvalues --    0.12079   0.12885   0.13215   0.14106   0.14871

  Beta  occ. eigenvalues --  -88.94207 -19.00776 -19.00619 -14.24144 -14.14590
  Beta  occ. eigenvalues --  -10.12165 -10.11426 -10.09527 -10.09086 -10.08614
  Beta  occ. eigenvalues --  -10.08449 -10.05182 -10.03954 -10.03865 -10.03762
  Beta  occ. eigenvalues --  -10.03692 -10.03675 -10.02797  -8.00518  -5.96841
  Beta  occ. eigenvalues --   -5.96791  -5.96471  -1.00800  -0.89995  -0.84643
  Beta  occ. eigenvalues --   -0.75027  -0.72490  -0.71629  -0.67772  -0.66797
  Beta  occ. eigenvalues --   -0.61182  -0.60805  -0.57671  -0.55593  -0.50182
  Beta  occ. eigenvalues --   -0.47896  -0.47537  -0.43466  -0.42950  -0.40720
  Beta  occ. eigenvalues --   -0.39184  -0.38826  -0.37300  -0.36243  -0.35200
  Beta  occ. eigenvalues --   -0.34381  -0.33724  -0.32980  -0.31588  -0.30400
  Beta  occ. eigenvalues --   -0.30091  -0.29476  -0.28791  -0.27451  -0.25349
  Beta  occ. eigenvalues --   -0.24776  -0.24262  -0.23633  -0.21864  -0.21418
  Beta  occ. eigenvalues --   -0.21057  -0.20126  -0.19913  -0.18145  -0.18047
  Beta  occ. eigenvalues --   -0.16702  -0.15466  -0.11809  -0.09768
  Beta virt. eigenvalues --    0.06174   0.08199   0.08337   0.08787   0.09348
  Beta virt. eigenvalues --    0.09924   0.10090   0.10685   0.11062   0.11287
  Beta virt. eigenvalues --    0.11741   0.12041   0.12854   0.13155   0.14072

 Mulliken charges and spin densities:
               1          2
     1  C   -0.352874  -0.003692
     2  C   -0.352976  -0.013376
     3  N    0.086659   0.005501
     4  C   -0.526838  -0.024084
     5  C    0.228793  -0.029606
     6  C   -0.321959   0.003094
     7  S    0.264584   0.037288
     8  O   -0.116747   0.008141
     9  O   -0.194078   0.006950
    10  C   -1.237428  -0.039844
    11  C    1.072371   0.244726
    12  C   -0.052544   0.057735
    13  C   -0.333203   0.117607
    14  C    1.666707   0.249591
    15  C   -0.402159   0.106277
    16  C   -0.571940   0.074979
    17  C   -1.722645  -0.114565
    18  N   -0.326250   0.178597
    19  H    0.125464   0.013919
    20  H    0.146439  -0.000707
    21  H    0.144678   0.012696
    22  H    0.177555   0.005140
    23  H    0.142065   0.001071
    24  H    0.186752   0.014230
    25  H    0.179575   0.018663
    26  H    0.126442   0.028521
    27  H    0.222310   0.010948
    28  H    0.202421   0.028390
    29  H    0.083885   0.008153
    30  H    0.156251  -0.004662
    31  H    0.157332  -0.004812
    32  H    0.141358   0.003132
 Sum of Mulliken charges =  -1.00000   1.00000

 Dipole moment (field-independent basis, Debye):
    X=             -9.6332    Y=              2.8721    Z=              1.6658  Tot=             10.1893
 Quadrupole moment (field-independent basis, Debye-Ang):
   XX=           -206.4170   YY=           -129.0518   ZZ=           -123.8472
   XY=            -18.7623   XZ=              0.0594   YZ=             -0.1753

 Summary of Natural Population Analysis:

                                       Natural Population
                Natural  -----------------------------------------------
    Atom  No    Charge         Core      Valence    Rydberg      Total
 -----------------------------------------------------------------------
      C    1   -0.20785      0.99962     2.20154    0.00669     3.20785
      C    2   -0.08102      0.99962     2.07229    0.00910     3.08102
      N    3   -0.38628      0.99971     2.87050    0.01607     3.88628
      C    4   -0.10362      0.99959     2.09270    0.01132     3.10362
      C    5   -0.08815      0.99953     2.07888    0.00974     3.08815
      C    6   -0.09834      0.99954     2.08959    0.00922     3.09834
      S    7    1.12012      4.99925     1.78362    0.09702     6.87988
      O    8   -0.47290      0.99991     3.46757    0.00542     4.47290
      O    9   -0.46577      0.99991     3.45933    0.00654     4.46577
      C   10   -0.27821      0.99955     2.26734    0.01132     3.27821
      C   11    0.02528      0.99949     1.96240    0.01283     2.97472
      C   12   -0.10242      0.99952     2.09438    0.00852     3.10242
      C   13   -0.06172      0.99954     2.05283    0.00934     3.06172
      C   14   -0.03773      0.99942     2.02757    0.01074     3.03773
      C   15   -0.06476      0.99955     2.05572    0.00950     3.06476
      C   16   -0.09770      0.99953     2.09002    0.00815     3.09770
      C   17    0.14640      0.99965     1.83567    0.01828     2.85360
      N   18   -0.16607      0.99978     2.65500    0.01128     3.66607
      H   19    0.09791      0.00000     0.40091    0.00117     0.40209
      H   20    0.10287      0.00000     0.39588    0.00125     0.39713
      H   21    0.08496      0.00000     0.41311    0.00193     0.41504
      H   22    0.11295      0.00000     0.38603    0.00101     0.38705
      H   23    0.12602      0.00000     0.37246    0.00153     0.37398
      H   24    0.09560      0.00000     0.40301    0.00138     0.40440
      H   25    0.10198      0.00000     0.39680    0.00122     0.39802
      H   26    0.09487      0.00000     0.40378    0.00135     0.40513
      H   27    0.10961      0.00000     0.38936    0.00102     0.39039
      H   28    0.11363      0.00000     0.38536    0.00101     0.38637
      H   29    0.09110      0.00000     0.40741    0.00149     0.40890
      H   30    0.09556      0.00000     0.40359    0.00086     0.40444
      H   31    0.09609      0.00000     0.40310    0.00081     0.40391
      H   32    0.09757      0.00000     0.40149    0.00094     0.40243
 =======================================================================
   * Total *   -0.00000     21.99270    46.71927    0.28803    69.00000

 Normal termination of Gaussian 16 at Fri Dec 11 21:10:27 2020.
