 Gaussian 16, Revision A.03,

 -----------------------------------------------------------
 # opt freq B3LYP/6-31G(d) empiricaldispersion=gd3bj scf=xqc
 -----------------------------------------------------------

 -------------------------------
 CID_113562993_JID_7046_neutraal
 -------------------------------
 Symbolic Z-matrix:
 Charge =  0 Multiplicity = 1

 SCF Done:  E(RB3LYP) =  -1127.48822148     A.U. after   15 cycles
 SCF Done:  E(RB3LYP) =  -1127.49353642     A.U. after   12 cycles
 SCF Done:  E(RB3LYP) =  -1127.49454476     A.U. after   12 cycles
 SCF Done:  E(RB3LYP) =  -1127.49530106     A.U. after   13 cycles
 SCF Done:  E(RB3LYP) =  -1127.49566679     A.U. after   13 cycles
 SCF Done:  E(RB3LYP) =  -1127.49627626     A.U. after   13 cycles
 SCF Done:  E(RB3LYP) =  -1127.49733077     A.U. after   13 cycles
 SCF Done:  E(RB3LYP) =  -1127.49757766     A.U. after   11 cycles
 SCF Done:  E(RB3LYP) =  -1127.49766764     A.U. after   12 cycles
 SCF Done:  E(RB3LYP) =  -1127.49776107     A.U. after   12 cycles
 SCF Done:  E(RB3LYP) =  -1127.49804169     A.U. after    7 cycles
 SCF Done:  E(RB3LYP) =  -1127.49804187     A.U. after    8 cycles
 SCF Done:  E(RB3LYP) =  -1127.49804191     A.U. after    6 cycles
 SCF Done:  E(RB3LYP) =  -1127.49804193     A.U. after    6 cycles
 SCF Done:  E(RB3LYP) =  -1127.49804194     A.U. after    7 cycles
 Optimization completed.
    -- Stationary point found.
 Normal termination of Gaussian 16 at Sun Dec 13 20:18:56 2020.

 --------------------------------------------------------------------
 #N Geom=AllCheck Guess=TCheck SCRF=Check GenChk RB3LYP/6-31G(d) Freq
 --------------------------------------------------------------------

 Structure from the checkpoint file:  "JID_7046.chk"
 -------------------------------
 CID_113562993_JID_7046_neutraal
 -------------------------------
 Charge =  0 Multiplicity = 1

 SCF Done:  E(RB3LYP) =  -1127.49804194     A.U. after    1 cycles

  Exact polarizability: 203.313  -2.013 159.418  -3.124  -1.030 123.415
 Approx polarizability: 259.494  -9.731 262.619  -7.254   5.270 187.371

                      1                      2                      3
                      A                      A                      A
 Frequencies --     16.1090                45.0302                55.0119
 Red. masses --      3.8847                 3.9783                 3.4304
 Frc consts  --      0.0006                 0.0048                 0.0061
 IR Inten    --      0.0754                 1.5323                 0.7952

                      4                      5                      6
                      A                      A                      A
 Frequencies --     75.9580                81.6781                97.2155
 Red. masses --      2.0008                 1.6897                 1.7531
 Frc consts  --      0.0068                 0.0066                 0.0098
 IR Inten    --      1.6813                 0.0795                 0.7091

                      7                      8                      9
                      A                      A                      A
 Frequencies --    105.3045               130.0788               152.2456
 Red. masses --      1.8532                 3.7271                 2.1714
 Frc consts  --      0.0121                 0.0372                 0.0297
 IR Inten    --      2.1504                 0.7965                 0.9768

                     10                     11                     12
                      A                      A                      A
 Frequencies --    183.2928               192.5272               222.5834
 Red. masses --      2.6369                 2.9194                 2.6279
 Frc consts  --      0.0522                 0.0638                 0.0767
 IR Inten    --      0.3160                 0.6675                 4.8625

                     13                     14                     15
                      A                      A                      A
 Frequencies --    247.6877               254.1331               262.2652
 Red. masses --      2.2867                 1.7822                 2.6232
 Frc consts  --      0.0827                 0.0678                 0.1063
 IR Inten    --      1.8470                 0.4619                 6.1422

                     16                     17                     18
                      A                      A                      A
 Frequencies --    269.3810               301.2223               325.9530
 Red. masses --      2.3799                 3.8887                 2.9511
 Frc consts  --      0.1018                 0.2079                 0.1847
 IR Inten    --      4.5339                 0.0486                 2.3327

                     19                     20                     21
                      A                      A                      A
 Frequencies --    333.1257               370.1586               396.2653
 Red. masses --      3.2413                 3.7856                 2.3705
 Frc consts  --      0.2119                 0.3056                 0.2193
 IR Inten    --      1.1999                 3.5986                 5.9961

                     22                     23                     24
                      A                      A                      A
 Frequencies --    433.4101               456.0454               485.7042
 Red. masses --      2.8895                 3.0146                 4.4910
 Frc consts  --      0.3198                 0.3694                 0.6242
 IR Inten    --      3.3320                 1.7884                 1.1143

                     25                     26                     27
                      A                      A                      A
 Frequencies --    538.2161               555.2830               564.7437
 Red. masses --      3.5564                 3.2480                 4.6610
 Frc consts  --      0.6070                 0.5901                 0.8758
 IR Inten    --      0.2938                12.4431                 4.0771

                     28                     29                     30
                      A                      A                      A
 Frequencies --    618.9935               671.3156               683.8020
 Red. masses --      5.1700                 4.4872                 4.3169
 Frc consts  --      1.1671                 1.1915                 1.1893
 IR Inten    --     13.8687                 0.2216                 9.2614

                     31                     32                     33
                      A                      A                      A
 Frequencies --    693.3702               719.4723               810.6506
 Red. masses --      3.6831                 6.2795                 1.2717
 Frc consts  --      1.0433                 1.9151                 0.4924
 IR Inten    --      4.2153                 0.0824                87.9358

                     34                     35                     36
                      A                      A                      A
 Frequencies --    822.6319               858.7094               880.5119
 Red. masses --      1.5855                 3.6311                 3.8142
 Frc consts  --      0.6322                 1.5775                 1.7423
 IR Inten    --      1.2339                16.0247                35.4038

                     37                     38                     39
                      A                      A                      A
 Frequencies --    928.6125               937.7627               954.3082
 Red. masses --      2.9616                 2.4458                 2.5385
 Frc consts  --      1.5047                 1.2672                 1.3621
 IR Inten    --      8.7736                 1.6803                 5.8566

                     40                     41                     42
                      A                      A                      A
 Frequencies --    992.0683              1010.5151              1024.9076
 Red. masses --      1.7739                 1.7822                 1.9798
 Frc consts  --      1.0286                 1.0722                 1.2253
 IR Inten    --      6.5417                12.2080                 7.3051

                     43                     44                     45
                      A                      A                      A
 Frequencies --   1041.3033              1052.5146              1069.8837
 Red. masses --      2.3474                 1.7583                 2.3276
 Frc consts  --      1.4997                 1.1476                 1.5697
 IR Inten    --     13.6444                12.8261                11.9902

                     46                     47                     48
                      A                      A                      A
 Frequencies --   1075.4684              1124.8092              1138.2708
 Red. masses --      1.4998                 5.2152                 4.2007
 Frc consts  --      1.0221                 3.8876                 3.2067
 IR Inten    --      1.8796               114.1453                 9.3998

                     49                     50                     51
                      A                      A                      A
 Frequencies --   1144.5799              1147.8144              1170.6487
 Red. masses --      2.7782                 3.1333                 1.5648
 Frc consts  --      2.1444                 2.4322                 1.2635
 IR Inten    --     41.2003                85.9869                 8.3563

                     52                     53                     54
                      A                      A                      A
 Frequencies --   1184.2079              1190.9032              1195.9055
 Red. masses --      2.8113                 1.3249                 1.7993
 Frc consts  --      2.3228                 1.1071                 1.5162
 IR Inten    --     51.1807                 6.9033                19.1717

                     55                     56                     57
                      A                      A                      A
 Frequencies --   1212.2604              1219.5685              1232.7342
 Red. masses --      2.9045                 2.0149                 1.8834
 Frc consts  --      2.5149                 1.7657                 1.6863
 IR Inten    --      0.9392                 6.2499                20.1997

                     58                     59                     60
                      A                      A                      A
 Frequencies --   1263.9816              1287.3192              1298.2943
 Red. masses --      1.5541                 1.4165                 1.3230
 Frc consts  --      1.4629                 1.3830                 1.3138
 IR Inten    --     14.0052                17.8797                 5.8110

                     61                     62                     63
                      A                      A                      A
 Frequencies --   1301.9907              1343.3040              1351.6370
 Red. masses --      1.3303                 1.2768                 4.6209
 Frc consts  --      1.3287                 1.3575                 4.9739
 IR Inten    --     10.8736                18.5874                13.5960

                     64                     65                     66
                      A                      A                      A
 Frequencies --   1374.0570              1395.1935              1401.2755
 Red. masses --      1.4570                 1.4797                 1.2517
 Frc consts  --      1.6207                 1.6970                 1.4482
 IR Inten    --      3.4548                38.8367                 7.3384

                     67                     68                     69
                      A                      A                      A
 Frequencies --   1405.2115              1442.2627              1443.0004
 Red. masses --      1.5553                 1.3159                 1.3116
 Frc consts  --      1.8095                 1.6127                 1.6091
 IR Inten    --     17.8901                 9.9268                10.8782

                     70                     71                     72
                      A                      A                      A
 Frequencies --   1482.1156              1490.9994              1497.7198
 Red. masses --      1.1792                 1.1122                 1.1227
 Frc consts  --      1.5261                 1.4567                 1.4837
 IR Inten    --      1.5543                 1.8654                 3.5118

                     73                     74                     75
                      A                      A                      A
 Frequencies --   1504.7354              1507.0021              1511.9652
 Red. masses --      1.2137                 1.0665                 1.0897
 Frc consts  --      1.6191                 1.4270                 1.4677
 IR Inten    --     27.7433                 6.5426                 2.7236

                     76                     77                     78
                      A                      A                      A
 Frequencies --   1514.4163              1518.7457              1519.9531
 Red. masses --      1.1481                 1.0569                 1.0809
 Frc consts  --      1.5514                 1.4363                 1.4713
 IR Inten    --      1.7131                10.3817                 0.1983

                     79                     80                     81
                      A                      A                      A
 Frequencies --   1524.7324              1532.7057              1535.0365
 Red. masses --      1.0799                 4.1371                 1.0970
 Frc consts  --      1.4791                 5.7261                 1.5230
 IR Inten    --      7.0589                14.2544                 7.6502

                     82                     83                     84
                      A                      A                      A
 Frequencies --   1536.0470              1538.3741              1545.6569
 Red. masses --      1.1158                 1.1253                 1.0555
 Frc consts  --      1.5511                 1.5691                 1.4858
 IR Inten    --      1.7506                15.4096                10.9028

                     85                     86                     87
                      A                      A                      A
 Frequencies --   1614.3294              2952.3004              2960.4665
 Red. masses --      5.9050                 1.0706                 1.0615
 Frc consts  --      9.0669                 5.4977                 5.4815
 IR Inten    --     20.3374                38.6702               142.3178

                     88                     89                     90
                      A                      A                      A
 Frequencies --   3013.0173              3019.6740              3028.3326
 Red. masses --      1.0693                 1.0371                 1.0676
 Frc consts  --      5.7193                 5.5720                 5.7686
 IR Inten    --     45.5628                37.4731                56.3954

                     91                     92                     93
                      A                      A                      A
 Frequencies --   3028.9635              3054.4139              3060.6302
 Red. masses --      1.0868                 1.0389                 1.0601
 Frc consts  --      5.8747                 5.7105                 5.8511
 IR Inten    --     26.0694                28.3884                22.0304

                     94                     95                     96
                      A                      A                      A
 Frequencies --   3073.7298              3076.8914              3078.9976
 Red. masses --      1.0637                 1.1007                 1.0745
 Frc consts  --      5.9213                 6.1397                 6.0017
 IR Inten    --     14.6166                37.7380                39.0491

                     97                     98                     99
                      A                      A                      A
 Frequencies --   3102.9949              3110.8129              3110.8372
 Red. masses --      1.1011                 1.0983                 1.0972
 Frc consts  --      6.2465                 6.2619                 6.2560
 IR Inten    --     34.6540                13.4769                37.5443

                    100                    101                    102
                      A                      A                      A
 Frequencies --   3113.1978              3128.6983              3132.3565
 Red. masses --      1.0976                 1.1020                 1.1023
 Frc consts  --      6.2675                 6.3559                 6.3723
 IR Inten    --     46.2323                28.7268                13.2690

                    103                    104                    105
                      A                      A                      A
 Frequencies --   3138.8263              3143.6614              3494.9189
 Red. masses --      1.0998                 1.1014                 1.0743
 Frc consts  --      6.3839                 6.4133                 7.7315
 IR Inten    --     33.9578                18.9942                 0.1775

 - Thermochemistry -
 -------------------
 Temperature   298.150 Kelvin.  Pressure   1.00000 Atm.
 Atom     1 has atomic number  6 and mass  12.00000

 Molecular mass:   256.12455 amu.
 Principal axes and moments of inertia in atomic units:
                           1         2         3
     Eigenvalues --  2128.628288058.988948822.17848
           X            1.00000  -0.00076  -0.00284
           Y            0.00068   0.99961  -0.02801
           Z            0.00286   0.02801   0.99960
 This molecule is an asymmetric top.
 Rotational symmetry number  1.
 Warning -- assumption of classical behavior for rotation
           may cause significant error
 Rotational temperatures (Kelvin)      0.04069     0.01075     0.00982
 Rotational constants (GHZ):           0.84784     0.22394     0.20457
 Zero-point vibrational energy     834185.5 (Joules/Mol)
                                  199.37511 (Kcal/Mol)
 Warning -- explicit consideration of  28 degrees of freedom as
           vibrations may cause significant error
 Vibrational temperatures:     23.18    64.79    79.15   109.29   117.52
          (Kelvin)            139.87   151.51   187.15   219.05   263.72
                              277.00   320.25   356.37   365.64   377.34
                              387.58   433.39   468.97   479.29   532.58
                              570.14   623.58   656.15   698.82   774.37
                              798.93   812.54   890.59   965.87   983.84
                              997.61  1035.16  1166.35  1183.58  1235.49
                             1266.86  1336.07  1349.23  1373.04  1427.36
                             1453.91  1474.61  1498.20  1514.33  1539.32
                             1547.36  1618.35  1637.72  1646.80  1651.45
                             1684.30  1703.81  1713.44  1720.64  1744.17
                             1754.69  1773.63  1818.59  1852.17  1867.96
                             1873.27  1932.71  1944.70  1976.96  2007.37
                             2016.12  2021.79  2075.09  2076.16  2132.43
                             2145.22  2154.88  2164.98  2168.24  2175.38
                             2178.91  2185.14  2186.87  2193.75  2205.22
                             2208.58  2210.03  2213.38  2223.86  2322.66
                             4247.70  4259.45  4335.06  4344.64  4357.10
                             4358.00  4394.62  4403.56  4422.41  4426.96
                             4429.99  4464.52  4475.77  4475.80  4479.20
                             4501.50  4506.76  4516.07  4523.03  5028.41

 Zero-point correction=                           0.317724 (Hartree/Particle)
 Thermal correction to Energy=                    0.335860
 Thermal correction to Enthalpy=                  0.336805
 Thermal correction to Gibbs Free Energy=         0.270181
 Sum of electronic and zero-point Energies=          -1127.180317
 Sum of electronic and thermal Energies=             -1127.162182
 Sum of electronic and thermal Enthalpies=           -1127.161237
 Sum of electronic and thermal Free Energies=        -1127.227861

                     E (Thermal)             CV                S
                      KCal/Mol        Cal/Mol-Kelvin    Cal/Mol-Kelvin
 Total                  210.756             66.846            140.221
 Electronic               0.000              0.000              0.000
 Translational            0.889              2.981             42.521
 Rotational               0.889              2.981             33.381
 Vibrational            208.978             60.885             64.318
 Vibration     1          0.593              1.986              7.064
 Vibration     2          0.595              1.979              5.025
 Vibration     3          0.596              1.976              4.629
 Vibration     4          0.599              1.965              3.993
 Vibration     5          0.600              1.962              3.850
 Vibration     6          0.603              1.951              3.509
 Vibration     7          0.605              1.945              3.354
 Vibration     8          0.612              1.923              2.945
 Vibration     9          0.619              1.900              2.644
 Vibration    10          0.631              1.863              2.295
 Vibration    11          0.635              1.850              2.203
 Vibration    12          0.648              1.807              1.938
 Vibration    13          0.661              1.767              1.747
 Vibration    14          0.665              1.756              1.702
 Vibration    15          0.670              1.742              1.647
 Vibration    16          0.674              1.730              1.600
 Vibration    17          0.693              1.671              1.410
 Vibration    18          0.710              1.624              1.280
 Vibration    19          0.715              1.609              1.245
 Vibration    20          0.742              1.534              1.079
 Vibration    21          0.763              1.478              0.976
 Vibration    22          0.794              1.397              0.848
 Vibration    23          0.814              1.348              0.778
 Vibration    24          0.842              1.282              0.695
 Vibration    25          0.893              1.166              0.569
 Vibration    26          0.911              1.128              0.533
 Vibration    27          0.921              1.108              0.514
 Vibration    28          0.979              0.992              0.418

 Optimization completed.
    -- Stationary point found.
 Normal termination of Gaussian 16 at Sun Dec 13 20:32:29 2020.

 ----------------------------------------------------------------------
 # B3LYP/6-311++G(d,p) empiricaldispersion=gd3bj scf=xqc pop=npa geom=c
 heck
 ----------------------------------------------------------------------

 ---------------------------------------
 CID_113562993_JID_7046_Energie_neutraal
 ---------------------------------------
 Structure from the checkpoint file:  "JID_7046.chk"
 Charge =  0 Multiplicity = 1

 SCF Done:  E(RB3LYP) =  -1127.72979644     A.U. after   15 cycles
 Normal termination of Gaussian 16 at Sun Dec 13 20:40:08 2020.

 ----------------------------------------------------------------------
 # B3LYP/6-311++G(d,p) empiricaldispersion=gd3bj scf=xqc pop=npa geom=c
 heck
 ----------------------------------------------------------------------

 -------------------------------------
 CID_113562993_JID_7046_Energie_kation
 -------------------------------------
 Structure from the checkpoint file:  "JID_7046.chk"
 Charge =  1 Multiplicity = 2

 SCF Done:  E(UB3LYP) =  -1127.43439610     A.U. after   29 cycles
 Normal termination of Gaussian 16 at Sun Dec 13 21:00:55 2020.
 Gaussian 16:  ES64L-G16RevA.03 25-Dec-2016

 ----------------------------------------------------------------------
 # B3LYP/6-311++G(d,p) empiricaldispersion=gd3bj scf=xqc pop=npa geom=c
 heck
 ----------------------------------------------------------------------

 ------------------------------------
 CID_113562993_JID_7046_Energie_anion
 ------------------------------------
 Structure from the checkpoint file:  "JID_7046.chk"
 Charge = -1 Multiplicity = 2

                         Standard orientation:
 ---------------------------------------------------------------------
 Center     Atomic      Atomic             Coordinates (Angstroms)
 Number     Number       Type             X           Y           Z
 ---------------------------------------------------------------------
      1          6           0        2.332958    2.915881   -0.115241
      2          6           0        1.631200    1.590058   -0.145956
      3          6           0        2.207982    0.355614   -0.313235
      4         16           0        0.974617   -0.880793   -0.292227
      5          6           0       -0.232973    0.375494   -0.070784
      6          7           0        0.255765    1.581171   -0.010729
      7          6           0       -1.711406    0.083515    0.102428
      8          6           0       -2.061624   -1.403859   -0.100480
      9          6           0       -3.578174   -1.601289   -0.054054
     10          8           0       -4.237999   -0.812048   -1.032198
     11          6           0       -4.007705    0.577475   -0.821517
     12          6           0       -2.520362    0.917251   -0.908303
     13          8           0       -2.162177    0.537617    1.388182
     14          6           0       -1.426990    0.092556    2.512528
     15          6           0        3.640161   -0.023018   -0.532464
     16          7           0        3.969648   -1.253365    0.181637
     17          6           0        5.350547   -1.674268   -0.017370
     18          1           0        2.110487    3.494358   -1.020098
     19          1           0        1.984051    3.505467    0.738893
     20          1           0        3.418002    2.804201   -0.044711
     21          1           0       -1.689691   -1.728623   -1.078715
     22          1           0       -1.578939   -2.031371    0.657900
     23          1           0       -3.837466   -2.640891   -0.273903
     24          1           0       -3.953390   -1.353481    0.950898
     25          1           0       -4.405365    0.882862    0.157232
     26          1           0       -4.568944    1.098411   -1.602702
     27          1           0       -2.342563    1.976628   -0.703385
     28          1           0       -2.153974    0.697058   -1.917108
     29          1           0       -1.395279   -1.003322    2.591737
     30          1           0       -0.398351    0.475366    2.502005
     31          1           0       -1.945843    0.490294    3.388163
     32          1           0        3.823280   -0.210653   -1.600538
     33          1           0        4.286331    0.831116   -0.257277
     34          1           0        3.787903   -1.115214    1.174124
     35          1           0        6.101456   -0.907663    0.249294
     36          1           0        5.546352   -2.570846    0.578382
     37          1           0        5.499919   -1.932658   -1.072095
 ---------------------------------------------------------------------

 SCF Done:  E(UB3LYP) =  -1127.72077446     A.U. after   33 cycles
 SCF Done:  E(UB3LYP) =  -1127.72077446     a.u. after    1 cycles

 The electronic state is 2-A.
 Alpha  occ. eigenvalues --  -88.75901 -19.03531 -19.02989 -14.19617 -14.19092
 Alpha  occ. eigenvalues --  -10.14369 -10.12804 -10.12353 -10.11777 -10.10772
 Alpha  occ. eigenvalues --  -10.09658 -10.09263 -10.08452 -10.08123 -10.08032
 Alpha  occ. eigenvalues --  -10.07286 -10.06557  -7.84531  -5.80797  -5.80443
 Alpha  occ. eigenvalues --   -5.80161  -0.95285  -0.94062  -0.84610  -0.80372
 Alpha  occ. eigenvalues --   -0.71690  -0.68861  -0.67691  -0.66306  -0.60665
 Alpha  occ. eigenvalues --   -0.60018  -0.57833  -0.55254  -0.54411  -0.52081
 Alpha  occ. eigenvalues --   -0.47784  -0.45226  -0.43201  -0.41033  -0.39286
 Alpha  occ. eigenvalues --   -0.39050  -0.38305  -0.37077  -0.37052  -0.35859
 Alpha  occ. eigenvalues --   -0.34580  -0.33501  -0.32505  -0.32147  -0.31662
 Alpha  occ. eigenvalues --   -0.30841  -0.30097  -0.29385  -0.29046  -0.28119
 Alpha  occ. eigenvalues --   -0.27183  -0.27013  -0.26738  -0.26263  -0.25165
 Alpha  occ. eigenvalues --   -0.23879  -0.22173  -0.21950  -0.17622  -0.16705
 Alpha  occ. eigenvalues --   -0.16450  -0.15786  -0.12795  -0.12266   0.04375
 Alpha virt. eigenvalues --    0.06376   0.06632   0.07556   0.07677   0.08066
 Alpha virt. eigenvalues --    0.08732   0.08854   0.09799   0.10331   0.10520
 Alpha virt. eigenvalues --    0.10773   0.11014   0.11459   0.11786   0.12398

  Beta  occ. eigenvalues --  -88.75880 -19.03528 -19.02957 -14.19592 -14.19038
  Beta  occ. eigenvalues --  -10.14379 -10.12798 -10.12345 -10.11766 -10.10560
  Beta  occ. eigenvalues --  -10.09637 -10.09263 -10.08354 -10.08076 -10.08028
  Beta  occ. eigenvalues --  -10.07276 -10.06542  -7.84511  -5.80789  -5.80436
  Beta  occ. eigenvalues --   -5.80090  -0.95264  -0.94008  -0.84431  -0.80321
  Beta  occ. eigenvalues --   -0.71619  -0.68730  -0.67657  -0.66203  -0.60583
  Beta  occ. eigenvalues --   -0.59971  -0.57697  -0.55232  -0.54293  -0.51998
  Beta  occ. eigenvalues --   -0.47675  -0.45132  -0.43096  -0.40966  -0.39191
  Beta  occ. eigenvalues --   -0.39030  -0.38227  -0.37054  -0.37007  -0.35794
  Beta  occ. eigenvalues --   -0.34468  -0.33447  -0.32407  -0.32050  -0.31616
  Beta  occ. eigenvalues --   -0.30792  -0.30064  -0.29349  -0.28968  -0.28068
  Beta  occ. eigenvalues --   -0.27069  -0.26912  -0.26617  -0.26089  -0.25079
  Beta  occ. eigenvalues --   -0.23782  -0.22116  -0.21928  -0.17568  -0.16660
  Beta  occ. eigenvalues --   -0.16053  -0.15696  -0.12638  -0.11727
  Beta virt. eigenvalues --    0.06301   0.07085   0.07266   0.07749   0.08162
  Beta virt. eigenvalues --    0.08348   0.08901   0.09499   0.10165   0.10320
  Beta virt. eigenvalues --    0.10736   0.10829   0.11019   0.11554   0.11755

 Mulliken charges and spin densities:
               1          2
     1  C    0.712707  -1.274342
     2  C   -1.200535   0.855533
     3  C    0.581193   0.649765
     4  S    0.089025  -0.626285
     5  C    0.024573   0.467256
     6  N    0.206180   0.045459
     7  C   -0.383797   0.118280
     8  C   -0.112001  -0.060287
     9  C   -0.233686  -0.400452
    10  O   -0.152133   0.020210
    11  C   -0.353625  -0.176466
    12  C   -0.455693   0.197106
    13  O    0.016202   0.004562
    14  C   -0.060958  -0.149178
    15  C   -0.322154  -0.731958
    16  N   -0.329304   0.224599
    17  C    1.115521  -1.484488
    18  H    0.095129   0.059508
    19  H    0.083323   0.063756
    20  H   -0.498737   0.629824
    21  H    0.093470   0.095406
    22  H    0.129340   0.006793
    23  H    0.058664   0.125738
    24  H    0.097311   0.050166
    25  H    0.129047   0.036670
    26  H    0.087932   0.097389
    27  H    0.176886   0.003877
    28  H    0.110125   0.089544
    29  H    0.078602   0.048826
    30  H    0.135630   0.046779
    31  H    0.058420   0.082122
    32  H   -0.381977   0.559692
    33  H    0.592029  -0.461367
    34  H   -0.056844   0.267051
    35  H   -0.647635   0.772439
    36  H   -0.208974   0.333408
    37  H   -0.273254   0.413062
 Sum of Mulliken charges =  -1.00000   1.00000

 Dipole moment (field-independent basis, Debye):
    X=             -8.8095    Y=              0.4351    Z=              1.4233  Tot=              8.9343
 Quadrupole moment (field-independent basis, Debye-Ang):
   XX=           -222.7047   YY=           -144.3397   ZZ=           -136.1207
   XY=              5.1831   XZ=             -2.5967   YZ=             -5.6896

 Summary of Natural Population Analysis:

                                       Natural Population
                Natural  -----------------------------------------------
    Atom  No    Charge         Core      Valence    Rydberg      Total
 -----------------------------------------------------------------------
      C    1   -0.29120      0.99963     2.28658    0.00500     3.29120
      C    2    0.05751      0.99942     1.92827    0.01480     2.94249
      C    3   -0.09856      0.99943     2.08480    0.01433     3.09856
      S    4    0.20473      4.99939     2.77609    0.01980     7.79527
      C    5    0.05387      0.99953     1.92612    0.02048     2.94613
      N    6   -0.24488      0.99963     2.73394    0.01131     3.74488
      C    7    0.12075      0.99943     1.86115    0.01867     2.87925
      C    8   -0.22099      0.99958     2.21315    0.00826     3.22099
      C    9   -0.00836      0.99958     1.99671    0.01207     3.00836
      O   10   -0.30381      0.99989     3.29387    0.01005     4.30381
      C   11   -0.01015      0.99958     1.99892    0.01165     3.01015
      C   12   -0.20408      0.99958     2.19506    0.00945     3.20408
      O   13   -0.30684      0.99987     3.29620    0.01077     4.30684
      C   14   -0.09931      0.99960     2.09146    0.00825     3.09931
      C   15   -0.09992      0.99957     2.08749    0.01287     3.09992
      N   16   -0.33354      0.99975     2.82233    0.01146     3.83354
      C   17   -0.17476      0.99967     2.16811    0.00698     3.17476
      H   18    0.10195      0.00000     0.39678    0.00127     0.39805
      H   19    0.10449      0.00000     0.39421    0.00131     0.39551
      H   20    0.10297      0.00000     0.39573    0.00130     0.39703
      H   21    0.10901      0.00000     0.38947    0.00152     0.39099
      H   22    0.10522      0.00000     0.39347    0.00132     0.39478
      H   23    0.08895      0.00000     0.40974    0.00132     0.41105
      H   24    0.08028      0.00000     0.41800    0.00172     0.41972
      H   25    0.08277      0.00000     0.41561    0.00162     0.41723
      H   26    0.08838      0.00000     0.41031    0.00131     0.41162
      H   27    0.11502      0.00000     0.38358    0.00140     0.38498
      H   28    0.10265      0.00000     0.39613    0.00122     0.39735
      H   29    0.07537      0.00000     0.42329    0.00134     0.42463
      H   30    0.08892      0.00000     0.40966    0.00141     0.41108
      H   31    0.08724      0.00000     0.41182    0.00094     0.41276
      H   32    0.09999      0.00000     0.39800    0.00202     0.40001
      H   33    0.08990      0.00000     0.40794    0.00216     0.41010
      H   34    0.17202      0.00000     0.32440    0.00358     0.32798
      H   35    0.07987      0.00000     0.41659    0.00354     0.42013
      H   36    0.09314      0.00000     0.40566    0.00120     0.40686
      H   37    0.09142      0.00000     0.40667    0.00191     0.40858
 =======================================================================
   * Total *   -0.00000     20.99311    47.76728    0.23961    69.00000

 Normal termination of Gaussian 16 at Sun Dec 13 21:24:21 2020.
