 Gaussian 16, Revision A.03,

 -----------------------------------------------------------
 # opt freq B3LYP/6-31G(d) empiricaldispersion=gd3bj scf=xqc
 -----------------------------------------------------------

 -------------------------------
 CID_105942388_JID_8043_neutraal
 -------------------------------
 Symbolic Z-matrix:
 Charge =  0 Multiplicity = 1

 SCF Done:  E(RB3LYP) =  -841.196776234     A.U. after   14 cycles
 SCF Done:  E(RB3LYP) =  -841.202037824     A.U. after   12 cycles
 SCF Done:  E(RB3LYP) =  -841.203368351     A.U. after   11 cycles
 SCF Done:  E(RB3LYP) =  -841.203874861     A.U. after   12 cycles
 SCF Done:  E(RB3LYP) =  -841.204051916     A.U. after   12 cycles
 SCF Done:  E(RB3LYP) =  -841.204093405     A.U. after   11 cycles
 SCF Done:  E(RB3LYP) =  -841.204122879     A.U. after   10 cycles
 SCF Done:  E(RB3LYP) =  -841.204132227     A.U. after   10 cycles
 SCF Done:  E(RB3LYP) =  -841.204138628     A.U. after   10 cycles
 SCF Done:  E(RB3LYP) =  -841.204144757     A.U. after   10 cycles
 SCF Done:  E(RB3LYP) =  -841.204147955     A.U. after   10 cycles
 SCF Done:  E(RB3LYP) =  -841.204148368     A.U. after    8 cycles
 SCF Done:  E(RB3LYP) =  -841.204148445     A.U. after    7 cycles
 Optimization completed.
    -- Stationary point found.
 Normal termination of Gaussian 16 at Fri Dec 11 18:36:50 2020.

 --------------------------------------------------------------------
 #N Geom=AllCheck Guess=TCheck SCRF=Check GenChk RB3LYP/6-31G(d) Freq
 --------------------------------------------------------------------

 Structure from the checkpoint file:  "JID_8043.chk"
 -------------------------------
 CID_105942388_JID_8043_neutraal
 -------------------------------
 Charge =  0 Multiplicity = 1

 SCF Done:  E(RB3LYP) =  -841.204148445     A.U. after    1 cycles

  Exact polarizability: 206.648   5.895 141.201   9.658  -3.744 132.762
 Approx polarizability: 231.812  12.885 218.350  17.075 -15.080 205.626

                      1                      2                      3
                      A                      A                      A
 Frequencies --     14.3229                17.9827                26.1714
 Red. masses --      4.4262                 4.1104                 3.4762
 Frc consts  --      0.0005                 0.0008                 0.0014
 IR Inten    --      0.2716                 0.0778                 0.0826

                      4                      5                      6
                      A                      A                      A
 Frequencies --     32.9522                39.0179                54.3686
 Red. masses --      2.9754                 4.2990                 5.8250
 Frc consts  --      0.0019                 0.0039                 0.0101
 IR Inten    --      0.0897                 0.2619                 4.8535

                      7                      8                      9
                      A                      A                      A
 Frequencies --     60.5590                94.7154               110.2484
 Red. masses --      3.0743                 2.4352                 3.2595
 Frc consts  --      0.0066                 0.0129                 0.0233
 IR Inten    --      0.3940                 5.0408                 2.0902

                     10                     11                     12
                      A                      A                      A
 Frequencies --    115.7048               134.7285               163.7437
 Red. masses --      3.2278                 2.5973                 3.6958
 Frc consts  --      0.0255                 0.0278                 0.0584
 IR Inten    --      4.8836                 0.1996                 1.9592

                     13                     14                     15
                      A                      A                      A
 Frequencies --    195.9985               217.6101               239.4912
 Red. masses --      2.4981                 1.6207                 1.8986
 Frc consts  --      0.0565                 0.0452                 0.0642
 IR Inten    --      1.5636                 2.2679                 1.0179

                     16                     17                     18
                      A                      A                      A
 Frequencies --    241.6034               275.4319               291.6638
 Red. masses --      2.1267                 2.0183                 2.1807
 Frc consts  --      0.0731                 0.0902                 0.1093
 IR Inten    --      7.8390                 3.1272                 0.3892

                     19                     20                     21
                      A                      A                      A
 Frequencies --    308.1901               322.3971               334.8588
 Red. masses --      1.9541                 2.3006                 2.4339
 Frc consts  --      0.1094                 0.1409                 0.1608
 IR Inten    --      4.4910                 1.7390                 4.3117

                     22                     23                     24
                      A                      A                      A
 Frequencies --    360.9649               404.6181               419.3966
 Red. masses --      2.3969                 2.3867                 2.4694
 Frc consts  --      0.1840                 0.2302                 0.2559
 IR Inten    --      0.0530                 3.2457                 2.6675

                     25                     26                     27
                      A                      A                      A
 Frequencies --    451.1696               506.8254               527.2510
 Red. masses --      1.9265                 1.9086                 2.5789
 Frc consts  --      0.2310                 0.2889                 0.4224
 IR Inten    --     26.8109                76.1844                 6.3798

                     28                     29                     30
                      A                      A                      A
 Frequencies --    537.5278               591.0522               660.0480
 Red. masses --      3.1551                 2.8177                 4.7011
 Frc consts  --      0.5371                 0.5800                 1.2067
 IR Inten    --      8.8196                 1.2094                 9.2300

                     31                     32                     33
                      A                      A                      A
 Frequencies --    709.1120               720.3100               750.1510
 Red. masses --      1.7978                 4.0497                 2.5987
 Frc consts  --      0.5326                 1.2380                 0.8616
 IR Inten    --     12.1232                23.2180                22.0371

                     34                     35                     36
                      A                      A                      A
 Frequencies --    751.5481               782.0807               805.9253
 Red. masses --      1.7364                 1.7145                 2.5091
 Frc consts  --      0.5778                 0.6179                 0.9602
 IR Inten    --     14.5854                 2.1633                 6.6254

                     37                     38                     39
                      A                      A                      A
 Frequencies --    823.1397               863.8099               873.2527
 Red. masses --      2.0984                 2.1772                 2.1592
 Frc consts  --      0.8377                 0.9572                 0.9701
 IR Inten    --    132.1913                 3.6305                 8.1061

                     40                     41                     42
                      A                      A                      A
 Frequencies --    908.4437               917.9130               935.1925
 Red. masses --      2.2431                 1.6062                 1.8524
 Frc consts  --      1.0907                 0.7973                 0.9545
 IR Inten    --      2.5223                 8.7126                 8.8092

                     43                     44                     45
                      A                      A                      A
 Frequencies --    949.4951               976.6561               983.3899
 Red. masses --      2.4877                 3.7093                 7.2268
 Frc consts  --      1.3214                 2.0846                 4.1177
 IR Inten    --     14.8240                30.6067                 7.3604

                     46                     47                     48
                      A                      A                      A
 Frequencies --   1014.2332              1019.5326              1033.5020
 Red. masses --      1.7278                 1.9224                 1.5901
 Frc consts  --      1.0472                 1.1773                 1.0007
 IR Inten    --      3.4025                27.1567                 4.5742

                     49                     50                     51
                      A                      A                      A
 Frequencies --   1056.1182              1070.3210              1082.5489
 Red. masses --      2.1838                 2.7149                 3.0818
 Frc consts  --      1.4351                 1.8325                 2.1279
 IR Inten    --     14.8524                 6.9454                10.3978

                     52                     53                     54
                      A                      A                      A
 Frequencies --   1120.3303              1130.3117              1139.6488
 Red. masses --      3.1893                 2.6193                 2.4817
 Frc consts  --      2.3585                 1.9717                 1.8991
 IR Inten    --      6.4911                 5.0033                22.6464

                     55                     56                     57
                      A                      A                      A
 Frequencies --   1147.7829              1160.4357              1174.0903
 Red. masses --      2.3431                 2.4370                 1.9634
 Frc consts  --      1.8187                 1.9335                 1.5946
 IR Inten    --     24.8017                19.6030                 4.0159

                     58                     59                     60
                      A                      A                      A
 Frequencies --   1175.2188              1193.5423              1199.1902
 Red. masses --      4.1888                 1.2896                 1.3540
 Frc consts  --      3.4086                 1.0824                 1.1472
 IR Inten    --    138.3705                 2.7140                23.1285

                     61                     62                     63
                      A                      A                      A
 Frequencies --   1226.2213              1234.8772              1254.1841
 Red. masses --      2.4758                 1.4228                 1.5657
 Frc consts  --      2.1933                 1.2783                 1.4510
 IR Inten    --     28.9950                 6.7725                27.0659

                     64                     65                     66
                      A                      A                      A
 Frequencies --   1269.5922              1284.6002              1306.2662
 Red. masses --      1.4139                 1.2499                 1.2566
 Frc consts  --      1.3428                 1.2152                 1.2633
 IR Inten    --      7.5803                29.6051                 1.7474

                     67                     68                     69
                      A                      A                      A
 Frequencies --   1313.9772              1342.4204              1351.3522
 Red. masses --      1.2393                 1.2804                 1.1922
 Frc consts  --      1.2606                 1.3595                 1.2827
 IR Inten    --      8.1140                 2.7214                 5.1311

                     70                     71                     72
                      A                      A                      A
 Frequencies --   1374.0248              1383.0251              1392.5135
 Red. masses --      1.4478                 1.3467                 1.4132
 Frc consts  --      1.6105                 1.5177                 1.6145
 IR Inten    --     16.6887                44.6340                12.6264

                     73                     74                     75
                      A                      A                      A
 Frequencies --   1396.4038              1398.4002              1420.7709
 Red. masses --      1.4939                 1.4244                 1.3722
 Frc consts  --      1.7163                 1.6411                 1.6320
 IR Inten    --      3.0259                 7.5739                 5.7769

                     76                     77                     78
                      A                      A                      A
 Frequencies --   1424.5307              1427.2021              1445.1007
 Red. masses --      1.3585                 1.3989                 1.2671
 Frc consts  --      1.6243                 1.6789                 1.5591
 IR Inten    --      2.8270                 5.7774                 7.6590

                     79                     80                     81
                      A                      A                      A
 Frequencies --   1446.9935              1485.0380              1502.4661
 Red. masses --      1.3751                 1.0774                 1.0940
 Frc consts  --      1.6963                 1.4000                 1.4550
 IR Inten    --     24.3109                 5.1870                 9.4089

                     82                     83                     84
                      A                      A                      A
 Frequencies --   1504.3175              1508.9686              1514.9458
 Red. masses --      1.1632                 1.0973                 1.0484
 Frc consts  --      1.5509                 1.4721                 1.4177
 IR Inten    --      2.4246                 1.2460                 3.3208

                     85                     86                     87
                      A                      A                      A
 Frequencies --   1516.8787              1517.6189              1519.9019
 Red. masses --      1.1568                 1.0875                 1.0811
 Frc consts  --      1.5682                 1.4757                 1.4715
 IR Inten    --     18.6396                10.8127                 6.7040

                     88                     89                     90
                      A                      A                      A
 Frequencies --   1526.9235              1530.6153              1535.3379
 Red. masses --      1.0916                 1.0740                 1.0726
 Frc consts  --      1.4996                 1.4825                 1.4897
 IR Inten    --      5.9742                16.1695                12.1453

                     91                     92                     93
                      A                      A                      A
 Frequencies --   1541.4042              1546.4104              1552.4271
 Red. masses --      1.0903                 1.0720                 1.8466
 Frc consts  --      1.5263                 1.5104                 2.6221
 IR Inten    --     12.3545                12.2355                62.6303

                     94                     95                     96
                      A                      A                      A
 Frequencies --   1561.3569              1623.3749              1676.8538
 Red. masses --      1.0882                 9.5154                 8.9382
 Frc consts  --      1.5630                14.7746                14.8078
 IR Inten    --      4.0928                91.6447               431.1471

                     97                     98                     99
                      A                      A                      A
 Frequencies --   2963.9031              2969.6009              2990.1794
 Red. masses --      1.0716                 1.0526                 1.0410
 Frc consts  --      5.5462                 5.4690                 5.4839
 IR Inten    --     50.0307                32.9865                78.2959

                    100                    101                    102
                      A                      A                      A
 Frequencies --   2994.1265              3031.0001              3033.0205
 Red. masses --      1.1037                 1.1048                 1.0676
 Frc consts  --      5.8295                 5.9800                 5.7866
 IR Inten    --     88.6687                68.0826                29.3796

                    103                    104                    105
                      A                      A                      A
 Frequencies --   3042.8514              3043.6012              3044.3263
 Red. masses --      1.0591                 1.0701                 1.0420
 Frc consts  --      5.7774                 5.8403                 5.6900
 IR Inten    --     17.2927                36.5019                26.5631

                    106                    107                    108
                      A                      A                      A
 Frequencies --   3059.4731              3062.0110              3068.9274
 Red. masses --      1.0634                 1.0860                 1.0625
 Frc consts  --      5.8647                 5.9994                 5.8961
 IR Inten    --     24.6558                39.1177                33.2547

                    109                    110                    111
                      A                      A                      A
 Frequencies --   3079.6066              3082.4244              3083.0208
 Red. masses --      1.0770                 1.0837                 1.1012
 Frc consts  --      6.0179                 6.0668                 6.1671
 IR Inten    --     25.0426                39.9333                10.1301

                    112                    113                    114
                      A                      A                      A
 Frequencies --   3106.4672              3108.9103              3111.6668
 Red. masses --      1.0958                 1.0949                 1.1027
 Frc consts  --      6.2301                 6.2352                 6.2909
 IR Inten    --     33.5047                39.2506                56.2427

                    115                    116                    117
                      A                      A                      A
 Frequencies --   3116.2302              3126.2181              3132.4750
 Red. masses --      1.1012                 1.1031                 1.1047
 Frc consts  --      6.3005                 6.3518                 6.3867
 IR Inten    --     45.1436                 9.5373                17.3837

                    118                    119                    120
                      A                      A                      A
 Frequencies --   3138.6034              3502.2985              3601.8626
 Red. masses --      1.0964                 1.0735                 1.0757
 Frc consts  --      6.3634                 7.7583                 8.2225
 IR Inten    --     31.8048                 0.2776                21.2759

 - Thermochemistry -
 -------------------
 Temperature   298.150 Kelvin.  Pressure   1.00000 Atm.
 Atom     1 has atomic number  6 and mass  12.00000

 Molecular mass:   256.18993 amu.
 Principal axes and moments of inertia in atomic units:
                           1         2         3
     Eigenvalues --  1549.16255********************
           X            0.99999  -0.00469   0.00054
           Y            0.00467   0.99909   0.04237
           Z           -0.00074  -0.04236   0.99910
 This molecule is an asymmetric top.
 Rotational symmetry number  1.
 Warning -- assumption of classical behavior for rotation
           may cause significant error
 Rotational temperatures (Kelvin)      0.05591     0.00561     0.00547
 Rotational constants (GHZ):           1.16498     0.11699     0.11406
 Zero-point vibrational energy     978353.6 (Joules/Mol)
                                  233.83211 (Kcal/Mol)
 Warning -- explicit consideration of  29 degrees of freedom as
           vibrations may cause significant error
 Vibrational temperatures:     20.61    25.87    37.65    47.41    56.14
          (Kelvin)             78.22    87.13   136.27   158.62   166.47
                              193.84   235.59   282.00   313.09   344.57
                              347.61   396.29   419.64   443.42   463.86
                              481.79   519.35   582.16   603.42   649.13
                              729.21   758.60   773.38   850.39   949.66
                             1020.25  1036.37  1079.30  1081.31  1125.24
                             1159.55  1184.31  1242.83  1256.42  1307.05
                             1320.67  1345.53  1366.11  1405.19  1414.88
                             1459.26  1466.88  1486.98  1519.52  1539.95
                             1557.55  1611.91  1626.27  1639.70  1651.40
                             1669.61  1689.25  1690.88  1717.24  1725.37
                             1764.26  1776.71  1804.49  1826.66  1848.25
                             1879.43  1890.52  1931.44  1944.29  1976.92
                             1989.86  2003.52  2009.11  2011.99  2044.17
                             2049.58  2053.43  2079.18  2081.90  2136.64
                             2161.71  2164.38  2171.07  2179.67  2182.45
                             2183.52  2186.80  2196.90  2202.21  2209.01
                             2217.74  2224.94  2233.60  2246.44  2335.67
                             2412.62  4264.40  4272.59  4302.20  4307.88
                             4360.93  4363.84  4377.98  4379.06  4380.11
                             4401.90  4405.55  4415.50  4430.87  4434.92
                             4435.78  4469.51  4473.03  4476.99  4483.56
                             4497.93  4506.93  4515.75  5039.03  5182.28

 Zero-point correction=                           0.372635 (Hartree/Particle)
 Thermal correction to Energy=                    0.392925
 Thermal correction to Enthalpy=                  0.393870
 Thermal correction to Gibbs Free Energy=         0.318909
 Sum of electronic and zero-point Energies=           -840.831513
 Sum of electronic and thermal Energies=              -840.811223
 Sum of electronic and thermal Enthalpies=            -840.810279
 Sum of electronic and thermal Free Energies=         -840.885239

                     E (Thermal)             CV                S
                      KCal/Mol        Cal/Mol-Kelvin    Cal/Mol-Kelvin
 Total                  246.564             72.717            157.768
 Electronic               0.000              0.000              0.000
 Translational            0.889              2.981             42.522
 Rotational               0.889              2.981             34.291
 Vibrational            244.787             66.756             80.955
 Vibration     1          0.593              1.986              7.297
 Vibration     2          0.593              1.986              6.845
 Vibration     3          0.593              1.985              6.100
 Vibration     4          0.594              1.983              5.643
 Vibration     5          0.594              1.981              5.308
 Vibration     6          0.596              1.976              4.652
 Vibration     7          0.597              1.973              4.439
 Vibration     8          0.603              1.953              3.560
 Vibration     9          0.606              1.941              3.265
 Vibration    10          0.608              1.936              3.171
 Vibration    11          0.613              1.919              2.877
 Vibration    12          0.623              1.887              2.506
 Vibration    13          0.636              1.845              2.170
 Vibration    14          0.646              1.814              1.979
 Vibration    15          0.657              1.780              1.807
 Vibration    16          0.658              1.777              1.791
 Vibration    17          0.677              1.719              1.562
 Vibration    18          0.687              1.689              1.464
 Vibration    19          0.698              1.658              1.372
 Vibration    20          0.707              1.631              1.298
 Vibration    21          0.716              1.606              1.237
 Vibration    22          0.735              1.553              1.118
 Vibration    23          0.770              1.460              0.946
 Vibration    24          0.782              1.428              0.894
 Vibration    25          0.810              1.358              0.792
 Vibration    26          0.862              1.235              0.641
 Vibration    27          0.882              1.190              0.593
 Vibration    28          0.893              1.167              0.571
 Vibration    29          0.948              1.051              0.465

 Optimization completed.
    -- Stationary point found.
 Normal termination of Gaussian 16 at Fri Dec 11 18:50:29 2020.

 ----------------------------------------------------------------------
 # B3LYP/6-311++G(d,p) empiricaldispersion=gd3bj scf=xqc pop=npa geom=c
 heck
 ----------------------------------------------------------------------

 ---------------------------------------
 CID_105942388_JID_8043_Energie_neutraal
 ---------------------------------------
 Structure from the checkpoint file:  "JID_8043.chk"
 Charge =  0 Multiplicity = 1

 SCF Done:  E(RB3LYP) =  -841.447955816     A.U. after   14 cycles
 Normal termination of Gaussian 16 at Fri Dec 11 18:56:17 2020.

 ----------------------------------------------------------------------
 # B3LYP/6-311++G(d,p) empiricaldispersion=gd3bj scf=xqc pop=npa geom=c
 heck
 ----------------------------------------------------------------------

 -------------------------------------
 CID_105942388_JID_8043_Energie_kation
 -------------------------------------
 Structure from the checkpoint file:  "JID_8043.chk"
 Charge =  1 Multiplicity = 2

 SCF Done:  E(UB3LYP) =  -841.157134434     A.U. after   25 cycles
 Normal termination of Gaussian 16 at Fri Dec 11 19:10:02 2020.
 Gaussian 16:  ES64L-G16RevA.03 25-Dec-2016

 ----------------------------------------------------------------------
 # B3LYP/6-311++G(d,p) empiricaldispersion=gd3bj scf=xqc pop=npa geom=c
 heck
 ----------------------------------------------------------------------

 ------------------------------------
 CID_105942388_JID_8043_Energie_anion
 ------------------------------------
 Structure from the checkpoint file:  "JID_8043.chk"
 Charge = -1 Multiplicity = 2

                         Standard orientation:
 ---------------------------------------------------------------------
 Center     Atomic      Atomic             Coordinates (Angstroms)
 Number     Number       Type             X           Y           Z
 ---------------------------------------------------------------------
      1          6           0       -6.184602    1.356284    1.180892
      2          6           0       -5.775892    1.557625   -0.281916
      3          6           0       -4.488386    0.824863   -0.664256
      4          7           0       -4.657311   -0.626670   -0.570914
      5          6           0       -3.522417   -1.409672   -1.060335
      6          6           0       -2.243865   -1.239905   -0.299315
      7          7           0       -1.785234   -1.944126    0.679541
      8          7           0       -0.593863   -1.335460    1.115397
      9          6           0       -0.444950   -0.286620    0.355611
     10          8           0       -1.434476   -0.146194   -0.571091
     11          7           0        0.512960    0.678457    0.409982
     12          6           0        1.725959    0.419346    1.192382
     13          6           0        2.643142   -0.660101    0.603068
     14          6           0        3.095521   -0.397806   -0.839650
     15          6           0        3.837351    0.929168   -1.066006
     16          6           0        5.072656    1.100819   -0.190431
     17          8           0        5.929499   -0.005414   -0.396418
     18          6           0        7.091351    0.051651    0.400382
     19          1           0       -6.442407    0.311349    1.388702
     20          1           0       -7.063280    1.960317    1.431331
     21          1           0       -5.374385    1.646292    1.861700
     22          1           0       -6.582475    1.218931   -0.943277
     23          1           0       -5.628722    2.628536   -0.473513
     24          1           0       -4.232617    1.054952   -1.706636
     25          1           0       -3.655147    1.206280   -0.046786
     26          1           0       -4.829556   -0.887767    0.398090
     27          1           0       -3.785647   -2.469917   -1.007727
     28          1           0       -3.356312   -1.154651   -2.113249
     29          1           0        0.634874    1.189437   -0.454766
     30          1           0        2.246141    1.377704    1.285471
     31          1           0        1.402040    0.124103    2.193868
     32          1           0        3.519097   -0.756966    1.256622
     33          1           0        2.115020   -1.618571    0.646890
     34          1           0        3.751718   -1.216831   -1.149674
     35          1           0        2.224396   -0.433058   -1.507805
     36          1           0        4.142176    0.991107   -2.117576
     37          1           0        3.175986    1.788168   -0.884009
     38          1           0        5.591832    2.041272   -0.443072
     39          1           0        4.791900    1.166498    0.875081
     40          1           0        7.695944    0.945319    0.175740
     41          1           0        6.847112    0.062493    1.475123
     42          1           0        7.681044   -0.841454    0.178942
 ---------------------------------------------------------------------

 SCF Done:  E(UB3LYP) =  -841.439124444     A.U. after   32 cycles

 The electronic state is 2-A.
 Alpha  occ. eigenvalues --  -19.11917 -19.04008 -14.25646 -14.24963 -14.23362
 Alpha  occ. eigenvalues --  -14.22732 -10.20852 -10.17385 -10.13597 -10.12758
 Alpha  occ. eigenvalues --  -10.12540 -10.11982 -10.11029 -10.08776 -10.08460
 Alpha  occ. eigenvalues --  -10.07760 -10.07744 -10.07577  -1.06889  -0.95400
 Alpha  occ. eigenvalues --   -0.88733  -0.87004  -0.83685  -0.74083  -0.71457
 Alpha  occ. eigenvalues --   -0.69799  -0.66508  -0.63259  -0.61745  -0.58976
 Alpha  occ. eigenvalues --   -0.58118  -0.55069  -0.52502  -0.51772  -0.50271
 Alpha  occ. eigenvalues --   -0.47312  -0.45883  -0.42990  -0.42009  -0.40920
 Alpha  occ. eigenvalues --   -0.40677  -0.39639  -0.38628  -0.37736  -0.37668
 Alpha  occ. eigenvalues --   -0.36346  -0.36249  -0.35097  -0.34549  -0.33247
 Alpha  occ. eigenvalues --   -0.32474  -0.32208  -0.31288  -0.31016  -0.29215
 Alpha  occ. eigenvalues --   -0.28455  -0.26543  -0.26336  -0.26319  -0.25977
 Alpha  occ. eigenvalues --   -0.25479  -0.24950  -0.23908  -0.23377  -0.23315
 Alpha  occ. eigenvalues --   -0.22573  -0.19382  -0.17729  -0.16288  -0.13978
 Alpha  occ. eigenvalues --    0.03693
 Alpha virt. eigenvalues --    0.05035   0.05821   0.06636   0.07116   0.07452
 Alpha virt. eigenvalues --    0.07624   0.08153   0.08418   0.08873   0.09085
 Alpha virt. eigenvalues --    0.09572   0.09810   0.10286   0.10684   0.10989

  Beta  occ. eigenvalues --  -19.11905 -19.03998 -14.25612 -14.24950 -14.23360
  Beta  occ. eigenvalues --  -14.22725 -10.20847 -10.17376 -10.13589 -10.12729
  Beta  occ. eigenvalues --  -10.12514 -10.11967 -10.11014 -10.08762 -10.08442
  Beta  occ. eigenvalues --  -10.07757 -10.07715 -10.07568  -1.06873  -0.95386
  Beta  occ. eigenvalues --   -0.88715  -0.86959  -0.83669  -0.74057  -0.71424
  Beta  occ. eigenvalues --   -0.69773  -0.66470  -0.63231  -0.61704  -0.58938
  Beta  occ. eigenvalues --   -0.58065  -0.55025  -0.52467  -0.51716  -0.50222
  Beta  occ. eigenvalues --   -0.47266  -0.45835  -0.42971  -0.41972  -0.40858
  Beta  occ. eigenvalues --   -0.40640  -0.39608  -0.38598  -0.37697  -0.37632
  Beta  occ. eigenvalues --   -0.36316  -0.36223  -0.35068  -0.34514  -0.33221
  Beta  occ. eigenvalues --   -0.32449  -0.32181  -0.31253  -0.30987  -0.29177
  Beta  occ. eigenvalues --   -0.28431  -0.26510  -0.26305  -0.26289  -0.25942
  Beta  occ. eigenvalues --   -0.25446  -0.24909  -0.23883  -0.23361  -0.23265
  Beta  occ. eigenvalues --   -0.22533  -0.19369  -0.17707  -0.16272  -0.13945
  Beta virt. eigenvalues --    0.05450   0.05814   0.06573   0.07065   0.07279
  Beta virt. eigenvalues --    0.07730   0.07925   0.08263   0.08542   0.09243
  Beta virt. eigenvalues --    0.09348   0.09776   0.10072   0.10477   0.10783

 Mulliken charges and spin densities:
               1          2
     1  C    0.009119  -0.506100
     2  C   -0.282234  -0.014200
     3  C    0.107071  -0.464996
     4  N   -0.040132   0.086631
     5  C   -0.556211  -0.202541
     6  C    0.122558   0.201481
     7  N    0.034857  -0.055766
     8  N   -0.206844   0.069334
     9  C    0.215846  -0.565296
    10  O   -0.005435   0.033770
    11  N   -0.227977   0.141481
    12  C    0.407723  -0.909619
    13  C    0.031081   0.104632
    14  C   -0.663272   0.239902
    15  C    0.499865  -0.766183
    16  C   -0.021309  -0.475664
    17  O   -0.161686   0.052501
    18  C    0.499181  -0.729355
    19  H    0.028104   0.093586
    20  H   -0.109202   0.257031
    21  H    0.052091   0.091858
    22  H    0.082532   0.069267
    23  H   -0.135896   0.273403
    24  H   -0.185190   0.356268
    25  H    0.087995   0.061891
    26  H    0.193865   0.007191
    27  H    0.168398   0.022611
    28  H   -0.016692   0.212164
    29  H   -0.121481   0.436303
    30  H   -0.345257   0.554645
    31  H    0.208276  -0.009088
    32  H    0.089365   0.067252
    33  H    0.147094   0.014595
    34  H    0.105976   0.073980
    35  H   -0.025375   0.194243
    36  H   -0.058599   0.247066
    37  H   -0.328644   0.459553
    38  H   -0.355459   0.502605
    39  H    0.207227  -0.058260
    40  H   -0.222944   0.351950
    41  H   -0.179590   0.299180
    42  H   -0.048794   0.180696
 Sum of Mulliken charges =  -1.00000   1.00000

 Dipole moment (field-independent basis, Debye):
    X=             -3.4591    Y=             -3.7796    Z=              0.4747  Tot=              5.1455
 Quadrupole moment (field-independent basis, Debye-Ang):
   XX=           -250.3369   YY=           -158.3694   ZZ=           -145.4472
   XY=             -6.2213   XZ=              2.5582   YZ=              6.5836

 Summary of Natural Population Analysis:

                                       Natural Population
                Natural  -----------------------------------------------
    Atom  No    Charge         Core      Valence    Rydberg      Total
 -----------------------------------------------------------------------
      C    1   -0.28853      0.99967     2.28465    0.00421     3.28853
      C    2   -0.19216      0.99964     2.18493    0.00758     3.19216
      C    3   -0.09131      0.99962     2.07905    0.01264     3.09131
      N    4   -0.33308      0.99975     2.82226    0.01106     3.83308
      C    5   -0.11525      0.99958     2.10471    0.01096     3.11525
      C    6    0.23450      0.99959     1.74583    0.02008     2.76550
      N    7   -0.15747      0.99966     2.64577    0.01204     3.65747
      N    8   -0.20500      0.99967     2.69410    0.01123     3.70500
      C    9    0.34370      0.99959     1.63612    0.02058     2.65630
      O   10   -0.24898      0.99985     3.24157    0.00756     4.24898
      N   11   -0.31605      0.99967     2.80487    0.01151     3.81605
      C   12   -0.08923      0.99961     2.07790    0.01172     3.08923
      C   13   -0.20214      0.99962     2.19563    0.00689     3.20214
      C   14   -0.19510      0.99962     2.18585    0.00962     3.19510
      C   15   -0.20105      0.99962     2.19069    0.01073     3.20105
      C   16   -0.00906      0.99958     1.99629    0.01319     3.00906
      O   17   -0.30005      0.99988     3.29065    0.00951     4.30005
      C   18   -0.09419      0.99962     2.08658    0.00798     3.09419
      H   19    0.09390      0.00000     0.40504    0.00107     0.40610
      H   20    0.09975      0.00000     0.39928    0.00097     0.40025
      H   21    0.09766      0.00000     0.40126    0.00108     0.40234
      H   22    0.09603      0.00000     0.40248    0.00149     0.40397
      H   23    0.09787      0.00000     0.40084    0.00129     0.40213
      H   24    0.09470      0.00000     0.40375    0.00155     0.40530
      H   25    0.08351      0.00000     0.41465    0.00184     0.41649
      H   26    0.17248      0.00000     0.32419    0.00333     0.32752
      H   27    0.10876      0.00000     0.39022    0.00102     0.39124
      H   28    0.10348      0.00000     0.39529    0.00123     0.39652
      H   29    0.19974      0.00000     0.29548    0.00478     0.30026
      H   30    0.09880      0.00000     0.40003    0.00117     0.40120
      H   31    0.10442      0.00000     0.39421    0.00137     0.39558
      H   32    0.09998      0.00000     0.39888    0.00114     0.40002
      H   33    0.10641      0.00000     0.39221    0.00138     0.39359
      H   34    0.10480      0.00000     0.39391    0.00129     0.39520
      H   35    0.09585      0.00000     0.40299    0.00116     0.40415
      H   36    0.10111      0.00000     0.39765    0.00125     0.39889
      H   37    0.09877      0.00000     0.39911    0.00212     0.40123
      H   38    0.08309      0.00000     0.41506    0.00184     0.41691
      H   39    0.07564      0.00000     0.42257    0.00180     0.42436
      H   40    0.07851      0.00000     0.41949    0.00200     0.42149
      H   41    0.07719      0.00000     0.42114    0.00168     0.42281
      H   42    0.08800      0.00000     0.41088    0.00112     0.41200
 =======================================================================
   * Total *   -0.00000     17.99385    51.76808    0.23807    70.00000

 Normal termination of Gaussian 16 at Fri Dec 11 19:27:41 2020.
