 Gaussian 16, Revision A.03,

 -----------------------------------------------------------
 # opt freq B3LYP/6-31G(d) empiricaldispersion=gd3bj scf=xqc
 -----------------------------------------------------------

 -------------------------------
 CID_104372839_JID_3996_neutraal
 -------------------------------
 Symbolic Z-matrix:
 Charge =  0 Multiplicity = 1

 SCF Done:  E(RB3LYP) =  -882.357517710     A.U. after   14 cycles
 SCF Done:  E(RB3LYP) =  -882.362880186     A.U. after   13 cycles
 SCF Done:  E(RB3LYP) =  -882.362758408     A.U. after   12 cycles
 SCF Done:  E(RB3LYP) =  -882.362448630     A.U. after   12 cycles
 SCF Done:  E(RB3LYP) =  -882.361493273     A.U. after   12 cycles
 SCF Done:  E(RB3LYP) =  -882.362990505     A.U. after    9 cycles
 SCF Done:  E(RB3LYP) =  -882.363449405     A.U. after   12 cycles
 SCF Done:  E(RB3LYP) =  -882.363499423     A.U. after   12 cycles
 SCF Done:  E(RB3LYP) =  -882.363557430     A.U. after   11 cycles
 SCF Done:  E(RB3LYP) =  -882.363562599     A.U. after    9 cycles
 SCF Done:  E(RB3LYP) =  -882.363565431     A.U. after    9 cycles
 SCF Done:  E(RB3LYP) =  -882.363567451     A.U. after    8 cycles
 SCF Done:  E(RB3LYP) =  -882.363568561     A.U. after    9 cycles
 SCF Done:  E(RB3LYP) =  -882.363568574     A.U. after    7 cycles
 Optimization completed.
    -- Stationary point found.
 Normal termination of Gaussian 16 at Mon Dec 14 18:45:00 2020.

 --------------------------------------------------------------------
 #N Geom=AllCheck Guess=TCheck SCRF=Check GenChk RB3LYP/6-31G(d) Freq
 --------------------------------------------------------------------

 Structure from the checkpoint file:  "JID_3996.chk"
 -------------------------------
 CID_104372839_JID_3996_neutraal
 -------------------------------
 Charge =  0 Multiplicity = 1

 SCF Done:  E(RB3LYP) =  -882.363568574     A.U. after    1 cycles

  Exact polarizability: 153.985  -1.970 124.054   1.540  -1.919 109.053
 Approx polarizability: 194.509  -4.310 204.491   4.823  -7.582 167.946

                      1                      2                      3
                      A                      A                      A
 Frequencies --     40.0077                55.3680                71.3485
 Red. masses --      4.2178                 3.0145                 3.1136
 Frc consts  --      0.0040                 0.0054                 0.0093
 IR Inten    --      1.7989                 0.8579                 0.4778

                      4                      5                      6
                      A                      A                      A
 Frequencies --     86.5809               108.8127               145.8227
 Red. masses --      2.2670                 3.1173                 6.4520
 Frc consts  --      0.0100                 0.0217                 0.0808
 IR Inten    --      0.7500                 0.6932                 6.9354

                      7                      8                      9
                      A                      A                      A
 Frequencies --    171.4041               190.8245               229.9921
 Red. masses --      3.8201                 3.2384                 4.0157
 Frc consts  --      0.0661                 0.0695                 0.1252
 IR Inten    --      2.0012                 0.9346                 0.2273

                     10                     11                     12
                      A                      A                      A
 Frequencies --    251.4666               263.5571               288.8118
 Red. masses --      1.7539                 1.6229                 2.8362
 Frc consts  --      0.0653                 0.0664                 0.1394
 IR Inten    --      0.0624                 0.3695                 0.7918

                     13                     14                     15
                      A                      A                      A
 Frequencies --    309.4654               382.0928               420.6748
 Red. masses --      2.2809                 3.3636                 6.6539
 Frc consts  --      0.1287                 0.2893                 0.6938
 IR Inten    --      0.0290                 1.2929                 1.8812

                     16                     17                     18
                      A                      A                      A
 Frequencies --    484.4876               517.6404               542.1773
 Red. masses --      3.0287                 2.8917                 3.4594
 Frc consts  --      0.4189                 0.4565                 0.5991
 IR Inten    --      1.2391                 2.1056                 0.6794

                     19                     20                     21
                      A                      A                      A
 Frequencies --    581.1128               592.5140               619.5889
 Red. masses --      3.2615                 3.4330                 3.5530
 Frc consts  --      0.6489                 0.7101                 0.8036
 IR Inten    --      0.6385                 2.5647                 0.7251

                     22                     23                     24
                      A                      A                      A
 Frequencies --    700.3523               765.9218               816.2584
 Red. masses --      2.4421                 2.2845                 1.4610
 Frc consts  --      0.7057                 0.7896                 0.5735
 IR Inten    --      2.1163                 4.4490                 2.9260

                     25                     26                     27
                      A                      A                      A
 Frequencies --    836.6574               849.0338               870.6508
 Red. masses --      1.6752                 2.6224                 2.0192
 Frc consts  --      0.6909                 1.1138                 0.9018
 IR Inten    --      8.4872                 8.6464                 0.7315

                     28                     29                     30
                      A                      A                      A
 Frequencies --    906.6858               912.0009               912.8664
 Red. masses --      2.8668                 3.2092                 2.3736
 Frc consts  --      1.3885                 1.5727                 1.1654
 IR Inten    --      0.6392                 4.4640                 1.3002

                     31                     32                     33
                      A                      A                      A
 Frequencies --    944.8867               958.1849               966.7104
 Red. masses --      2.0318                 1.7197                 1.4924
 Frc consts  --      1.0688                 0.9302                 0.8217
 IR Inten    --      1.3444                 4.3010                 0.9670

                     34                     35                     36
                      A                      A                      A
 Frequencies --    971.0966              1035.7782              1054.0430
 Red. masses --      1.8918                 1.5190                 1.6506
 Frc consts  --      1.0511                 0.9602                 1.0805
 IR Inten    --      5.2626                 1.6137                 0.5117

                     37                     38                     39
                      A                      A                      A
 Frequencies --   1055.7530              1084.7107              1092.4533
 Red. masses --      1.8340                 1.5309                 1.8468
 Frc consts  --      1.2044                 1.0612                 1.2986
 IR Inten    --      1.9669                 1.8549                 2.2490

                     40                     41                     42
                      A                      A                      A
 Frequencies --   1094.0349              1140.3180              1171.4136
 Red. masses --      1.8750                 1.7335                 1.2783
 Frc consts  --      1.3222                 1.3281                 1.0334
 IR Inten    --      5.7862                 3.7152                 1.3007

                     43                     44                     45
                      A                      A                      A
 Frequencies --   1183.9385              1191.7918              1201.2383
 Red. masses --      1.6302                 1.8070                 1.5222
 Frc consts  --      1.3463                 1.5122                 1.2941
 IR Inten    --      0.4580                10.4735                 1.3636

                     46                     47                     48
                      A                      A                      A
 Frequencies --   1254.2641              1271.7746              1297.5265
 Red. masses --      1.4449                 1.2624                 1.3597
 Frc consts  --      1.3393                 1.2030                 1.3487
 IR Inten    --      0.1148                 2.5629                15.6666

                     49                     50                     51
                      A                      A                      A
 Frequencies --   1309.2081              1316.0766              1327.3209
 Red. masses --      1.9080                 1.2553                 1.1909
 Frc consts  --      1.9269                 1.2810                 1.2361
 IR Inten    --      0.5362                 4.9054                 0.9181

                     52                     53                     54
                      A                      A                      A
 Frequencies --   1340.7988              1359.7132              1364.3840
 Red. masses --      1.2232                 1.4037                 1.2295
 Frc consts  --      1.2956                 1.5291                 1.3485
 IR Inten    --      0.0165                 1.9604                 2.6742

                     55                     56                     57
                      A                      A                      A
 Frequencies --   1373.7047              1390.0137              1412.6878
 Red. masses --      1.4537                 1.7071                 1.4209
 Frc consts  --      1.6163                 1.9434                 1.6707
 IR Inten    --      2.1488                 7.3444                 1.9456

                     58                     59                     60
                      A                      A                      A
 Frequencies --   1451.3689              1505.2275              1518.1886
 Red. masses --      1.2751                 1.2606                 1.0769
 Frc consts  --      1.5825                 1.6829                 1.4625
 IR Inten    --      9.4157                 8.0839                 0.9554

                     61                     62                     63
                      A                      A                      A
 Frequencies --   1519.5375              1522.7697              1526.0663
 Red. masses --      1.0867                 1.0840                 1.0884
 Frc consts  --      1.4784                 1.4810                 1.4934
 IR Inten    --      1.0394                 4.2142                 5.2627

                     64                     65                     66
                      A                      A                      A
 Frequencies --   1535.2572              1545.0959              1545.9924
 Red. masses --      1.0439                 1.0563                 1.1005
 Frc consts  --      1.4496                 1.4858                 1.5497
 IR Inten    --      4.2268                 2.5078                 3.5866

                     67                     68                     69
                      A                      A                      A
 Frequencies --   2341.5221              3043.0907              3045.5658
 Red. masses --     12.6521                 1.0672                 1.0606
 Frc consts  --     40.8704                 5.8225                 5.7959
 IR Inten    --     28.2776                38.8531                29.3447

                     70                     71                     72
                      A                      A                      A
 Frequencies --   3059.4025              3059.9804              3066.6696
 Red. masses --      1.0389                 1.0819                 1.0617
 Frc consts  --      5.7293                 5.9687                 5.8828
 IR Inten    --     20.4207                 7.5925                19.9709

                     73                     74                     75
                      A                      A                      A
 Frequencies --   3076.0572              3077.2396              3077.3441
 Red. masses --      1.0606                 1.1010                 1.0768
 Frc consts  --      5.9129                 6.1428                 6.0082
 IR Inten    --     12.5757                23.9133                24.4726

                     76                     77                     78
                      A                      A                      A
 Frequencies --   3101.8142              3113.3887              3122.5079
 Red. masses --      1.0947                 1.1037                 1.1018
 Frc consts  --      6.2057                 6.3031                 6.3295
 IR Inten    --     31.7042                39.0392                33.0100

                     79                     80                     81
                      A                      A                      A
 Frequencies --   3123.9134              3144.4160              3146.5949
 Red. masses --      1.1054                 1.1013                 1.0974
 Frc consts  --      6.3560                 6.4153                 6.4019
 IR Inten    --     38.6994                19.0978                13.1650

                     82                     83                     84
                      A                      A                      A
 Frequencies --   3163.1100              3163.3765              3251.4078
 Red. masses --      1.0869                 1.0557                 1.1185
 Frc consts  --      6.4070                 6.2242                 6.9668
 IR Inten    --      5.6504                 3.6897                 1.4512

 - Thermochemistry -
 -------------------
 Temperature   298.150 Kelvin.  Pressure   1.00000 Atm.
 Atom     1 has atomic number  6 and mass  12.00000

 Molecular mass:   195.10817 amu.
 Principal axes and moments of inertia in atomic units:
                           1         2         3
     Eigenvalues --  1384.531774090.580364475.02163
           X            1.00000  -0.00128   0.00155
           Y            0.00128   1.00000  -0.00068
           Z           -0.00154   0.00068   1.00000
 This molecule is an asymmetric top.
 Rotational symmetry number  1.
 Warning -- assumption of classical behavior for rotation
           may cause significant error
 Rotational temperatures (Kelvin)      0.06256     0.02117     0.01935
 Rotational constants (GHZ):           1.30350     0.44119     0.40329
 Zero-point vibrational energy     687463.4 (Joules/Mol)
                                  164.30770 (Kcal/Mol)
 Warning -- explicit consideration of  21 degrees of freedom as
           vibrations may cause significant error
 Vibrational temperatures:     57.56    79.66   102.65   124.57   156.56
          (Kelvin)            209.81   246.61   274.55   330.91   361.80
                              379.20   415.54   445.25   549.75   605.26
                              697.07   744.77   780.07   836.09   852.50
                              891.45  1007.65  1101.99  1174.41  1203.76
                             1221.57  1252.67  1304.52  1312.17  1313.41
                             1359.48  1378.61  1390.88  1397.19  1490.25
                             1516.53  1518.99  1560.66  1571.80  1574.07
                             1640.66  1685.40  1703.42  1714.72  1728.31
                             1804.61  1829.80  1866.85  1883.66  1893.54
                             1909.72  1929.11  1956.32  1963.04  1976.45
                             1999.92  2032.54  2088.20  2165.69  2184.33
                             2186.28  2190.93  2195.67  2208.89  2223.05
                             2224.34  3368.93  4378.33  4381.89  4401.80
                             4402.63  4412.25  4425.76  4427.46  4427.61
                             4462.82  4479.47  4492.59  4494.61  4524.11
                             4527.25  4551.01  4551.39  4678.05

 Zero-point correction=                           0.261841 (Hartree/Particle)
 Thermal correction to Energy=                    0.275727
 Thermal correction to Enthalpy=                  0.276671
 Thermal correction to Gibbs Free Energy=         0.220574
 Sum of electronic and zero-point Energies=           -882.101728
 Sum of electronic and thermal Energies=              -882.087842
 Sum of electronic and thermal Enthalpies=            -882.086898
 Sum of electronic and thermal Free Energies=         -882.142994

                     E (Thermal)             CV                S
                      KCal/Mol        Cal/Mol-Kelvin    Cal/Mol-Kelvin
 Total                  173.021             51.970            118.065
 Electronic               0.000              0.000              0.000
 Translational            0.889              2.981             41.710
 Rotational               0.889              2.981             31.605
 Vibrational            171.244             46.008             44.749
 Vibration     1          0.594              1.981              5.259
 Vibration     2          0.596              1.975              4.616
 Vibration     3          0.598              1.968              4.116
 Vibration     4          0.601              1.959              3.736
 Vibration     5          0.606              1.942              3.290
 Vibration     6          0.617              1.907              2.726
 Vibration     7          0.626              1.878              2.420
 Vibration     8          0.634              1.853              2.220
 Vibration     9          0.652              1.795              1.879
 Vibration    10          0.663              1.760              1.720
 Vibration    11          0.670              1.740              1.638
 Vibration    12          0.685              1.695              1.481
 Vibration    13          0.699              1.656              1.365
 Vibration    14          0.752              1.508              1.031
 Vibration    15          0.783              1.425              0.890
 Vibration    16          0.841              1.284              0.698
 Vibration    17          0.873              1.211              0.615
 Vibration    18          0.897              1.157              0.561
 Vibration    19          0.938              1.072              0.483
 Vibration    20          0.950              1.048              0.463
 Vibration    21          0.980              0.991              0.417

                           ! Non-Optimized Parameters !
 Normal termination of Gaussian 16 at Mon Dec 14 18:53:04 2020.

 ----------------------------------------------------------------------
 # B3LYP/6-311++G(d,p) empiricaldispersion=gd3bj scf=xqc pop=npa geom=c
 heck
 ----------------------------------------------------------------------

 ---------------------------------------
 CID_104372839_JID_3996_Energie_neutraal
 ---------------------------------------
 Structure from the checkpoint file:  "JID_3996.chk"
 Charge =  0 Multiplicity = 1

 SCF Done:  E(RB3LYP) =  -882.519708731     A.U. after   15 cycles
 Normal termination of Gaussian 16 at Mon Dec 14 18:57:06 2020.

 ----------------------------------------------------------------------
 # B3LYP/6-311++G(d,p) empiricaldispersion=gd3bj scf=xqc pop=npa geom=c
 heck
 ----------------------------------------------------------------------

 -------------------------------------
 CID_104372839_JID_3996_Energie_kation
 -------------------------------------
 Structure from the checkpoint file:  "JID_3996.chk"
 Charge =  1 Multiplicity = 2

 SCF Done:  E(UB3LYP) =  -882.208864445     A.U. after   21 cycles
 Normal termination of Gaussian 16 at Mon Dec 14 19:04:48 2020.
 Gaussian 16:  ES64L-G16RevA.03 25-Dec-2016

 ----------------------------------------------------------------------
 # B3LYP/6-311++G(d,p) empiricaldispersion=gd3bj scf=xqc pop=npa geom=c
 heck
 ----------------------------------------------------------------------

 ------------------------------------
 CID_104372839_JID_3996_Energie_anion
 ------------------------------------
 Structure from the checkpoint file:  "JID_3996.chk"
 Charge = -1 Multiplicity = 2

                         Standard orientation:
 ---------------------------------------------------------------------
 Center     Atomic      Atomic             Coordinates (Angstroms)
 Number     Number       Type             X           Y           Z
 ---------------------------------------------------------------------
      1          6           0        3.827414    1.168948    0.495817
      2          6           0        3.550310   -0.126572   -0.273234
      3          6           0        2.302961   -0.905133    0.133436
      4          6           0        1.454456   -0.567804    1.318351
      5          6           0        0.886999   -0.359377   -0.084993
      6          6           0        0.734786    0.992504   -0.554970
      7          7           0        0.576911    2.083271   -0.927731
      8         16           0       -0.294500   -1.550042   -0.764691
      9          6           0       -1.935613   -0.881437   -0.247757
     10          6           0       -2.041926   -0.424983    1.221298
     11          6           0       -3.226909    0.550811    1.203234
     12          6           0       -2.992667    1.347773   -0.091750
     13          6           0       -2.488102    0.298150   -1.107322
     14          1           0        3.023287    1.900547    0.377998
     15          1           0        4.747609    1.631025    0.123658
     16          1           0        3.963174    0.973045    1.565235
     17          1           0        3.493265    0.086065   -1.348426
     18          1           0        4.405212   -0.801301   -0.141461
     19          1           0        2.358290   -1.966505   -0.098419
     20          1           0        1.690086    0.328929    1.883171
     21          1           0        1.010319   -1.373634    1.892925
     22          1           0       -2.572896   -1.761124   -0.390105
     23          1           0       -2.161049   -1.268511    1.908313
     24          1           0       -1.138766    0.118741    1.516414
     25          1           0       -3.270206    1.181942    2.097157
     26          1           0       -4.172492   -0.004750    1.143949
     27          1           0       -2.211216    2.097706    0.075603
     28          1           0       -3.886683    1.875518   -0.438346
     29          1           0       -1.729058    0.710839   -1.773374
     30          1           0       -3.305507   -0.068031   -1.737779
 ---------------------------------------------------------------------

 SCF Done:  E(UB3LYP) =  -882.505952340     A.U. after   32 cycles

 The electronic state is 2-A.
 Alpha  occ. eigenvalues --  -88.75584 -14.22087 -10.15346 -10.12321 -10.11224
 Alpha  occ. eigenvalues --  -10.10983 -10.10091 -10.08587 -10.07224 -10.07032
 Alpha  occ. eigenvalues --  -10.06981 -10.06894 -10.06833  -7.84175  -5.80608
 Alpha  occ. eigenvalues --   -5.80190  -5.79519  -0.82894  -0.79777  -0.75052
 Alpha  occ. eigenvalues --   -0.68540  -0.66069  -0.61742  -0.59942  -0.56737
 Alpha  occ. eigenvalues --   -0.55324  -0.48995  -0.48205  -0.46691  -0.41005
 Alpha  occ. eigenvalues --   -0.40392  -0.39220  -0.37309  -0.35991  -0.32688
 Alpha  occ. eigenvalues --   -0.32488  -0.32013  -0.30866  -0.29838  -0.28417
 Alpha  occ. eigenvalues --   -0.27870  -0.26809  -0.26304  -0.25968  -0.25532
 Alpha  occ. eigenvalues --   -0.24794  -0.24364  -0.24046  -0.22838  -0.22455
 Alpha  occ. eigenvalues --   -0.20771  -0.19302  -0.13891   0.04316
 Alpha virt. eigenvalues --    0.05753   0.07305   0.07501   0.07752   0.08651
 Alpha virt. eigenvalues --    0.08901   0.09305   0.10182   0.10325   0.10663
 Alpha virt. eigenvalues --    0.11159   0.11340   0.11804   0.11992   0.12626

  Beta  occ. eigenvalues --  -88.75579 -14.22080 -10.15343 -10.12318 -10.11215
  Beta  occ. eigenvalues --  -10.10972 -10.10063 -10.08563 -10.07202 -10.07020
  Beta  occ. eigenvalues --  -10.06957 -10.06869 -10.06825  -7.84171  -5.80604
  Beta  occ. eigenvalues --   -5.80179  -5.79514  -0.82879  -0.79760  -0.75023
  Beta  occ. eigenvalues --   -0.68503  -0.66031  -0.61704  -0.59903  -0.56685
  Beta  occ. eigenvalues --   -0.55283  -0.48940  -0.48140  -0.46653  -0.40975
  Beta  occ. eigenvalues --   -0.40336  -0.39161  -0.37281  -0.35962  -0.32661
  Beta  occ. eigenvalues --   -0.32449  -0.31978  -0.30834  -0.29813  -0.28382
  Beta  occ. eigenvalues --   -0.27853  -0.26779  -0.26274  -0.25931  -0.25499
  Beta  occ. eigenvalues --   -0.24760  -0.24337  -0.24010  -0.22807  -0.22426
  Beta  occ. eigenvalues --   -0.20741  -0.19282  -0.13870
  Beta virt. eigenvalues --    0.06604   0.06863   0.07764   0.07916   0.08313
  Beta virt. eigenvalues --    0.09051   0.09421   0.09618   0.10433   0.10734
  Beta virt. eigenvalues --    0.11054   0.11403   0.11604   0.11981   0.12376

 Mulliken charges and spin densities:
               1          2
     1  C    0.385070  -0.894436
     2  C    0.398144  -0.872574
     3  C    0.084397   0.402810
     4  C   -0.530958  -0.309841
     5  C    1.322694  -0.123194
     6  C   -0.934828  -0.312861
     7  N   -0.194487   0.021189
     8  S    0.175576  -0.186822
     9  C   -0.250656   0.322289
    10  C    0.080029  -0.428905
    11  C    0.498145  -1.057659
    12  C   -0.176097  -0.117419
    13  C   -0.047521  -0.291581
    14  H    0.067989   0.097642
    15  H   -0.030101   0.164912
    16  H   -0.216561   0.360952
    17  H    0.106405   0.040176
    18  H   -0.567796   0.750280
    19  H   -0.378227   0.631870
    20  H    0.046241   0.150636
    21  H   -0.448891   0.680335
    22  H   -0.196812   0.480972
    23  H   -0.400758   0.580875
    24  H    0.409026  -0.233367
    25  H   -0.171500   0.330193
    26  H   -0.258120   0.406457
    27  H    0.162100  -0.011358
    28  H    0.029811   0.125948
    29  H    0.137106   0.046396
    30  H   -0.099421   0.246086
 Sum of Mulliken charges =  -1.00000   1.00000

 Dipole moment (field-independent basis, Debye):
    X=             -1.1662    Y=              2.2057    Z=             -2.2717  Tot=              3.3743
 Quadrupole moment (field-independent basis, Debye-Ang):
   XX=           -174.9477   YY=           -131.2876   ZZ=           -123.9458
   XY=              0.3020   XZ=             -0.0522   YZ=              7.7311

 Summary of Natural Population Analysis:

                                       Natural Population
                Natural  -----------------------------------------------
    Atom  No    Charge         Core      Valence    Rydberg      Total
 -----------------------------------------------------------------------
      C    1   -0.29077      0.99966     2.28525    0.00586     3.29077
      C    2   -0.19462      0.99962     2.18555    0.00945     3.19462
      C    3   -0.08717      0.99956     2.07446    0.01316     3.08717
      C    4   -0.17693      0.99956     2.16577    0.01159     3.17693
      C    5   -0.17431      0.99937     2.15909    0.01585     3.17431
      C    6    0.15788      0.99959     1.82398    0.01856     2.84212
      N    7   -0.18509      0.99979     2.67517    0.01012     3.68509
      S    8    0.13355      4.99956     2.85010    0.01679     7.86645
      C    9   -0.16875      0.99955     2.15482    0.01438     3.16875
      C   10   -0.19516      0.99960     2.18587    0.00969     3.19516
      C   11   -0.18898      0.99963     2.18116    0.00818     3.18898
      C   12   -0.19390      0.99963     2.18596    0.00831     3.19390
      C   13   -0.19851      0.99961     2.18936    0.00954     3.19851
      H   14    0.10265      0.00000     0.39625    0.00110     0.39735
      H   15    0.10183      0.00000     0.39725    0.00092     0.39817
      H   16    0.09839      0.00000     0.40034    0.00127     0.40161
      H   17    0.09951      0.00000     0.39914    0.00135     0.40049
      H   18    0.10626      0.00000     0.39120    0.00254     0.39374
      H   19    0.11373      0.00000     0.38465    0.00163     0.38627
      H   20    0.11000      0.00000     0.38841    0.00159     0.39000
      H   21    0.11666      0.00000     0.38123    0.00212     0.38334
      H   22    0.10927      0.00000     0.38914    0.00160     0.39073
      H   23    0.10706      0.00000     0.39095    0.00199     0.39294
      H   24    0.09692      0.00000     0.40058    0.00250     0.40308
      H   25    0.09947      0.00000     0.39969    0.00084     0.40053
      H   26    0.09586      0.00000     0.40227    0.00186     0.40414
      H   27    0.10020      0.00000     0.39848    0.00132     0.39980
      H   28    0.09817      0.00000     0.40096    0.00087     0.40183
      H   29    0.10729      0.00000     0.39128    0.00143     0.39271
      H   30    0.09951      0.00000     0.39930    0.00120     0.40049
 =======================================================================
   * Total *    0.00000     16.99473    35.82767    0.17761    53.00000

 Normal termination of Gaussian 16 at Mon Dec 14 19:16:13 2020.
