 Gaussian 16, Revision A.03,

 -----------------------------------------------------------
 # opt freq B3LYP/6-31G(d) empiricaldispersion=gd3bj scf=xqc
 -----------------------------------------------------------

 ------------------------------
 CID_87473591_JID_5735_neutraal
 ------------------------------
 Symbolic Z-matrix:
 Charge =  0 Multiplicity = 1

 SCF Done:  E(RB3LYP) =  -2739.32436441     A.U. after   17 cycles
 SCF Done:  E(RB3LYP) =  -2739.33652950     A.U. after   15 cycles
 SCF Done:  E(RB3LYP) =  -2739.33771102     A.U. after   17 cycles
 SCF Done:  E(RB3LYP) =  -2739.34627576     A.U. after   15 cycles
 SCF Done:  E(RB3LYP) =  -2739.34903254     A.U. after   16 cycles
 SCF Done:  E(RB3LYP) =  -2739.35568190     A.U. after   16 cycles
 SCF Done:  E(RB3LYP) =  -2739.36259494     A.U. after   15 cycles
 SCF Done:  E(RB3LYP) =  -2739.36782152     A.U. after   16 cycles
 SCF Done:  E(RB3LYP) =  -2739.36926537     A.U. after   16 cycles
 SCF Done:  E(RB3LYP) =  -2739.36989806     A.U. after   14 cycles
 SCF Done:  E(RB3LYP) =  -2739.37215446     A.U. after   12 cycles
 SCF Done:  E(RB3LYP) =  -2739.37218006     A.U. after   12 cycles
 SCF Done:  E(RB3LYP) =  -2739.37218389     A.U. after   10 cycles
 SCF Done:  E(RB3LYP) =  -2739.37218513     A.U. after   10 cycles
 SCF Done:  E(RB3LYP) =  -2739.37218526     A.U. after    8 cycles
 SCF Done:  E(RB3LYP) =  -2739.37218526     A.U. after    7 cycles
 Optimization completed.
    -- Stationary point found.

 1\1\GINC-NODE313\FOpt\RB3LYP\6-31G(d)\C9H12S6\VSC10255\10-Dec-2020\0\\
 # opt freq B3LYP/6-31G(d) empiricaldispersion=gd3bj scf=xqc\\CID_87473
 591_JID_5735_neutraal\\0,1\C,-1.5934508753,-0.1343536707,-0.2867175086
 \C,-1.0845044918,1.145492892,-1.0246735466\C,0.1435247102,1.5507697353
 ,-0.1764472079\C,1.2917239816,0.5409544434,-0.405952998\C,0.7660767345
 ,-0.7357594712,0.3258441609\C,-0.6023499429,-0.2907596586,0.8877002472
 \C,-0.3234043338,1.1799701609,1.2538043656\S,0.5896483523,3.3247025639
 ,-0.2040985907\C,1.0462863074,3.6858751275,-1.8426657489\S,1.206213017

 Normal termination of Gaussian 16 at Thu Dec 10 16:51:13 2020.

 --------------------------------------------------------------------
 #N Geom=AllCheck Guess=TCheck SCRF=Check GenChk RB3LYP/6-31G(d) Freq
 --------------------------------------------------------------------

 Structure from the checkpoint file:  "JID_5735.chk"
 ------------------------------
 CID_87473591_JID_5735_neutraal
 ------------------------------
 Charge =  0 Multiplicity = 1

 SCF Done:  E(RB3LYP) =  -2739.37218526     A.U. after    1 cycles

  Exact polarizability: 252.524 -25.147 197.757 -18.225   8.406 164.411
 Approx polarizability: 367.644 -71.199 358.327 -76.839  45.451 332.940

                      1                      2                      3
                      A                      A                      A
 Frequencies --     18.2677                25.4671                35.1623
 Red. masses --      6.4382                13.7382                 8.0215
 Frc consts  --      0.0013                 0.0052                 0.0058
 IR Inten    --      0.0765                 0.0975                 0.0836

                      4                      5                      6
                      A                      A                      A
 Frequencies --     62.8819                80.7812                95.7932
 Red. masses --     11.4749                 5.8628                 7.9882
 Frc consts  --      0.0267                 0.0225                 0.0432
 IR Inten    --      0.0229                 0.1777                 0.4397

                      7                      8                      9
                      A                      A                      A
 Frequencies --    131.9769               139.1127               170.8371
 Red. masses --      9.0821                 1.9323                25.1251
 Frc consts  --      0.0932                 0.0220                 0.4320
 IR Inten    --      4.1012                 0.0984                 1.1378

                     10                     11                     12
                      A                      A                      A
 Frequencies --    199.1915               215.2225               272.7872
 Red. masses --      8.6606                 5.4345                 4.0301
 Frc consts  --      0.2025                 0.1483                 0.1767
 IR Inten    --      1.5179                 0.8070                 0.4442

                     13                     14                     15
                      A                      A                      A
 Frequencies --    274.7012               288.9389               306.3467
 Red. masses --      4.1110                13.0174                 1.3144
 Frc consts  --      0.1828                 0.6403                 0.0727
 IR Inten    --      1.0733                 4.1224                24.5774

                     16                     17                     18
                      A                      A                      A
 Frequencies --    337.8143               353.7524               395.5602
 Red. masses --      6.9183                 2.1476                 2.6730
 Frc consts  --      0.4652                 0.1583                 0.2464
 IR Inten    --      5.5813                 0.4965                 0.6389

                     19                     20                     21
                      A                      A                      A
 Frequencies --    453.7542               462.8029               471.8292
 Red. masses --      8.4213                 2.0346                10.8550
 Frc consts  --      1.0216                 0.2568                 1.4238
 IR Inten    --      0.9208                 0.1165                 3.0715

                     22                     23                     24
                      A                      A                      A
 Frequencies --    479.4692               488.6782               495.6225
 Red. masses --     10.2777                15.6566                15.0315
 Frc consts  --      1.3921                 2.2029                 2.1755
 IR Inten    --      0.4216                 8.1994                 6.1624

                     25                     26                     27
                      A                      A                      A
 Frequencies --    517.8355               546.3176               726.9206
 Red. masses --     18.5741                 3.8857                 4.3509
 Frc consts  --      2.9346                 0.6833                 1.3546
 IR Inten    --      4.4360                 0.1718               146.4640

                     28                     29                     30
                      A                      A                      A
 Frequencies --    760.1585               777.4890               813.8352
 Red. masses --      3.8444                 3.9059                 1.1692
 Frc consts  --      1.3088                 1.3911                 0.4563
 IR Inten    --      5.4205                 5.0265                 0.1825

                     31                     32                     33
                      A                      A                      A
 Frequencies --    828.4473               835.1803               856.9442
 Red. masses --      2.3885                 7.6746                 1.8126
 Frc consts  --      0.9658                 3.1540                 0.7843
 IR Inten    --     15.4559               145.1659                 4.1352

                     34                     35                     36
                      A                      A                      A
 Frequencies --    927.9777               930.7773               955.0606
 Red. masses --      2.7874                 2.4036                 1.5293
 Frc consts  --      1.4143                 1.2269                 0.8219
 IR Inten    --      0.6805                 6.7830                67.5527

                     37                     38                     39
                      A                      A                      A
 Frequencies --    961.2335               971.1868               976.4357
 Red. masses --      2.9619                 1.9162                 1.8883
 Frc consts  --      1.6124                 1.0649                 1.0607
 IR Inten    --      2.8308                 0.2820                 0.1055

                     40                     41                     42
                      A                      A                      A
 Frequencies --   1011.6963              1012.1923              1034.7026
 Red. masses --      2.4329                 1.8550                 2.8429
 Frc consts  --      1.4672                 1.1197                 1.7932
 IR Inten    --     12.7517                 2.9151                 0.3475

                     43                     44                     45
                      A                      A                      A
 Frequencies --   1062.6404              1085.1737              1127.7556
 Red. masses --      1.3898                10.0479                 5.6181
 Frc consts  --      0.9246                 6.9715                 4.2099
 IR Inten    --      0.1957               163.3384               119.5580

                     46                     47                     48
                      A                      A                      A
 Frequencies --   1139.4329              1151.4760              1194.7509
 Red. masses --      1.5721                 1.0577                 1.7404
 Frc consts  --      1.2025                 0.8263                 1.4637
 IR Inten    --      9.6241                 0.1547                 4.2292

                     49                     50                     51
                      A                      A                      A
 Frequencies --   1230.9749              1254.8506              1275.1645
 Red. masses --      1.4004                 1.5821                 1.4331
 Frc consts  --      1.2503                 1.4678                 1.3730
 IR Inten    --      0.0046                 3.8724                 2.5870

                     52                     53                     54
                      A                      A                      A
 Frequencies --   1287.1557              1292.9058              1305.8178
 Red. masses --      1.2321                 1.2169                 1.4831
 Frc consts  --      1.2027                 1.1985                 1.4900
 IR Inten    --      1.5524                 3.1882                16.2129

                     55                     56                     57
                      A                      A                      A
 Frequencies --   1328.9512              1346.6352              1356.2616
 Red. masses --      1.5377                 1.5211                 1.5138
 Frc consts  --      1.6001                 1.6252                 1.6406
 IR Inten    --      0.0509                 6.7175                 0.0233

                     58                     59                     60
                      A                      A                      A
 Frequencies --   1366.9831              1515.9101              1524.0225
 Red. masses --      1.4985                 1.0786                 1.0971
 Frc consts  --      1.6499                 1.4603                 1.5013
 IR Inten    --      4.3455                 0.0008                 3.9347

                     61                     62                     63
                      A                      A                      A
 Frequencies --   1528.8476              1533.2598              1558.3462
 Red. masses --      1.0825                 1.0940                 1.1022
 Frc consts  --      1.4907                 1.5153                 1.5770
 IR Inten    --      0.4091                 4.0169                 0.9656

                     64                     65                     66
                      A                      A                      A
 Frequencies --   2696.4544              3067.2308              3067.5711
 Red. masses --      1.0382                 1.0604                 1.0604
 Frc consts  --      4.4476                 5.8775                 5.8792
 IR Inten    --      1.0480                37.1434                41.8543

                     67                     68                     69
                      A                      A                      A
 Frequencies --   3072.7406              3089.1098              3091.6577
 Red. masses --      1.0584                 1.0697                 1.0695
 Frc consts  --      5.8877                 6.0142                 6.0228
 IR Inten    --     12.1593                21.8423                 6.2919

                     70                     71                     72
                      A                      A                      A
 Frequencies --   3107.2830              3110.5460              3117.0093
 Red. masses --      1.1045                 1.1003                 1.0908
 Frc consts  --      6.2832                 6.2724                 6.2441
 IR Inten    --     15.2145                38.9595                49.5397

                     73                     74                     75
                      A                      A                      A
 Frequencies --   3124.0819              3157.8389              3161.8709
 Red. masses --      1.1084                 1.1004                 1.0995
 Frc consts  --      6.3740                 6.4653                 6.4764
 IR Inten    --     23.6807                 2.1514                13.2657

 - Thermochemistry -
 -------------------
 Temperature   298.150 Kelvin.  Pressure   1.00000 Atm.
 Atom     1 has atomic number  6 and mass  12.00000

 Molecular mass:   311.92633 amu.
 Principal axes and moments of inertia in atomic units:
                           1         2         3
     Eigenvalues --  3267.415129466.01996**********
           X            0.99993   0.01147   0.00225
           Y           -0.01145   0.99987  -0.01131
           Z           -0.00238   0.01128   0.99993
 This molecule is an asymmetric top.
 Rotational symmetry number  1.
 Warning -- assumption of classical behavior for rotation
           may cause significant error
 Rotational temperatures (Kelvin)      0.02651     0.00915     0.00800
 Rotational constants (GHZ):           0.55235     0.19065     0.16672
 Zero-point vibrational energy     514584.8 (Joules/Mol)
                                  122.98871 (Kcal/Mol)
 Warning -- explicit consideration of  26 degrees of freedom as
           vibrations may cause significant error
 Vibrational temperatures:     26.28    36.64    50.59    90.47   116.23
          (Kelvin)            137.83   189.89   200.15   245.80   286.59
                              309.66   392.48   395.23   415.72   440.76
                              486.04   508.97   569.12   652.85   665.87
                              678.86   689.85   703.10   713.09   745.05
                              786.03  1045.88  1093.70  1118.63  1170.93
                             1191.95  1201.64  1232.95  1335.15  1339.18
                             1374.12  1383.00  1397.32  1404.87  1455.61
                             1456.32  1488.71  1528.90  1561.32  1622.59
                             1639.39  1656.72  1718.98  1771.10  1805.45
                             1834.68  1851.93  1860.20  1878.78  1912.06
                             1937.51  1951.36  1966.78  2181.06  2192.73
                             2199.67  2206.02  2242.11  3879.60  4413.06
                             4413.55  4420.99  4444.54  4448.21  4470.69
                             4475.38  4484.68  4494.86  4543.43  4549.23

 Zero-point correction=                           0.195995 (Hartree/Particle)
 Thermal correction to Energy=                    0.212707
 Thermal correction to Enthalpy=                  0.213652
 Thermal correction to Gibbs Free Energy=         0.148189
 Sum of electronic and zero-point Energies=          -2739.176190
 Sum of electronic and thermal Energies=             -2739.159478
 Sum of electronic and thermal Enthalpies=           -2739.158534
 Sum of electronic and thermal Free Energies=        -2739.223996

                     E (Thermal)             CV                S
                      KCal/Mol        Cal/Mol-Kelvin    Cal/Mol-Kelvin
 Total                  133.476             60.405            137.777
 Electronic               0.000              0.000              0.000
 Translational            0.889              2.981             43.109
 Rotational               0.889              2.981             34.170
 Vibrational            131.698             54.443             60.498
 Vibration     1          0.593              1.986              6.814
 Vibration     2          0.593              1.985              6.154
 Vibration     3          0.594              1.982              5.515
 Vibration     4          0.597              1.972              4.365
 Vibration     5          0.600              1.962              3.872
 Vibration     6          0.603              1.952              3.538
 Vibration     7          0.612              1.921              2.917
 Vibration     8          0.615              1.914              2.816
 Vibration     9          0.626              1.878              2.426
 Vibration    10          0.637              1.841              2.141
 Vibration    11          0.645              1.818              1.999
 Vibration    12          0.676              1.723              1.578
 Vibration    13          0.677              1.720              1.566
 Vibration    14          0.686              1.694              1.480
 Vibration    15          0.697              1.662              1.382
 Vibration    16          0.718              1.600              1.222
 Vibration    17          0.730              1.568              1.149
 Vibration    18          0.762              1.480              0.979
 Vibration    19          0.812              1.353              0.785
 Vibration    20          0.820              1.333              0.758
 Vibration    21          0.829              1.313              0.732
 Vibration    22          0.836              1.296              0.711
 Vibration    23          0.845              1.275              0.687
 Vibration    24          0.851              1.260              0.669
 Vibration    25          0.873              1.210              0.615
 Vibration    26          0.902              1.148              0.552

 Optimization completed.
    -- Stationary point found.

 1\1\GINC-NODE313\Freq\RB3LYP\6-31G(d)\C9H12S6\VSC10255\10-Dec-2020\0\\
 #N Geom=AllCheck Guess=TCheck SCRF=Check GenChk RB3LYP/6-31G(d) Freq\\
 CID_87473591_JID_5735_neutraal\\0,1\C,-1.5934508753,-0.1343536707,-0.2
 867175086\C,-1.0845044918,1.145492892,-1.0246735466\C,0.1435247102,1.5
 507697353,-0.1764472079\C,1.2917239816,0.5409544434,-0.405952998\C,0.7
 660767345,-0.7357594712,0.3258441609\C,-0.6023499429,-0.2907596586,0.8
 877002472\C,-0.3234043338,1.1799701609,1.2538043656\S,0.5896483523,3.3
 247025639,-0.2040985907\C,1.0462863074,3.6858751275,-1.8426657489\S,1.

 Normal termination of Gaussian 16 at Thu Dec 10 17:00:41 2020.

 ----------------------------------------------------------------------
 # B3LYP/6-311++G(d,p) empiricaldispersion=gd3bj scf=xqc pop=npa geom=c
 heck
 ----------------------------------------------------------------------

 --------------------------------------
 CID_87473591_JID_5735_Energie_neutraal
 --------------------------------------
 Structure from the checkpoint file:  "JID_5735.chk"
 Charge =  0 Multiplicity = 1

 SCF Done:  E(RB3LYP) =  -2739.62588291     A.U. after   16 cycles
 Normal termination of Gaussian 16 at Thu Dec 10 17:06:44 2020.

 ----------------------------------------------------------------------
 # B3LYP/6-311++G(d,p) empiricaldispersion=gd3bj scf=xqc pop=npa geom=c
 heck
 ----------------------------------------------------------------------

 ------------------------------------
 CID_87473591_JID_5735_Energie_kation
 ------------------------------------
 Structure from the checkpoint file:  "JID_5735.chk"
 Charge =  1 Multiplicity = 2

 SCF Done:  E(UB3LYP) =  -2739.32768978     A.U. after   30 cycles
 Normal termination of Gaussian 16 at Thu Dec 10 17:19:16 2020.
 Gaussian 16:  ES64L-G16RevA.03 25-Dec-2016

 -----------------------------------
 CID_87473591_JID_5735_Energie_anion
 -----------------------------------
 Structure from the checkpoint file:  "JID_5735.chk"
 Charge = -1 Multiplicity = 2

                         Standard orientation:
 ---------------------------------------------------------------------
 Center     Atomic      Atomic             Coordinates (Angstroms)
 Number     Number       Type             X           Y           Z
 ---------------------------------------------------------------------
      1          6           0       -3.804418   -1.372294    1.310935
      2          6           0       -2.523102   -0.478293    1.286335
      3          6           0       -2.214550   -0.383014   -0.226117
      4          6           0       -3.270748    0.509181   -0.918356
      5          6           0       -4.547850   -0.390339   -0.877070
      6          6           0       -4.057605   -1.679597   -0.181534
      7          6           0       -2.618690   -1.794664   -0.721140
      8         16           0       -0.465613   -0.085592   -0.672647
      9          6           0       -0.062175    1.483164   -0.040105
     10         16           0       -0.988476    2.616437    0.712015
     11         16           0        1.639028    2.006008   -0.216433
     12         16           0        2.711365    0.464907   -1.129324
     13          6           0        3.103026   -0.664546    0.219175
     14         16           0        2.502311   -0.626880    1.734105
     15         16           0        4.245939   -1.860399   -0.427884
     16          1           0       -3.624215   -2.294617    1.872872
     17          1           0       -4.657335   -0.865878    1.773712
     18          1           0       -2.678201    0.507250    1.725411
     19          1           0       -1.691975   -0.953029    1.815799
     20          1           0       -3.394473    1.458386   -0.396973
     21          1           0       -2.969695    0.729313   -1.946774
     22          1           0       -5.371430    0.079981   -0.330613
     23          1           0       -4.905032   -0.606028   -1.889433
     24          1           0       -4.697268   -2.548759   -0.354465
     25          1           0       -2.564048   -1.896537   -1.810145
     26          1           0       -2.035368   -2.593552   -0.251566
     27          1           0        4.252850   -2.625801    0.682114
 ---------------------------------------------------------------------

 SCF Done:  E(UB3LYP) =  -2739.66309134     A.U. after   26 cycles

 The electronic state is 2-A.
 Alpha  occ. eigenvalues --  -88.75795 -88.75346 -88.74515 -88.74273 -88.68212
 Alpha  occ. eigenvalues --  -88.67420 -10.12661 -10.11792 -10.11238 -10.09220
 Alpha  occ. eigenvalues --  -10.08294 -10.08236 -10.08111 -10.07142 -10.06863
 Alpha  occ. eigenvalues --   -7.84156  -7.83807  -7.83206  -7.82894  -7.76983
 Alpha  occ. eigenvalues --   -7.76181  -5.80658  -5.80233  -5.80108  -5.79767
 Alpha  occ. eigenvalues --   -5.79587  -5.79508  -5.79271  -5.79228  -5.79167
 Alpha  occ. eigenvalues --   -5.78832  -5.78661  -5.78367  -5.73313  -5.72888
 Alpha  occ. eigenvalues --   -5.72557  -5.72500  -5.72156  -5.71712  -0.79394
 Alpha  occ. eigenvalues --   -0.73499  -0.70973  -0.66334  -0.65518  -0.63168
 Alpha  occ. eigenvalues --   -0.61444  -0.58921  -0.58338  -0.54473  -0.51847
 Alpha  occ. eigenvalues --   -0.46949  -0.44832  -0.43043  -0.40639  -0.39035
 Alpha  occ. eigenvalues --   -0.37884  -0.34831  -0.31897  -0.31275  -0.30213
 Alpha  occ. eigenvalues --   -0.29588  -0.28566  -0.28066  -0.27265  -0.27138
 Alpha  occ. eigenvalues --   -0.25851  -0.25379  -0.24933  -0.23721  -0.23586
 Alpha  occ. eigenvalues --   -0.23179  -0.22112  -0.21181  -0.20360  -0.19788
 Alpha  occ. eigenvalues --   -0.14247  -0.13042  -0.11965  -0.11085  -0.09539
 Alpha  occ. eigenvalues --   -0.08801   0.01540
 Alpha virt. eigenvalues --    0.04314   0.06004   0.07331   0.08317   0.08485
 Alpha virt. eigenvalues --    0.09074   0.09788   0.10623   0.10954   0.11494
 Alpha virt. eigenvalues --    0.11816   0.12069   0.12264   0.12965   0.13618

  Beta  occ. eigenvalues --  -88.75799 -88.75348 -88.74505 -88.74258 -88.68166
  Beta  occ. eigenvalues --  -88.67359 -10.12120 -10.11240 -10.11135 -10.09220
  Beta  occ. eigenvalues --  -10.08293 -10.08235 -10.08111 -10.07133 -10.06860
  Beta  occ. eigenvalues --   -7.84160  -7.83808  -7.83198  -7.82880  -7.76942
  Beta  occ. eigenvalues --   -7.76127  -5.80652  -5.80235  -5.80129  -5.79789
  Beta  occ. eigenvalues --   -5.79593  -5.79509  -5.79272  -5.79209  -5.79173
  Beta  occ. eigenvalues --   -5.78833  -5.78608  -5.78302  -5.73304  -5.72726
  Beta  occ. eigenvalues --   -5.72531  -5.72487  -5.71946  -5.71678  -0.79379
  Beta  occ. eigenvalues --   -0.72985  -0.70315  -0.66213  -0.65514  -0.62926
  Beta  occ. eigenvalues --   -0.61435  -0.58658  -0.58153  -0.54277  -0.51837
  Beta  occ. eigenvalues --   -0.46943  -0.44676  -0.42682  -0.40176  -0.39028
  Beta  occ. eigenvalues --   -0.37877  -0.34401  -0.31730  -0.31271  -0.29811
  Beta  occ. eigenvalues --   -0.29330  -0.28408  -0.27726  -0.27200  -0.26935
  Beta  occ. eigenvalues --   -0.25751  -0.25366  -0.24813  -0.23326  -0.22534
  Beta  occ. eigenvalues --   -0.22211  -0.21573  -0.21047  -0.19935  -0.19621
  Beta  occ. eigenvalues --   -0.13915  -0.12784  -0.10977  -0.10374  -0.09401
  Beta  occ. eigenvalues --   -0.08660
  Beta virt. eigenvalues --    0.05970   0.07146   0.07331   0.07884   0.08302
  Beta virt. eigenvalues --    0.08492   0.09125   0.09854   0.10592   0.10943
  Beta virt. eigenvalues --    0.11606   0.11901   0.12067   0.12357   0.12995

 Mulliken charges and spin densities:
               1          2
     1  C   -0.602139   0.000368
     2  C   -0.585169  -0.000555
     3  C    1.147542   0.046947
     4  C   -0.660682  -0.024414
     5  C   -0.616301   0.005980
     6  C    0.413108   0.003864
     7  C   -0.847956  -0.022873
     8  S   -0.346396  -0.003890
     9  C    0.873909   0.155322
    10  S   -0.501882   0.170149
    11  S   -0.681839   0.111204
    12  S    0.186402   0.017909
    13  C    0.058854   0.229999
    14  S   -0.367417   0.200662
    15  S   -0.199415   0.073681
    16  H    0.131543   0.000352
    17  H    0.136422   0.000170
    18  H    0.133174   0.002384
    19  H    0.198281   0.001997
    20  H    0.130860   0.002401
    21  H    0.165166   0.027325
    22  H    0.139846  -0.000890
    23  H    0.124435  -0.000249
    24  H    0.211053  -0.000014
    25  H    0.159504   0.003139
    26  H    0.172066   0.001182
    27  H    0.027029  -0.002149
 Sum of Mulliken charges =  -1.00000   1.00000

 Dipole moment (field-independent basis, Debye):
    X=             -6.9580    Y=             -4.1039    Z=             -2.0446  Tot=              8.3328
 Quadrupole moment (field-independent basis, Debye-Ang):
   XX=           -173.0188   YY=           -158.5886   ZZ=           -151.2661
   XY=              6.3067   XZ=             -1.9939   YZ=             -2.5493

 Summary of Natural Population Analysis:

                                       Natural Population
                Natural  -----------------------------------------------
    Atom  No    Charge         Core      Valence    Rydberg      Total
 -----------------------------------------------------------------------
      C    1   -0.19051      0.99964     2.18385    0.00702     3.19051
      C    2   -0.20115      0.99958     2.19276    0.00881     3.20115
      C    3   -0.09974      0.99948     2.08099    0.01927     3.09974
      C    4   -0.20006      0.99958     2.19100    0.00948     3.20006
      C    5   -0.19089      0.99964     2.18421    0.00704     3.19089
      C    6   -0.11125      0.99961     2.10167    0.00997     3.11125
      C    7   -0.19359      0.99958     2.18566    0.00834     3.19359
      S    8    0.19279      4.99927     2.78478    0.02317     7.80721
      C    9   -0.17645      0.99975     2.15985    0.01685     3.17645
      S   10   -0.03611      4.99940     3.02023    0.01648     8.03611
      S   11    0.10816      4.99944     2.86809    0.02432     7.89184
      S   12    0.05492      4.99943     2.92080    0.02485     7.94508
      C   13   -0.15900      0.99977     2.14138    0.01785     3.15900
      S   14   -0.00596      4.99934     2.98902    0.01760     8.00596
      S   15    0.01581      4.99942     2.96674    0.01803     7.98419
      H   16    0.09674      0.00000     0.40227    0.00099     0.40326
      H   17    0.09489      0.00000     0.40413    0.00099     0.40511
      H   18    0.11377      0.00000     0.38523    0.00100     0.38623
      H   19    0.10856      0.00000     0.39047    0.00097     0.39144
      H   20    0.11438      0.00000     0.38461    0.00101     0.38562
      H   21    0.10230      0.00000     0.39629    0.00141     0.39770
      H   22    0.09512      0.00000     0.40385    0.00103     0.40488
      H   23    0.09543      0.00000     0.40354    0.00103     0.40457
      H   24    0.09769      0.00000     0.40130    0.00101     0.40231
      H   25    0.10227      0.00000     0.39682    0.00090     0.39773
      H   26    0.10489      0.00000     0.39418    0.00093     0.39511
      H   27    0.06700      0.00000     0.42920    0.00380     0.43300
 =======================================================================
   * Total *    0.00000     38.99290    41.76294    0.24416    81.00000

 Normal termination of Gaussian 16 at Thu Dec 10 17:30:35 2020.
