 Gaussian 16, Revision A.03,

 -----------------------------------------------------------
 # opt freq B3LYP/6-31G(d) empiricaldispersion=gd3bj scf=xqc
 -----------------------------------------------------------

 ------------------------------
 CID_71356984_JID_5488_neutraal
 ------------------------------
 Symbolic Z-matrix:
 Charge =  0 Multiplicity = 1

 SCF Done:  E(RB3LYP) =  -690.223639602     A.U. after   14 cycles
 SCF Done:  E(RB3LYP) =  -690.230732828     A.U. after   12 cycles
 SCF Done:  E(RB3LYP) =  -690.231752850     A.U. after   12 cycles
 SCF Done:  E(RB3LYP) =  -690.233583589     A.U. after   14 cycles
 SCF Done:  E(RB3LYP) =  -690.235493666     A.U. after   14 cycles
 SCF Done:  E(RB3LYP) =  -690.237521793     A.U. after   14 cycles
 SCF Done:  E(RB3LYP) =  -690.238134506     A.U. after   12 cycles
 SCF Done:  E(RB3LYP) =  -690.238110296     A.U. after   12 cycles
 SCF Done:  E(RB3LYP) =  -690.238533629     A.U. after   11 cycles
 SCF Done:  E(RB3LYP) =  -690.238545093     A.U. after   10 cycles
 SCF Done:  E(RB3LYP) =  -690.238555481     A.U. after    8 cycles
 SCF Done:  E(RB3LYP) =  -690.238555829     A.U. after    8 cycles
 SCF Done:  E(RB3LYP) =  -690.238556004     A.U. after    7 cycles
 SCF Done:  E(RB3LYP) =  -690.238556212     A.U. after    8 cycles
 SCF Done:  E(RB3LYP) =  -690.238556264     A.U. after    7 cycles
 Optimization completed.
    -- Stationary point found.
 Normal termination of Gaussian 16 at Thu Dec 10 16:20:03 2020.

 --------------------------------------------------------------------
 #N Geom=AllCheck Guess=TCheck SCRF=Check GenChk RB3LYP/6-31G(d) Freq
 --------------------------------------------------------------------

 Structure from the checkpoint file:  "JID_5488.chk"
 ------------------------------
 CID_71356984_JID_5488_neutraal
 ------------------------------
 Charge =  0 Multiplicity = 1

 SCF Done:  E(RB3LYP) =  -690.238556264     A.U. after    1 cycles

  Exact polarizability: 205.567  -1.202 139.337  -0.013   0.017  66.268
 Approx polarizability: 290.010 -14.632 232.770  -0.020   0.032  95.656

                      1                      2                      3
                      A                      A                      A
 Frequencies --     29.6984                61.7012                65.0646
 Red. masses --      3.6966                 4.6742                 4.6461
 Frc consts  --      0.0019                 0.0105                 0.0116
 IR Inten    --      0.5091                 0.0981                 0.2549

                      4                      5                      6
                      A                      A                      A
 Frequencies --     94.8251               139.6296               201.9041
 Red. masses --      6.0083                 7.7519                 3.2649
 Frc consts  --      0.0318                 0.0890                 0.0784
 IR Inten    --      2.7444                 1.0308                 0.3250

                      7                      8                      9
                      A                      A                      A
 Frequencies --    211.8946               223.7408               261.4259
 Red. masses --      3.2869                 1.0591                 1.3954
 Frc consts  --      0.0870                 0.0312                 0.0562
 IR Inten    --      0.3268                 0.0019                 0.1715

                     10                     11                     12
                      A                      A                      A
 Frequencies --    271.8515               320.5285               332.4766
 Red. masses --      2.4369                 3.7599                 2.6581
 Frc consts  --      0.1061                 0.2276                 0.1731
 IR Inten    --      0.3964                 0.0071                 0.5704

                     13                     14                     15
                      A                      A                      A
 Frequencies --    396.7684               415.7207               440.6943
 Red. masses --      4.4557                 3.0119                 4.0960
 Frc consts  --      0.4133                 0.3067                 0.4687
 IR Inten    --      2.7258                 0.0374                 5.0041

                     16                     17                     18
                      A                      A                      A
 Frequencies --    528.5714               556.6439               612.6770
 Red. masses --      3.1390                 6.3503                 4.3108
 Frc consts  --      0.5167                 1.1593                 0.9534
 IR Inten    --      2.0472                 0.7861                 3.0171

                     19                     20                     21
                      A                      A                      A
 Frequencies --    628.9148               639.7440               652.7166
 Red. masses --      5.7134                 5.7048                 5.3623
 Frc consts  --      1.3315                 1.3756                 1.3460
 IR Inten    --     11.0533                 8.4976                 4.2998

                     22                     23                     24
                      A                      A                      A
 Frequencies --    701.9895               708.0589               751.6306
 Red. masses --      6.5473                 1.8431                12.4536
 Frc consts  --      1.9010                 0.5444                 4.1453
 IR Inten    --      4.9674                22.8658                19.1283

                     25                     26                     27
                      A                      A                      A
 Frequencies --    773.4969               816.1688               852.4302
 Red. masses --      1.6966                 9.0751                 1.2658
 Frc consts  --      0.5981                 3.5617                 0.5419
 IR Inten    --     24.0360                 7.0861                 4.9942

                     28                     29                     30
                      A                      A                      A
 Frequencies --    854.0505               875.3921               929.8808
 Red. masses --      4.9957                 1.2852                 1.4562
 Frc consts  --      2.1469                 0.5803                 0.7419
 IR Inten    --      1.0436                11.4859                 7.4618

                     31                     32                     33
                      A                      A                      A
 Frequencies --    934.2604               953.5645               959.6616
 Red. masses --      3.5574                 1.4785                 2.8773
 Frc consts  --      1.8295                 0.7921                 1.5613
 IR Inten    --      2.1904                 0.1050                 2.0697

                     34                     35                     36
                      A                      A                      A
 Frequencies --    968.6121               999.4001              1019.6428
 Red. masses --      1.3401                 1.2596                 6.0843
 Frc consts  --      0.7408                 0.7412                 3.7270
 IR Inten    --      0.0043                 0.4021                 0.1981

                     37                     38                     39
                      A                      A                      A
 Frequencies --   1034.1179              1042.2299              1063.7745
 Red. masses --      1.2987                 4.9123                 2.2557
 Frc consts  --      0.8183                 3.1439                 1.5040
 IR Inten    --      0.0794               216.2520                11.1654

                     40                     41                     42
                      A                      A                      A
 Frequencies --   1084.6691              1123.0790              1191.5312
 Red. masses --      3.4578                 1.6476                 2.6729
 Frc consts  --      2.3969                 1.2244                 2.2358
 IR Inten    --    226.0378                 1.0922               139.3237

                     43                     44                     45
                      A                      A                      A
 Frequencies --   1195.6023              1224.9376              1231.8352
 Red. masses --      1.0933                 1.1445                 3.6234
 Frc consts  --      0.9208                 1.0118                 3.2395
 IR Inten    --      0.5044                 1.0285                15.8024

                     46                     47                     48
                      A                      A                      A
 Frequencies --   1245.6297              1254.2586              1311.0362
 Red. masses --      2.1934                 4.2063                 3.6245
 Frc consts  --      2.0051                 3.8988                 3.6705
 IR Inten    --    112.3511               220.9138               100.4146

                     49                     50                     51
                      A                      A                      A
 Frequencies --   1355.2797              1378.9149              1408.0794
 Red. masses --      5.7222                 1.5326                 1.8097
 Frc consts  --      6.1926                 1.7170                 2.1140
 IR Inten    --      5.9962                 0.5946                34.5839

                     52                     53                     54
                      A                      A                      A
 Frequencies --   1429.1541              1447.0546              1501.2775
 Red. masses --      1.2576                 1.2283                 2.2271
 Frc consts  --      1.5134                 1.5154                 2.9574
 IR Inten    --      8.6412                 8.0503                10.9921

                     55                     56                     57
                      A                      A                      A
 Frequencies --   1503.6403              1510.6438              1523.5676
 Red. masses --      1.0468                 1.0459                 1.0705
 Frc consts  --      1.3944                 1.4063                 1.4641
 IR Inten    --      1.0398                 1.4971                 1.4371

                     58                     59                     60
                      A                      A                      A
 Frequencies --   1531.9986              1549.4031              1636.1560
 Red. masses --      1.0556                 2.1845                 5.2087
 Frc consts  --      1.4598                 3.0897                 8.2154
 IR Inten    --      3.5039                11.7796                 0.5752

                     61                     62                     63
                      A                      A                      A
 Frequencies --   1665.4049              1765.4677              1944.2429
 Red. masses --      5.4352                 8.6562                12.9711
 Frc consts  --      8.8819                15.8963                28.8887
 IR Inten    --      5.8464               123.2401               685.5696

                     64                     65                     66
                      A                      A                      A
 Frequencies --   3064.9675              3069.2444              3139.6352
 Red. masses --      1.0341                 1.0347                 1.1036
 Frc consts  --      5.7234                 5.7428                 6.4094
 IR Inten    --      9.1384                13.2120                 0.2375

                     67                     68                     69
                      A                      A                      A
 Frequencies --   3145.9904              3148.2096              3149.8416
 Red. masses --      1.1028                 1.1042                 1.1042
 Frc consts  --      6.4309                 6.4479                 6.4547
 IR Inten    --     33.4819                 9.9202                21.3203

                     70                     71                     72
                      A                      A                      A
 Frequencies --   3173.1283              3177.9149              3188.2422
 Red. masses --      1.0877                 1.0867                 1.0873
 Frc consts  --      6.4525                 6.4663                 6.5119
 IR Inten    --      1.1248                22.0179                 0.9543

                     73                     74                     75
                      A                      A                      A
 Frequencies --   3198.2036              3211.2885              3252.0002
 Red. masses --      1.0923                 1.0971                 1.0917
 Frc consts  --      6.5830                 6.6661                 6.8022
 IR Inten    --     32.0747                29.4892                 1.7168

 - Thermochemistry -
 -------------------
 Temperature   298.150 Kelvin.  Pressure   1.00000 Atm.
 Atom     1 has atomic number  6 and mass  12.00000

 Molecular mass:   204.07864 amu.
 Principal axes and moments of inertia in atomic units:
                           1         2         3
     Eigenvalues --  1453.607465298.235326359.38122
           X            0.99965   0.02638  -0.00001
           Y           -0.02638   0.99965   0.00003
           Z            0.00001  -0.00003   1.00000
 This molecule is an asymmetric top.
 Rotational symmetry number  1.
 Warning -- assumption of classical behavior for rotation
           may cause significant error
 Rotational temperatures (Kelvin)      0.05959     0.01635     0.01362
 Rotational constants (GHZ):           1.24156     0.34063     0.28379
 Zero-point vibrational energy     569763.9 (Joules/Mol)
                                  136.17684 (Kcal/Mol)
 Warning -- explicit consideration of  18 degrees of freedom as
           vibrations may cause significant error
 Vibrational temperatures:     42.73    88.77    93.61   136.43   200.90
          (Kelvin)            290.49   304.87   321.91   376.13   391.13
                              461.17   478.36   570.86   598.13   634.06
                              760.50   800.89   881.51   904.87   920.45
                              939.11  1010.01  1018.74  1081.43  1112.89
                             1174.28  1226.46  1228.79  1259.49  1337.89
                             1344.19  1371.97  1380.74  1393.62  1437.91
                             1467.04  1487.86  1499.54  1530.53  1560.60
                             1615.86  1714.35  1720.21  1762.41  1772.34
                             1792.18  1804.60  1886.29  1949.95  1983.95
                             2025.91  2056.23  2081.99  2160.00  2163.40
                             2173.48  2192.07  2204.20  2229.25  2354.06
                             2396.15  2540.11  2797.33  4409.80  4415.96
                             4517.23  4526.38  4529.57  4531.92  4565.42
                             4572.31  4587.17  4601.50  4620.33  4678.90

 Zero-point correction=                           0.217012 (Hartree/Particle)
 Thermal correction to Energy=                    0.230183
 Thermal correction to Enthalpy=                  0.231127
 Thermal correction to Gibbs Free Energy=         0.176204
 Sum of electronic and zero-point Energies=           -690.021545
 Sum of electronic and thermal Energies=              -690.008373
 Sum of electronic and thermal Enthalpies=            -690.007429
 Sum of electronic and thermal Free Energies=         -690.062352

                     E (Thermal)             CV                S
                      KCal/Mol        Cal/Mol-Kelvin    Cal/Mol-Kelvin
 Total                  144.442             50.569            115.595
 Electronic               0.000              0.000              0.000
 Translational            0.889              2.981             41.844
 Rotational               0.889              2.981             32.260
 Vibrational            142.665             44.607             41.491
 Vibration     1          0.593              1.984              5.849
 Vibration     2          0.597              1.973              4.402
 Vibration     3          0.597              1.971              4.297
 Vibration     4          0.603              1.953              3.558
 Vibration     5          0.615              1.914              2.809
 Vibration     6          0.639              1.837              2.116
 Vibration     7          0.643              1.823              2.027
 Vibration     8          0.649              1.805              1.929
 Vibration     9          0.669              1.743              1.652
 Vibration    10          0.675              1.725              1.584
 Vibration    11          0.706              1.634              1.307
 Vibration    12          0.714              1.611              1.248
 Vibration    13          0.763              1.477              0.975
 Vibration    14          0.779              1.436              0.907
 Vibration    15          0.801              1.381              0.824
 Vibration    16          0.884              1.187              0.590
 Vibration    17          0.912              1.125              0.531
 Vibration    18          0.972              1.005              0.428

                           ! Non-Optimized Parameters !
 Normal termination of Gaussian 16 at Thu Dec 10 16:27:50 2020.

 ----------------------------------------------------------------------
 # B3LYP/6-311++G(d,p) empiricaldispersion=gd3bj scf=xqc pop=npa geom=c
 heck
 ----------------------------------------------------------------------

 --------------------------------------
 CID_71356984_JID_5488_Energie_neutraal
 --------------------------------------
 Structure from the checkpoint file:  "JID_5488.chk"
 Charge =  0 Multiplicity = 1

 SCF Done:  E(RB3LYP) =  -690.427764211     A.U. after   14 cycles
 Normal termination of Gaussian 16 at Thu Dec 10 16:31:29 2020.

 ----------------------------------------------------------------------
 # B3LYP/6-311++G(d,p) empiricaldispersion=gd3bj scf=xqc pop=npa geom=c
 heck
 ----------------------------------------------------------------------

 ------------------------------------
 CID_71356984_JID_5488_Energie_kation
 ------------------------------------
 Structure from the checkpoint file:  "JID_5488.chk"
 Charge =  1 Multiplicity = 2

 SCF Done:  E(UB3LYP) =  -690.132538584     A.U. after   23 cycles
 Normal termination of Gaussian 16 at Thu Dec 10 16:39:58 2020.
 Gaussian 16:  ES64L-G16RevA.03 25-Dec-2016

 ----------------------------------------------------------------------
 # B3LYP/6-311++G(d,p) empiricaldispersion=gd3bj scf=xqc pop=npa geom=c
 heck
 ----------------------------------------------------------------------

 -----------------------------------
 CID_71356984_JID_5488_Energie_anion
 -----------------------------------
 Structure from the checkpoint file:  "JID_5488.chk"
 Charge = -1 Multiplicity = 2

                         Standard orientation:
 ---------------------------------------------------------------------
 Center     Atomic      Atomic             Coordinates (Angstroms)
 Number     Number       Type             X           Y           Z
 ---------------------------------------------------------------------
      1          6           0       -2.530040   -1.618959   -1.270632
      2          6           0       -2.213838   -0.833243    0.000135
      3          6           0       -0.812042   -0.248708    0.000176
      4          6           0        0.354579   -0.902445    0.000429
      5          6           0        1.722729   -0.384286    0.000268
      6          6           0        2.778638   -1.314357   -0.000530
      7          6           0        4.106564   -0.898123   -0.000798
      8          6           0        4.410872    0.463671   -0.000206
      9          6           0        3.373769    1.398892    0.000693
     10          6           0        2.043965    0.987066    0.000933
     11          8           0       -0.935116    1.126038   -0.000104
     12          6           0       -2.268060    1.479417   -0.000540
     13          8           0       -2.655298    2.607864   -0.000868
     14          8           0       -3.034185    0.371505   -0.000597
     15          6           0       -2.530553   -1.617760    1.271536
     16          1           0       -3.581906   -1.920383   -1.275803
     17          1           0       -1.906466   -2.516873   -1.319170
     18          1           0       -2.330732   -1.010368   -2.156860
     19          1           0        0.266944   -1.986543    0.000512
     20          1           0        2.547222   -2.376904   -0.000955
     21          1           0        4.903193   -1.636819   -0.001454
     22          1           0        5.445756    0.793527   -0.000424
     23          1           0        3.601231    2.461266    0.001238
     24          1           0        1.253067    1.725983    0.001663
     25          1           0       -3.582453   -1.919067    1.276627
     26          1           0       -1.907079   -2.515691    1.321107
     27          1           0       -2.331480   -1.008379    2.157274
 ---------------------------------------------------------------------

 SCF Done:  E(UB3LYP) =  -690.423404163     A.U. after   33 cycles
 SCF Done:  E(UB3LYP) =  -690.423404163     a.u. after    1 cycles

 The electronic state is 2-A.
 Alpha  occ. eigenvalues --  -19.06290 -19.05826 -18.99655 -10.22579 -10.14240
 Alpha  occ. eigenvalues --  -10.07580 -10.06738 -10.06738 -10.02835 -10.02822
 Alpha  occ. eigenvalues --  -10.02580 -10.02418 -10.02127 -10.01478 -10.01369
 Alpha  occ. eigenvalues --   -1.04199  -0.93221  -0.93057  -0.71473  -0.70534
 Alpha  occ. eigenvalues --   -0.64223  -0.60195  -0.60024  -0.58914  -0.53310
 Alpha  occ. eigenvalues --   -0.49959  -0.49132  -0.45821  -0.44269  -0.39240
 Alpha  occ. eigenvalues --   -0.38172  -0.37589  -0.34746  -0.34004  -0.32614
 Alpha  occ. eigenvalues --   -0.31873  -0.31606  -0.30478  -0.30035  -0.29003
 Alpha  occ. eigenvalues --   -0.27967  -0.26798  -0.26365  -0.26128  -0.25722
 Alpha  occ. eigenvalues --   -0.23772  -0.22854  -0.20147  -0.19898  -0.19504
 Alpha  occ. eigenvalues --   -0.18752  -0.15286  -0.11455  -0.08143   0.05765
 Alpha virt. eigenvalues --    0.07018   0.08902   0.08990   0.09867   0.10540
 Alpha virt. eigenvalues --    0.11159   0.11874   0.12498   0.12784   0.12914
 Alpha virt. eigenvalues --    0.13294   0.13743   0.14191   0.15415   0.15961

  Beta  occ. eigenvalues --  -19.06293 -19.05813 -18.99594 -10.22496 -10.14275
  Beta  occ. eigenvalues --  -10.07091 -10.06687 -10.06687 -10.02892 -10.02847
  Beta  occ. eigenvalues --  -10.02406 -10.02328 -10.02032 -10.01195 -10.01159
  Beta  occ. eigenvalues --   -1.04077  -0.93165  -0.92921  -0.71152  -0.70275
  Beta  occ. eigenvalues --   -0.63759  -0.60088  -0.59764  -0.58392  -0.53155
  Beta  occ. eigenvalues --   -0.49814  -0.48670  -0.45726  -0.43941  -0.38871
  Beta  occ. eigenvalues --   -0.38077  -0.37466  -0.34605  -0.33883  -0.32411
  Beta  occ. eigenvalues --   -0.31660  -0.31417  -0.30319  -0.29954  -0.28835
  Beta  occ. eigenvalues --   -0.27914  -0.26725  -0.26235  -0.25650  -0.25445
  Beta  occ. eigenvalues --   -0.23560  -0.21961  -0.19997  -0.19700  -0.19361
  Beta  occ. eigenvalues --   -0.18693  -0.13866  -0.10717  -0.06360
  Beta virt. eigenvalues --    0.07037   0.08852   0.08971   0.09778   0.10487
  Beta virt. eigenvalues --    0.11054   0.11545   0.11835   0.12627   0.12923
  Beta virt. eigenvalues --    0.12926   0.13408   0.13609   0.14952   0.15343

 Mulliken charges and spin densities:
               1          2
     1  C   -0.286799  -0.203135
     2  C   -0.179733   0.164310
     3  C   -0.168077   0.277634
     4  C   -0.214759   0.055825
     5  C    1.419999   0.074389
     6  C   -0.044272   0.090689
     7  C   -0.341303   0.009642
     8  C   -0.423403   0.259786
     9  C   -0.439711  -0.051778
    10  C   -1.076748   0.172926
    11  O   -0.118919  -0.008857
    12  C    0.462461   0.026171
    13  O   -0.395471   0.022604
    14  O   -0.062571   0.005216
    15  C   -0.287065  -0.202708
    16  H    0.036456   0.108776
    17  H    0.111161   0.022921
    18  H    0.123751   0.042290
    19  H    0.071085  -0.008290
    20  H    0.089369  -0.002091
    21  H    0.104298  -0.001091
    22  H    0.086970  -0.020607
    23  H    0.127123   0.003549
    24  H    0.134573  -0.011908
    25  H    0.036619   0.108606
    26  H    0.111185   0.022891
    27  H    0.123782   0.042243
 Sum of Mulliken charges =  -1.00000   1.00000

 Dipole moment (field-independent basis, Debye):
    X=             -2.1451    Y=             -3.5156    Z=              0.0017  Tot=              4.1183
 Quadrupole moment (field-independent basis, Debye-Ang):
   XX=           -143.9060   YY=           -108.8031   ZZ=           -101.6697
   XY=              7.7246   XZ=             -0.0077   YZ=              0.0042

 Summary of Natural Population Analysis:

                                       Natural Population
                Natural  -----------------------------------------------
    Atom  No    Charge         Core      Valence    Rydberg      Total
 -----------------------------------------------------------------------
      C    1   -0.29813      0.99965     2.28479    0.01370     3.29813
      C    2    0.17497      0.99952     1.81121    0.01430     2.82503
      C    3    0.20162      0.99938     1.78017    0.01884     2.79838
      C    4   -0.12550      0.99948     2.11575    0.01027     3.12550
      C    5   -0.02284      0.99955     2.00953    0.01375     3.02284
      C    6   -0.04711      0.99957     2.04273    0.00481     3.04711
      C    7   -0.13452      0.99961     2.11825    0.01666     3.13452
      C    8   -0.06056      0.99957     2.05022    0.01077     3.06056
      C    9   -0.12296      0.99958     2.11329    0.01009     3.12296
      C   10   -0.06791      0.99954     2.05925    0.00912     3.06791
      O   11   -0.26674      0.99985     3.25799    0.00890     4.26674
      C   12    0.51821      0.99975     1.45280    0.02925     2.48179
      O   13   -0.30150      0.99985     3.29510    0.00654     4.30150
      O   14   -0.29666      0.99985     3.28207    0.01474     4.29666
      C   15   -0.29813      0.99965     2.28478    0.01370     3.29813
      H   16    0.09596      0.00000     0.40222    0.00182     0.40404
      H   17    0.10268      0.00000     0.39636    0.00096     0.39732
      H   18    0.10518      0.00000     0.39361    0.00121     0.39482
      H   19    0.09121      0.00000     0.40669    0.00210     0.40879
      H   20    0.08713      0.00000     0.41217    0.00070     0.41287
      H   21    0.08766      0.00000     0.41064    0.00170     0.41234
      H   22    0.08471      0.00000     0.41384    0.00145     0.41529
      H   23    0.08972      0.00000     0.40917    0.00110     0.41028
      H   24    0.10276      0.00000     0.39595    0.00129     0.39724
      H   25    0.09596      0.00000     0.40222    0.00182     0.40404
      H   26    0.10268      0.00000     0.39636    0.00096     0.39732
      H   27    0.10518      0.00000     0.39361    0.00121     0.39482
 =======================================================================
   * Total *    0.00306     14.99439    38.79078    0.21176    53.99694

 Normal termination of Gaussian 16 at Thu Dec 10 16:52:44 2020.
