 Gaussian 16, Revision A.03,

 -----------------------------------------------------------
 # opt freq B3LYP/6-31G(d) empiricaldispersion=gd3bj scf=xqc
 -----------------------------------------------------------

 -------------------------------
 CID_105519592_JID_9724_neutraal
 -------------------------------
 Symbolic Z-matrix:
 Charge =  0 Multiplicity = 1

 SCF Done:  E(RB3LYP) =  -940.166489920     A.U. after   14 cycles
 SCF Done:  E(RB3LYP) =  -940.156286485     A.U. after   13 cycles
 SCF Done:  E(RB3LYP) =  -940.171683823     A.U. after   12 cycles
 SCF Done:  E(RB3LYP) =  -940.172159323     A.U. after   12 cycles
 SCF Done:  E(RB3LYP) =  -940.173130649     A.U. after   12 cycles
 SCF Done:  E(RB3LYP) =  -940.173250933     A.U. after   11 cycles
 SCF Done:  E(RB3LYP) =  -940.173342016     A.U. after   11 cycles
 SCF Done:  E(RB3LYP) =  -940.173485229     A.U. after   10 cycles
 SCF Done:  E(RB3LYP) =  -940.173499656     A.U. after   11 cycles
 SCF Done:  E(RB3LYP) =  -940.173544907     A.U. after   10 cycles
 SCF Done:  E(RB3LYP) =  -940.173587762     A.U. after    9 cycles
 SCF Done:  E(RB3LYP) =  -940.173589424     A.U. after    8 cycles
 SCF Done:  E(RB3LYP) =  -940.173589703     A.U. after    7 cycles
 SCF Done:  E(RB3LYP) =  -940.173589722     A.U. after    7 cycles
 SCF Done:  E(RB3LYP) =  -940.173589739     A.U. after    6 cycles
 Optimization completed.
    -- Stationary point found.
 Normal termination of Gaussian 16 at Sun Dec 13 12:49:50 2020.

 --------------------------------------------------------------------
 #N Geom=AllCheck Guess=TCheck SCRF=Check GenChk RB3LYP/6-31G(d) Freq
 --------------------------------------------------------------------

 Structure from the checkpoint file:  "JID_9724.chk"
 -------------------------------
 CID_105519592_JID_9724_neutraal
 -------------------------------
 Charge =  0 Multiplicity = 1

 SCF Done:  E(RB3LYP) =  -940.173589739     A.U. after    1 cycles

  Exact polarizability: 187.946   7.063 145.705   0.491   0.654 131.250
 Approx polarizability: 230.327   0.023 215.401  -4.752   2.835 203.018

                      1                      2                      3
                      A                      A                      A
 Frequencies --     20.3754                36.2201                50.1186
 Red. masses --      4.7652                 3.6221                 4.6874
 Frc consts  --      0.0012                 0.0028                 0.0069
 IR Inten    --      0.3474                 0.0890                 1.6227

                      4                      5                      6
                      A                      A                      A
 Frequencies --     65.6688                75.9542                85.2428
 Red. masses --      6.2815                 4.8381                 4.6524
 Frc consts  --      0.0160                 0.0164                 0.0199
 IR Inten    --      1.8991                 2.2862                 1.3217

                      7                      8                      9
                      A                      A                      A
 Frequencies --    118.1336               124.2663               167.5726
 Red. masses --      4.0544                 4.0378                 3.7218
 Frc consts  --      0.0333                 0.0367                 0.0616
 IR Inten    --      0.1459                 0.2943                 1.8205

                     10                     11                     12
                      A                      A                      A
 Frequencies --    175.6234               197.4628               221.2714
 Red. masses --      3.5605                 4.2506                 1.1402
 Frc consts  --      0.0647                 0.0977                 0.0329
 IR Inten    --      1.4335                 0.7310                 0.9321

                     13                     14                     15
                      A                      A                      A
 Frequencies --    242.7624               255.3436               268.6524
 Red. masses --      3.2109                 1.2468                 2.1236
 Frc consts  --      0.1115                 0.0479                 0.0903
 IR Inten    --      1.7899                 1.0277                 4.0448

                     16                     17                     18
                      A                      A                      A
 Frequencies --    279.8998               285.1458               290.6690
 Red. masses --      2.4101                 3.3000                 1.0960
 Frc consts  --      0.1112                 0.1581                 0.0546
 IR Inten    --      1.8636                 0.5683                 0.3807

                     19                     20                     21
                      A                      A                      A
 Frequencies --    326.6012               355.6854               359.7251
 Red. masses --      2.9040                 2.6708                 3.4134
 Frc consts  --      0.1825                 0.1991                 0.2602
 IR Inten    --      6.0579                 1.7286                 8.8801

                     22                     23                     24
                      A                      A                      A
 Frequencies --    368.3366               401.2680               407.2035
 Red. masses --      1.9698                 2.9258                 3.1377
 Frc consts  --      0.1575                 0.2776                 0.3065
 IR Inten    --      0.1084                 2.2851                 2.5282

                     25                     26                     27
                      A                      A                      A
 Frequencies --    425.5844               441.1675               464.3516
 Red. masses --      2.8745                 3.2494                 2.9090
 Frc consts  --      0.3068                 0.3726                 0.3696
 IR Inten    --      2.3125                 3.4495                 3.3645

                     28                     29                     30
                      A                      A                      A
 Frequencies --    475.2177               505.2613               519.2927
 Red. masses --      3.5236                 3.2347                 1.8505
 Frc consts  --      0.4688                 0.4865                 0.2940
 IR Inten    --      1.0364                11.4384                 1.4490

                     31                     32                     33
                      A                      A                      A
 Frequencies --    545.2642               614.8081               630.5046
 Red. masses --      2.5226                 1.7064                 3.2360
 Frc consts  --      0.4419                 0.3800                 0.7579
 IR Inten    --     88.0370                56.9190                19.1513

                     34                     35                     36
                      A                      A                      A
 Frequencies --    650.3531               698.1024               736.8577
 Red. masses --      2.5420                 2.2932                 3.2760
 Frc consts  --      0.6335                 0.6585                 1.0480
 IR Inten    --     75.7281                48.7412                45.3112

                     37                     38                     39
                      A                      A                      A
 Frequencies --    776.6993               791.6245               805.5003
 Red. masses --      7.6630                 3.2743                 1.9587
 Frc consts  --      2.7237                 1.2089                 0.7488
 IR Inten    --     61.4317                19.8215                32.7936

                     40                     41                     42
                      A                      A                      A
 Frequencies --    810.9186               838.0399               866.4620
 Red. masses --      2.4583                 2.4929                 1.9244
 Frc consts  --      0.9524                 1.0315                 0.8512
 IR Inten    --     27.5356                 1.1513                 0.9498

                     43                     44                     45
                      A                      A                      A
 Frequencies --    869.9350               899.6626               926.1893
 Red. masses --      3.1053                 2.2845                 2.4178
 Frc consts  --      1.3846                 1.0894                 1.2220
 IR Inten    --     35.2508                 1.4787                 8.4177

                     46                     47                     48
                      A                      A                      A
 Frequencies --    940.4085               941.9892               958.1891
 Red. masses --      1.6205                 1.6207                 1.4542
 Frc consts  --      0.8443                 0.8473                 0.7867
 IR Inten    --      0.3822                 0.4783                 4.3159

                     49                     50                     51
                      A                      A                      A
 Frequencies --    990.1566              1003.2271              1012.3738
 Red. masses --      1.1943                 1.8900                 2.2444
 Frc consts  --      0.6899                 1.1208                 1.3553
 IR Inten    --      0.3773                 4.2524                 4.9304

                     52                     53                     54
                      A                      A                      A
 Frequencies --   1026.1642              1045.9988              1055.4431
 Red. masses --      4.0609                 3.4993                 2.0231
 Frc consts  --      2.5194                 2.2557                 1.3278
 IR Inten    --     63.3501                48.8212                 7.6806

                     55                     56                     57
                      A                      A                      A
 Frequencies --   1071.9979              1080.5294              1089.8829
 Red. masses --      1.4200                 1.6128                 1.7331
 Frc consts  --      0.9614                 1.1094                 1.2129
 IR Inten    --      1.0797                18.1022                 3.3453

                     58                     59                     60
                      A                      A                      A
 Frequencies --   1113.6122              1130.4589              1142.8724
 Red. masses --      2.4920                 3.0966                 2.3276
 Frc consts  --      1.8208                 2.3315                 1.7913
 IR Inten    --      3.6656                52.1985                25.2751

                     61                     62                     63
                      A                      A                      A
 Frequencies --   1178.4212              1191.4773              1217.1479
 Red. masses --      1.6352                 2.0935                 1.9553
 Frc consts  --      1.3379                 1.7510                 1.7067
 IR Inten    --     42.0977                80.9355                45.1682

                     64                     65                     66
                      A                      A                      A
 Frequencies --   1225.5426              1248.7993              1285.5477
 Red. masses --      2.1852                 1.9371                 1.2043
 Frc consts  --      1.9337                 1.7799                 1.1726
 IR Inten    --    195.6869                29.6657                 7.3423

                     67                     68                     69
                      A                      A                      A
 Frequencies --   1291.8461              1299.0558              1304.0037
 Red. masses --      2.5939                 2.7062                 1.2872
 Frc consts  --      2.5505                 2.6907                 1.2896
 IR Inten    --     14.6010                28.9763                 1.1784

                     70                     71                     72
                      A                      A                      A
 Frequencies --   1319.8347              1337.9315              1370.9178
 Red. masses --      1.2077                 1.5301                 1.3683
 Frc consts  --      1.2395                 1.6137                 1.5151
 IR Inten    --      2.4984                11.2408                 6.9674

                     73                     74                     75
                      A                      A                      A
 Frequencies --   1384.5716              1389.8874              1393.8146
 Red. masses --      2.2350                 1.4911                 3.4450
 Frc consts  --      2.5244                 1.6971                 3.9432
 IR Inten    --     37.3386                32.1958               308.4923

                     76                     77                     78
                      A                      A                      A
 Frequencies --   1401.5236              1406.4011              1413.5659
 Red. masses --      1.4756                 1.4826                 1.6353
 Frc consts  --      1.7077                 1.7278                 1.9252
 IR Inten    --      2.4009                16.5265                11.1633

                     79                     80                     81
                      A                      A                      A
 Frequencies --   1422.5396              1424.8442              1429.2418
 Red. masses --      1.3719                 1.2826                 1.3002
 Frc consts  --      1.6357                 1.5342                 1.5649
 IR Inten    --     10.9575                17.9648                29.7840

                     82                     83                     84
                      A                      A                      A
 Frequencies --   1441.3749              1453.6216              1500.1720
 Red. masses --      1.2523                 1.2322                 1.0468
 Frc consts  --      1.5329                 1.5340                 1.3880
 IR Inten    --      9.8482                22.7721                 0.8831

                     85                     86                     87
                      A                      A                      A
 Frequencies --   1512.1619              1515.7361              1521.1502
 Red. masses --      1.0817                 1.0933                 1.0524
 Frc consts  --      1.4574                 1.4799                 1.4347
 IR Inten    --      1.8628                 1.2676                 1.5897

                     88                     89                     90
                      A                      A                      A
 Frequencies --   1521.8197              1524.6970              1525.2574
 Red. masses --      1.0923                 1.0799                 1.0654
 Frc consts  --      1.4905                 1.4790                 1.4603
 IR Inten    --      4.8930                10.4197                17.0938

                     91                     92                     93
                      A                      A                      A
 Frequencies --   1530.7577              1534.7701              1538.0092
 Red. masses --      1.0476                 1.0536                 1.0955
 Frc consts  --      1.4462                 1.4622                 1.5268
 IR Inten    --      0.4902                 2.3957                 7.5315

                     94                     95                     96
                      A                      A                      A
 Frequencies --   1548.6925              1561.4990              1807.6101
 Red. masses --      1.0819                 1.0563                 9.6642
 Frc consts  --      1.5288                 1.5174                18.6049
 IR Inten    --     11.5306                24.0737               353.7627

                     97                     98                     99
                      A                      A                      A
 Frequencies --   1820.7554              3025.2379              3038.3405
 Red. masses --      9.6609                 1.0680                 1.0694
 Frc consts  --     18.8700                 5.7588                 5.8167
 IR Inten    --    197.8784                19.0965                16.5940

                    100                    101                    102
                      A                      A                      A
 Frequencies --   3038.8152              3043.1137              3054.6676
 Red. masses --      1.0640                 1.0619                 1.0368
 Frc consts  --      5.7889                 5.7938                 5.7000
 IR Inten    --     21.8505                18.0252                10.2494

                    103                    104                    105
                      A                      A                      A
 Frequencies --   3061.0057              3061.0511              3066.9782
 Red. masses --      1.0594                 1.0487                 1.0476
 Frc consts  --      5.8486                 5.7896                 5.8061
 IR Inten    --     15.0888                27.7371                46.0067

                    106                    107                    108
                      A                      A                      A
 Frequencies --   3067.3336              3077.1218              3080.7982
 Red. masses --      1.0552                 1.0932                 1.0977
 Frc consts  --      5.8495                 6.0989                 6.1387
 IR Inten    --     16.7824                58.6574                40.0271

                    109                    110                    111
                      A                      A                      A
 Frequencies --   3087.4857              3104.3948              3120.5920
 Red. masses --      1.0978                 1.0972                 1.1018
 Frc consts  --      6.1657                 6.2301                 6.3217
 IR Inten    --     79.2158                28.0626                 0.1371

                    112                    113                    114
                      A                      A                      A
 Frequencies --   3126.0675              3129.0723              3130.3291
 Red. masses --      1.1017                 1.0964                 1.1015
 Frc consts  --      6.3432                 6.3250                 6.3595
 IR Inten    --     22.5804                19.5435                58.7885

                    115                    116                    117
                      A                      A                      A
 Frequencies --   3134.2525              3153.7500              3167.5595
 Red. masses --      1.1034                 1.1029                 1.1009
 Frc consts  --      6.3866                 6.4631                 6.5078
 IR Inten    --     14.8105                10.4709                 5.0434

                    118                    119                    120
                      A                      A                      A
 Frequencies --   3179.8554              3558.7855              3685.5032
 Red. masses --      1.0989                 1.0772                 1.0638
 Frc consts  --      6.5467                 8.0380                 8.5132
 IR Inten    --      5.9200                18.5899                43.3768

 - Thermochemistry -
 -------------------
 Temperature   298.150 Kelvin.  Pressure   1.00000 Atm.
 Atom     1 has atomic number  6 and mass  12.00000

 Molecular mass:   273.15762 amu.
 Principal axes and moments of inertia in atomic units:
                           1         2         3
     Eigenvalues --  2457.194688280.705709296.17714
           X            0.99981   0.01944   0.00188
           Y           -0.01944   0.99981   0.00211
           Z           -0.00184  -0.00214   1.00000
 This molecule is an asymmetric top.
 Rotational symmetry number  1.
 Warning -- assumption of classical behavior for rotation
           may cause significant error
 Rotational temperatures (Kelvin)      0.03525     0.01046     0.00932
 Rotational constants (GHZ):           0.73447     0.21795     0.19414
 Zero-point vibrational energy     957379.9 (Joules/Mol)
                                  228.81928 (Kcal/Mol)
 Warning -- explicit consideration of  32 degrees of freedom as
           vibrations may cause significant error
 Vibrational temperatures:     29.32    52.11    72.11    94.48   109.28
          (Kelvin)            122.65   169.97   178.79   241.10   252.68
                              284.10   318.36   349.28   367.38   386.53
                              402.71   410.26   418.21   469.91   511.75
                              517.56   529.95   577.34   585.88   612.32
                              634.74   668.10   683.73   726.96   747.15
                              784.51   884.57   907.16   935.71  1004.41
                             1060.17  1117.50  1138.97  1158.94  1166.73
                             1205.75  1246.65  1251.64  1294.41  1332.58
                             1353.04  1355.31  1378.62  1424.61  1443.42
                             1456.58  1476.42  1504.96  1518.55  1542.37
                             1554.64  1568.10  1602.24  1626.48  1644.34
                             1695.49  1714.27  1751.20  1763.28  1796.74
                             1849.62  1858.68  1869.05  1876.17  1898.95
                             1924.98  1972.44  1992.09  1999.74  2005.39
                             2016.48  2023.50  2033.81  2046.72  2050.03
                             2056.36  2073.82  2091.44  2158.41  2175.66
                             2180.81  2188.60  2189.56  2193.70  2194.51
                             2202.42  2208.19  2212.85  2228.22  2246.65
                             2600.75  2619.66  4352.64  4371.49  4372.18
                             4378.36  4394.99  4404.10  4404.17  4412.70
                             4413.21  4427.29  4432.58  4442.20  4466.53
                             4489.84  4497.71  4502.04  4503.85  4509.49
                             4537.54  4557.41  4575.10  5120.30  5302.62

 Zero-point correction=                           0.364647 (Hartree/Particle)
 Thermal correction to Energy=                    0.384621
 Thermal correction to Enthalpy=                  0.385565
 Thermal correction to Gibbs Free Energy=         0.315853
 Sum of electronic and zero-point Energies=           -939.808943
 Sum of electronic and thermal Energies=              -939.788969
 Sum of electronic and thermal Enthalpies=            -939.788025
 Sum of electronic and thermal Free Energies=         -939.857737

                     E (Thermal)             CV                S
                      KCal/Mol        Cal/Mol-Kelvin    Cal/Mol-Kelvin
 Total                  241.353             76.478            146.720
 Electronic               0.000              0.000              0.000
 Translational            0.889              2.981             42.713
 Rotational               0.889              2.981             33.603
 Vibrational            239.576             70.516             70.404
 Vibration     1          0.593              1.986              6.597
 Vibration     2          0.594              1.982              5.456
 Vibration     3          0.595              1.978              4.813
 Vibration     4          0.597              1.971              4.279
 Vibration     5          0.599              1.965              3.993
 Vibration     6          0.601              1.959              3.766
 Vibration     7          0.608              1.934              3.131
 Vibration     8          0.610              1.929              3.033
 Vibration     9          0.624              1.882              2.463
 Vibration    10          0.628              1.872              2.374
 Vibration    11          0.637              1.843              2.157
 Vibration    12          0.648              1.809              1.949
 Vibration    13          0.659              1.775              1.783
 Vibration    14          0.666              1.754              1.693
 Vibration    15          0.673              1.731              1.605
 Vibration    16          0.680              1.711              1.534
 Vibration    17          0.683              1.701              1.503
 Vibration    18          0.687              1.691              1.470
 Vibration    19          0.710              1.622              1.277
 Vibration    20          0.731              1.564              1.141
 Vibration    21          0.734              1.555              1.123
 Vibration    22          0.741              1.537              1.087
 Vibration    23          0.767              1.467              0.958
 Vibration    24          0.772              1.455              0.937
 Vibration    25          0.787              1.415              0.873
 Vibration    26          0.801              1.380              0.823
 Vibration    27          0.822              1.329              0.754
 Vibration    28          0.832              1.305              0.723
 Vibration    29          0.861              1.238              0.645
 Vibration    30          0.874              1.207              0.612
 Vibration    31          0.900              1.150              0.554
 Vibration    32          0.974              1.001              0.425

 Optimization completed.
    -- Stationary point found.
 Normal termination of Gaussian 16 at Sun Dec 13 13:14:19 2020.

 ----------------------------------------------------------------------
 # B3LYP/6-311++G(d,p) empiricaldispersion=gd3bj scf=xqc pop=npa geom=c
 heck
 ----------------------------------------------------------------------

 ---------------------------------------
 CID_105519592_JID_9724_Energie_neutraal
 ---------------------------------------
 Structure from the checkpoint file:  "JID_9724.chk"
 Charge =  0 Multiplicity = 1

 SCF Done:  E(RB3LYP) =  -940.455077553     A.U. after   14 cycles
 Normal termination of Gaussian 16 at Sun Dec 13 13:25:14 2020.

 ----------------------------------------------------------------------
 # B3LYP/6-311++G(d,p) empiricaldispersion=gd3bj scf=xqc pop=npa geom=c
 heck
 ----------------------------------------------------------------------

 -------------------------------------
 CID_105519592_JID_9724_Energie_kation
 -------------------------------------
 Structure from the checkpoint file:  "JID_9724.chk"
 Charge =  1 Multiplicity = 2

 SCF Done:  E(UB3LYP) =  -940.119626342     A.U. after   30 cycles
 Normal termination of Gaussian 16 at Sun Dec 13 13:57:51 2020.
 Gaussian 16:  ES64L-G16RevA.03 25-Dec-2016

 ----------------------------------------------------------------------
 # B3LYP/6-311++G(d,p) empiricaldispersion=gd3bj scf=xqc pop=npa geom=c
 heck
 ----------------------------------------------------------------------

 ------------------------------------
 CID_105519592_JID_9724_Energie_anion
 ------------------------------------
 Structure from the checkpoint file:  "JID_9724.chk"
 Charge = -1 Multiplicity = 2

                         Standard orientation:
 ---------------------------------------------------------------------
 Center     Atomic      Atomic             Coordinates (Angstroms)
 Number     Number       Type             X           Y           Z
 ---------------------------------------------------------------------
      1          6           0        2.856368    1.956216    0.273926
      2          6           0        3.335666    0.524509    0.038434
      3          6           0        3.998631    0.385996   -1.331940
      4          6           0        4.242962    0.062675    1.180045
      5          8           0        2.075476   -0.240009    0.046655
      6          6           0        2.090464   -1.567385   -0.092520
      7          8           0        3.054678   -2.303487   -0.195677
      8          7           0        0.796153   -2.082578   -0.196037
      9          8           0       -0.232525   -1.317093    0.376397
     10          6           0       -1.134138   -0.862962   -0.644746
     11          6           0       -1.881487    0.360077   -0.089289
     12          6           0       -2.970522    0.802223   -1.106030
     13          6           0       -4.153620   -0.172191   -1.186390
     14          6           0       -4.756754   -0.445083    0.197062
     15          6           0       -3.686494   -0.926168    1.184614
     16          6           0       -2.526115    0.072771    1.283497
     17          6           0       -0.845433    1.484527   -0.040852
     18          8           0       -0.273492    1.909956   -1.023745
     19          8           0       -0.629239    1.992318    1.191651
     20          1           0        3.710005    2.641356    0.262704
     21          1           0        2.367489    2.029523    1.252082
     22          1           0        2.143891    2.254247   -0.499585
     23          1           0        4.881037    1.033147   -1.380167
     24          1           0        4.309227   -0.644689   -1.511388
     25          1           0        3.302813    0.693902   -2.119118
     26          1           0        3.701932    0.103372    2.131515
     27          1           0        4.598066   -0.955039    1.017601
     28          1           0        5.105440    0.734538    1.249397
     29          1           0        0.745738   -3.043935    0.127496
     30          1           0       -0.566264   -0.573988   -1.531941
     31          1           0       -1.824544   -1.671534   -0.909045
     32          1           0       -3.344897    1.784865   -0.788551
     33          1           0       -2.509737    0.948241   -2.088263
     34          1           0       -3.833812   -1.120115   -1.638482
     35          1           0       -4.913173    0.244771   -1.858754
     36          1           0       -5.567295   -1.179797    0.119344
     37          1           0       -5.206600    0.481769    0.581911
     38          1           0       -3.310583   -1.910108    0.872892
     39          1           0       -4.125064   -1.067685    2.179605
     40          1           0       -1.763790   -0.285897    1.979080
     41          1           0       -2.904706    1.018328    1.689672
     42          1           0        0.055420    2.678063    1.077154
 ---------------------------------------------------------------------

 SCF Done:  E(UB3LYP) =  -940.443318337     A.U. after   33 cycles
 SCF Done:  E(UB3LYP) =  -940.443318337     a.u. after    1 cycles

 The electronic state is 2-A.
 Alpha  occ. eigenvalues --  -19.08364 -19.08138 -19.07752 -19.02266 -19.01924
 Alpha  occ. eigenvalues --  -14.29773 -10.24058 -10.21411 -10.16027 -10.13497
 Alpha  occ. eigenvalues --  -10.11127 -10.08494 -10.07753 -10.07596 -10.07448
 Alpha  occ. eigenvalues --  -10.07356 -10.07327 -10.07268 -10.07102  -1.03839
 Alpha  occ. eigenvalues --   -1.02170  -0.99578  -0.93969  -0.93000  -0.79228
 Alpha  occ. eigenvalues --   -0.75213  -0.72498  -0.68239  -0.65660  -0.61230
 Alpha  occ. eigenvalues --   -0.60991  -0.59501  -0.56599  -0.56037  -0.52788
 Alpha  occ. eigenvalues --   -0.49592  -0.47563  -0.45745  -0.45033  -0.43081
 Alpha  occ. eigenvalues --   -0.42271  -0.40052  -0.39880  -0.38661  -0.38180
 Alpha  occ. eigenvalues --   -0.37541  -0.36695  -0.35650  -0.35077  -0.34618
 Alpha  occ. eigenvalues --   -0.34251  -0.33361  -0.32923  -0.31840  -0.30359
 Alpha  occ. eigenvalues --   -0.30157  -0.29691  -0.28986  -0.28568  -0.28434
 Alpha  occ. eigenvalues --   -0.27706  -0.26988  -0.26340  -0.25655  -0.25308
 Alpha  occ. eigenvalues --   -0.23908  -0.23765  -0.22713  -0.21915  -0.21665
 Alpha  occ. eigenvalues --   -0.21186  -0.19191  -0.18842  -0.18285   0.03940
 Alpha virt. eigenvalues --    0.05389   0.06368   0.06948   0.07405   0.07960
 Alpha virt. eigenvalues --    0.08204   0.08616   0.08897   0.09305   0.09828
 Alpha virt. eigenvalues --    0.10119   0.10389   0.10679   0.11000   0.11580

  Beta  occ. eigenvalues --  -19.08359 -19.08111 -19.07744 -19.02257 -19.01921
  Beta  occ. eigenvalues --  -14.29759 -10.24056 -10.21401 -10.16023 -10.13483
  Beta  occ. eigenvalues --  -10.11125 -10.08486 -10.07734 -10.07580 -10.07430
  Beta  occ. eigenvalues --  -10.07345 -10.07311 -10.07245 -10.07070  -1.03829
  Beta  occ. eigenvalues --   -1.02129  -0.99570  -0.93961  -0.92969  -0.79207
  Beta  occ. eigenvalues --   -0.75187  -0.72477  -0.68205  -0.65628  -0.61199
  Beta  occ. eigenvalues --   -0.60949  -0.59470  -0.56543  -0.56000  -0.52748
  Beta  occ. eigenvalues --   -0.49531  -0.47536  -0.45700  -0.45006  -0.43059
  Beta  occ. eigenvalues --   -0.42235  -0.40028  -0.39858  -0.38646  -0.38153
  Beta  occ. eigenvalues --   -0.37505  -0.36668  -0.35628  -0.35049  -0.34597
  Beta  occ. eigenvalues --   -0.34221  -0.33341  -0.32891  -0.31813  -0.30323
  Beta  occ. eigenvalues --   -0.30133  -0.29661  -0.28958  -0.28542  -0.28409
  Beta  occ. eigenvalues --   -0.27686  -0.26967  -0.26314  -0.25626  -0.25286
  Beta  occ. eigenvalues --   -0.23879  -0.23731  -0.22685  -0.21900  -0.21636
  Beta  occ. eigenvalues --   -0.21168  -0.19178  -0.18819  -0.18270
  Beta virt. eigenvalues --    0.05922   0.06376   0.06931   0.07533   0.07940
  Beta virt. eigenvalues --    0.08362   0.08381   0.08810   0.09229   0.09662
  Beta virt. eigenvalues --    0.10119   0.10215   0.10551   0.10818   0.11169

 Mulliken charges and spin densities:
               1          2
     1  C   -0.173223  -0.371364
     2  C   -0.851270   0.784983
     3  C    0.392785  -0.804857
     4  C    0.146744  -0.597753
     5  O    0.084782  -0.021362
     6  C    0.273882  -0.150559
     7  O   -0.280265   0.003020
     8  N   -0.418503   0.041134
     9  O    0.242653   0.008535
    10  C    0.521925  -1.220298
    11  C   -0.273607   0.931379
    12  C   -0.929251   0.510115
    13  C    0.194440  -0.432106
    14  C    0.775410  -1.341873
    15  C   -0.461973   0.153638
    16  C    0.393242  -0.495727
    17  C    0.269992  -0.924096
    18  O   -0.199850   0.041685
    19  O   -0.073694   0.060013
    20  H   -0.495352   0.648811
    21  H    0.126022   0.029505
    22  H    0.106013   0.091621
    23  H   -0.011419   0.169168
    24  H    0.128044   0.048556
    25  H    0.081038   0.066269
    26  H   -0.010294   0.155344
    27  H    0.117750   0.063108
    28  H   -0.066593   0.224389
    29  H    0.144852   0.169145
    30  H    0.259916  -0.033596
    31  H    0.027554   0.127790
    32  H   -0.113136   0.301932
    33  H    0.122764   0.062309
    34  H   -0.009369   0.136662
    35  H   -0.372050   0.563016
    36  H   -0.495538   0.670587
    37  H    0.151643  -0.034336
    38  H   -0.045416   0.198624
    39  H   -0.273352   0.457727
    40  H    0.189257   0.041251
    41  H   -0.037036   0.230473
    42  H   -0.159516   0.437140
 Sum of Mulliken charges =  -1.00000   1.00000

 Dipole moment (field-independent basis, Debye):
    X=              2.3537    Y=             -1.4103    Z=             -0.6557  Tot=              2.8212
 Quadrupole moment (field-independent basis, Debye-Ang):
   XX=           -222.8007   YY=           -164.9627   ZZ=           -150.6321
   XY=            -10.0462   XZ=             -2.0170   YZ=             -1.3071

 Summary of Natural Population Analysis:

                                       Natural Population
                Natural  -----------------------------------------------
    Atom  No    Charge         Core      Valence    Rydberg      Total
 -----------------------------------------------------------------------
      C    1   -0.29624      0.99960     2.28828    0.00836     3.29624
      C    2    0.13617      0.99954     1.85087    0.01343     2.86383
      C    3   -0.30233      0.99960     2.29650    0.00623     3.30233
      C    4   -0.30263      0.99960     2.29661    0.00642     3.30263
      O    5   -0.28709      0.99984     3.27673    0.01052     4.28709
      C    6    0.45881      0.99972     1.51702    0.02445     2.54119
      O    7   -0.32822      0.99987     3.32313    0.00522     4.32822
      N    8   -0.17503      0.99966     2.66275    0.01263     3.67503
      O    9   -0.21874      0.99989     3.20908    0.00977     4.21874
      C   10   -0.00412      0.99951     1.99203    0.01258     3.00412
      C   11   -0.08765      0.99950     2.07438    0.01378     3.08765
      C   12   -0.18506      0.99960     2.17548    0.00998     3.18506
      C   13   -0.19089      0.99963     2.18247    0.00879     3.19089
      C   14   -0.18944      0.99963     2.18157    0.00824     3.18944
      C   15   -0.19077      0.99963     2.18234    0.00881     3.19077
      C   16   -0.19367      0.99960     2.18295    0.01112     3.19367
      C   17    0.42255      0.99963     1.55028    0.02754     2.57745
      O   18   -0.31426      0.99987     3.30855    0.00585     4.31426
      O   19   -0.33846      0.99987     3.33216    0.00643     4.33846
      H   20    0.10323      0.00000     0.39538    0.00139     0.39677
      H   21    0.10090      0.00000     0.39760    0.00150     0.39910
      H   22    0.11433      0.00000     0.38417    0.00150     0.38567
      H   23    0.10397      0.00000     0.39525    0.00078     0.39603
      H   24    0.11173      0.00000     0.38745    0.00082     0.38827
      H   25    0.10473      0.00000     0.39440    0.00087     0.39527
      H   26    0.10358      0.00000     0.39551    0.00091     0.39642
      H   27    0.11344      0.00000     0.38572    0.00084     0.38656
      H   28    0.10376      0.00000     0.39533    0.00091     0.39624
      H   29    0.18809      0.00000     0.31014    0.00177     0.31191
      H   30    0.10028      0.00000     0.39819    0.00154     0.39972
      H   31    0.08763      0.00000     0.41077    0.00160     0.41237
      H   32    0.10076      0.00000     0.39801    0.00123     0.39924
      H   33    0.10815      0.00000     0.39087    0.00099     0.39185
      H   34    0.09328      0.00000     0.40531    0.00141     0.40672
      H   35    0.10247      0.00000     0.39640    0.00114     0.39753
      H   36    0.10093      0.00000     0.39761    0.00145     0.39907
      H   37    0.09260      0.00000     0.40606    0.00134     0.40740
      H   38    0.09386      0.00000     0.40467    0.00147     0.40614
      H   39    0.10109      0.00000     0.39792    0.00099     0.39891
      H   40    0.11240      0.00000     0.38603    0.00158     0.38760
      H   41    0.10269      0.00000     0.39582    0.00148     0.39731
      H   42    0.24318      0.00000     0.25254    0.00428     0.25682
 =======================================================================
   * Total *    0.00000     18.99375    54.76433    0.24191    74.00000

 Normal termination of Gaussian 16 at Sun Dec 13 14:32:27 2020.
