 Gaussian 16, Revision A.03,

 -----------------------------------------------------------
 # opt freq B3LYP/6-31G(d) empiricaldispersion=gd3bj scf=xqc
 -----------------------------------------------------------

 ------------------------------
 CID_66902769_JID_6181_neutraal
 ------------------------------
 Symbolic Z-matrix:
 Charge =  0 Multiplicity = 1

 SCF Done:  E(RB3LYP) =  -769.073379433     A.U. after   14 cycles
 SCF Done:  E(RB3LYP) =  -769.079601164     A.U. after   12 cycles
 SCF Done:  E(RB3LYP) =  -769.079551210     A.U. after   12 cycles
 SCF Done:  E(RB3LYP) =  -769.079936923     A.U. after   12 cycles
 SCF Done:  E(RB3LYP) =  -769.080630760     A.U. after   11 cycles
 SCF Done:  E(RB3LYP) =  -769.080786280     A.U. after   11 cycles
 SCF Done:  E(RB3LYP) =  -769.080538096     A.U. after   13 cycles
 SCF Done:  E(RB3LYP) =  -769.081041823     A.U. after   12 cycles
 SCF Done:  E(RB3LYP) =  -769.081113061     A.U. after   12 cycles
 SCF Done:  E(RB3LYP) =  -769.081136686     A.U. after   12 cycles
 SCF Done:  E(RB3LYP) =  -769.081539593     A.U. after    8 cycles
 SCF Done:  E(RB3LYP) =  -769.081540043     A.U. after    9 cycles
 SCF Done:  E(RB3LYP) =  -769.081540328     A.U. after    9 cycles
 SCF Done:  E(RB3LYP) =  -769.081540415     A.U. after    7 cycles
 SCF Done:  E(RB3LYP) =  -769.081540438     A.U. after    6 cycles
 Optimization completed.
    -- Stationary point found.
 Normal termination of Gaussian 16 at Thu Dec 10 21:33:19 2020.

 --------------------------------------------------------------------
 #N Geom=AllCheck Guess=TCheck SCRF=Check GenChk RB3LYP/6-31G(d) Freq
 --------------------------------------------------------------------

 Structure from the checkpoint file:  "JID_6181.chk"
 ------------------------------
 CID_66902769_JID_6181_neutraal
 ------------------------------
 Charge =  0 Multiplicity = 1

 SCF Done:  E(RB3LYP) =  -769.081540438     A.U. after    1 cycles

  Exact polarizability: 139.899   5.036 129.790   1.865   0.933 120.587
 Approx polarizability: 179.766  10.017 176.571   0.412   5.046 201.294

                      1                      2                      3
                      A                      A                      A
 Frequencies --     22.0666                43.0483                50.4537
 Red. masses --      4.0214                 3.5471                 4.2904
 Frc consts  --      0.0012                 0.0039                 0.0064
 IR Inten    --      0.3177                 0.7171                 0.8516

                      4                      5                      6
                      A                      A                      A
 Frequencies --     61.2188               101.7664               120.5615
 Red. masses --      3.8228                 3.7032                 2.8329
 Frc consts  --      0.0084                 0.0226                 0.0243
 IR Inten    --      1.6781                 1.9837                 0.4121

                      7                      8                      9
                      A                      A                      A
 Frequencies --    138.8837               143.8609               155.4142
 Red. masses --      1.5644                 2.2443                 3.8559
 Frc consts  --      0.0178                 0.0274                 0.0549
 IR Inten    --      0.0986                 0.1948                 0.4886

                     10                     11                     12
                      A                      A                      A
 Frequencies --    208.7392               227.2079               243.0870
 Red. masses --      1.1173                 3.4624                 3.1161
 Frc consts  --      0.0287                 0.1053                 0.1085
 IR Inten    --      0.2669                 5.6260                 0.7473

                     13                     14                     15
                      A                      A                      A
 Frequencies --    249.6525               270.4636               279.6831
 Red. masses --      1.1297                 1.3715                 1.9757
 Frc consts  --      0.0415                 0.0591                 0.0911
 IR Inten    --      0.3787                 1.9007                 4.3156

                     16                     17                     18
                      A                      A                      A
 Frequencies --    309.8435               338.6503               347.3167
 Red. masses --      2.9371                 3.7796                 3.3923
 Frc consts  --      0.1661                 0.2554                 0.2411
 IR Inten    --      0.0552                12.9190                 5.4672

                     19                     20                     21
                      A                      A                      A
 Frequencies --    358.0821               393.0831               403.8353
 Red. masses --      2.5733                 2.4115                 2.7277
 Frc consts  --      0.1944                 0.2195                 0.2621
 IR Inten    --      1.2217                 5.5145                 1.7698

                     22                     23                     24
                      A                      A                      A
 Frequencies --    425.2188               456.0900               469.3594
 Red. masses --      7.7471                 2.9617                 3.1032
 Frc consts  --      0.8253                 0.3630                 0.4028
 IR Inten    --      8.3677                 3.4046                 2.6905

                     25                     26                     27
                      A                      A                      A
 Frequencies --    493.7016               642.7421               692.0227
 Red. masses --      3.2595                 1.7020                 7.9251
 Frc consts  --      0.4681                 0.4143                 2.2361
 IR Inten    --      2.1299                17.7396                13.8504

                     28                     29                     30
                      A                      A                      A
 Frequencies --    724.1149               751.9849               766.1961
 Red. masses --      2.0489                 6.2957                 3.7536
 Frc consts  --      0.6330                 2.0975                 1.2983
 IR Inten    --     23.5637                 7.7556                22.7341

                     31                     32                     33
                      A                      A                      A
 Frequencies --    794.0905               809.8807               834.8700
 Red. masses --      5.0697                 5.4880                 4.5103
 Frc consts  --      1.8835                 2.1208                 1.8522
 IR Inten    --      2.3330                 1.3647                 6.2398

                     34                     35                     36
                      A                      A                      A
 Frequencies --    868.5189               913.6241               940.6469
 Red. masses --      3.7945                 2.9541                 1.6344
 Frc consts  --      1.6864                 1.4528                 0.8520
 IR Inten    --     32.8995                 6.9752                 0.2923

                     37                     38                     39
                      A                      A                      A
 Frequencies --    942.0081               961.2741               971.9059
 Red. masses --      1.6801                 1.2278                 1.8323
 Frc consts  --      0.8784                 0.6684                 1.0198
 IR Inten    --      0.4404                 1.5165                10.9098

                     40                     41                     42
                      A                      A                      A
 Frequencies --    981.3129               984.6747               994.9394
 Red. masses --      1.8553                 1.1994                 3.0696
 Frc consts  --      1.0526                 0.6852                 1.7903
 IR Inten    --      0.3130                 0.1468                 1.0419

                     43                     44                     45
                      A                      A                      A
 Frequencies --   1011.8431              1067.2203              1072.2298
 Red. masses --      4.1296                 1.4118                 1.5491
 Frc consts  --      2.4910                 0.9474                 1.0493
 IR Inten    --     12.7437                 0.7728                 2.8239

                     46                     47                     48
                      A                      A                      A
 Frequencies --   1087.5914              1105.2463              1111.7258
 Red. masses --      3.7033                 2.6619                 5.3553
 Frc consts  --      2.5809                 1.9158                 3.8997
 IR Inten    --     11.4410                56.9551                 2.5493

                     49                     50                     51
                      A                      A                      A
 Frequencies --   1140.7716              1186.3329              1202.9725
 Red. masses --      1.1056                 1.2735                 1.8017
 Frc consts  --      0.8477                 1.0560                 1.5361
 IR Inten    --      4.7506                 0.8783               415.6446

                     52                     53                     54
                      A                      A                      A
 Frequencies --   1210.3349              1221.0905              1244.4074
 Red. masses --      1.3054                 1.5297                 2.0136
 Frc consts  --      1.1267                 1.3438                 1.8372
 IR Inten    --    109.4505                29.5572               129.8550

                     55                     56                     57
                      A                      A                      A
 Frequencies --   1288.6312              1291.0482              1300.2349
 Red. masses --      2.7265                 6.4562                 2.7550
 Frc consts  --      2.6675                 6.3403                 2.7442
 IR Inten    --     13.9051               213.9624                13.4677

                     58                     59                     60
                      A                      A                      A
 Frequencies --   1319.7800              1336.8249              1356.2975
 Red. masses --      1.5097                 2.5288                 1.6445
 Frc consts  --      1.5493                 2.6627                 1.7824
 IR Inten    --     34.0095               119.2966                 7.5278

                     61                     62                     63
                      A                      A                      A
 Frequencies --   1378.5086              1425.3416              1429.0489
 Red. masses --      1.7171                 1.2788                 1.2882
 Frc consts  --      1.9225                 1.5307                 1.5500
 IR Inten    --      3.1530                17.5601                16.7118

                     64                     65                     66
                      A                      A                      A
 Frequencies --   1453.6569              1491.6237              1499.4246
 Red. masses --      1.2336                 1.1962                 1.0469
 Frc consts  --      1.5359                 1.5681                 1.3867
 IR Inten    --     19.9536                 6.7366                 0.8803

                     67                     68                     69
                      A                      A                      A
 Frequencies --   1507.1910              1512.4546              1519.3560
 Red. masses --      1.0943                 1.0480                 1.0488
 Frc consts  --      1.4646                 1.4124                 1.4265
 IR Inten    --      7.2856                 5.7564                 0.6534

                     70                     71                     72
                      A                      A                      A
 Frequencies --   1520.0746              1523.7319              1524.3968
 Red. masses --      1.0526                 1.0645                 1.0611
 Frc consts  --      1.4330                 1.4562                 1.4527
 IR Inten    --      1.1280                 6.7663                 3.7681

                     73                     74                     75
                      A                      A                      A
 Frequencies --   1526.6606              1534.8018              1556.1217
 Red. masses --      1.0803                 1.0529                 1.0550
 Frc consts  --      1.4835                 1.4613                 1.5051
 IR Inten    --     10.3252                 1.3601                12.9456

                     76                     77                     78
                      A                      A                      A
 Frequencies --   1711.8395              1809.8755              1817.1885
 Red. masses --      5.9193                11.7538                11.9186
 Frc consts  --     10.2199                22.6843                23.1886
 IR Inten    --      5.5060               199.6364               194.4101

                     79                     80                     81
                      A                      A                      A
 Frequencies --   3052.5915              3057.8862              3061.4262
 Red. masses --      1.0685                 1.0360                 1.0375
 Frc consts  --      5.8663                 5.7077                 5.7291
 IR Inten    --     27.2741                10.3370                20.0899

                     82                     83                     84
                      A                      A                      A
 Frequencies --   3068.2949              3069.5530              3077.7080
 Red. masses --      1.0659                 1.0393                 1.0294
 Frc consts  --      5.9121                 5.7693                 5.7449
 IR Inten    --     17.6946                20.6053                32.0638

                     85                     86                     87
                      A                      A                      A
 Frequencies --   3120.7656              3121.3736              3123.6187
 Red. masses --      1.0967                 1.1022                 1.0941
 Frc consts  --      6.2928                 6.3268                 6.2896
 IR Inten    --     12.9801                 9.7660                 2.3314

                     88                     89                     90
                      A                      A                      A
 Frequencies --   3132.9541              3134.6851              3140.6159
 Red. masses --      1.1018                 1.1030                 1.1020
 Frc consts  --      6.3719                 6.3858                 6.4039
 IR Inten    --     13.6448                22.1252                47.2128

                     91                     92                     93
                      A                      A                      A
 Frequencies --   3153.2321              3172.3585              3175.3011
 Red. masses --      1.1076                 1.1002                 1.0996
 Frc consts  --      6.4886                 6.5237                 6.5321
 IR Inten    --     18.0253                 0.8912                12.6846

                     94                     95                     96
                      A                      A                      A
 Frequencies --   3185.2558              3199.1850              3222.9041
 Red. masses --      1.1074                 1.0852                 1.1036
 Frc consts  --      6.6195                 6.5439                 6.7540
 IR Inten    --     16.2237                 6.4719                28.3262

 - Thermochemistry -
 -------------------
 Temperature   298.150 Kelvin.  Pressure   1.00000 Atm.
 Atom     1 has atomic number  6 and mass  12.00000

 Molecular mass:   226.12051 amu.
 Principal axes and moments of inertia in atomic units:
                           1         2         3
     Eigenvalues --  2417.541714408.082015540.51128
           X            0.99999   0.00112   0.00517
           Y           -0.00113   1.00000   0.00140
           Z           -0.00517  -0.00140   0.99999
 This molecule is an asymmetric top.
 Rotational symmetry number  1.
 Warning -- assumption of classical behavior for rotation
           may cause significant error
 Rotational temperatures (Kelvin)      0.03583     0.01965     0.01563
 Rotational constants (GHZ):           0.74652     0.40942     0.32574
 Zero-point vibrational energy     756349.0 (Joules/Mol)
                                  180.77176 (Kcal/Mol)
 Warning -- explicit consideration of  25 degrees of freedom as
           vibrations may cause significant error
 Vibrational temperatures:     31.75    61.94    72.59    88.08   146.42
          (Kelvin)            173.46   199.82   206.98   223.61   300.33
                              326.90   349.75   359.19   389.14   402.40
                              445.80   487.24   499.71   515.20   565.56
                              581.03   611.79   656.21   675.30   710.33
                              924.76   995.67  1041.84  1081.94  1102.39
                             1142.52  1165.24  1201.19  1249.60  1314.50
                             1353.38  1355.34  1383.06  1398.36  1411.89
                             1416.73  1431.50  1455.82  1535.49  1542.70
                             1564.80  1590.20  1599.53  1641.32  1706.87
                             1730.81  1741.40  1756.88  1790.42  1854.05
                             1857.53  1870.75  1898.87  1923.39  1951.41
                             1983.37  2050.75  2056.08  2091.49  2146.11
                             2157.34  2168.51  2176.08  2186.01  2187.05
                             2192.31  2193.27  2196.52  2208.24  2238.91
                             2462.96  2604.01  2614.53  4392.00  4399.62
                             4404.71  4414.59  4416.40  4428.14  4490.09
                             4490.96  4494.19  4507.62  4510.11  4518.65
                             4536.80  4564.32  4568.55  4582.87  4602.91
                             4637.04

 Zero-point correction=                           0.288078 (Hartree/Particle)
 Thermal correction to Energy=                    0.305355
 Thermal correction to Enthalpy=                  0.306299
 Thermal correction to Gibbs Free Energy=         0.242321
 Sum of electronic and zero-point Energies=           -768.793462
 Sum of electronic and thermal Energies=              -768.776186
 Sum of electronic and thermal Enthalpies=            -768.775241
 Sum of electronic and thermal Free Energies=         -768.839219

                     E (Thermal)             CV                S
                      KCal/Mol        Cal/Mol-Kelvin    Cal/Mol-Kelvin
 Total                  191.613             63.734            134.652
 Electronic               0.000              0.000              0.000
 Translational            0.889              2.981             42.150
 Rotational               0.889              2.981             32.446
 Vibrational            189.836             57.772             60.056
 Vibration     1          0.593              1.985              6.439
 Vibration     2          0.595              1.980              5.114
 Vibration     3          0.595              1.977              4.800
 Vibration     4          0.597              1.973              4.418
 Vibration     5          0.604              1.948              3.420
 Vibration     6          0.609              1.932              3.091
 Vibration     7          0.614              1.914              2.819
 Vibration     8          0.616              1.909              2.752
 Vibration     9          0.620              1.897              2.605
 Vibration    10          0.642              1.827              2.055
 Vibration    11          0.651              1.800              1.901
 Vibration    12          0.659              1.774              1.780
 Vibration    13          0.662              1.763              1.733
 Vibration    14          0.674              1.728              1.593
 Vibration    15          0.680              1.711              1.536
 Vibration    16          0.699              1.655              1.363
 Vibration    17          0.719              1.598              1.219
 Vibration    18          0.725              1.581              1.178
 Vibration    19          0.733              1.559              1.130
 Vibration    20          0.760              1.485              0.988
 Vibration    21          0.769              1.462              0.949
 Vibration    22          0.787              1.415              0.874
 Vibration    23          0.814              1.347              0.778
 Vibration    24          0.826              1.318              0.739
 Vibration    25          0.849              1.264              0.674

 Optimization completed.
    -- Stationary point found.
 Normal termination of Gaussian 16 at Thu Dec 10 21:44:59 2020.

 ----------------------------------------------------------------------
 # B3LYP/6-311++G(d,p) empiricaldispersion=gd3bj scf=xqc pop=npa geom=c
 heck
 ----------------------------------------------------------------------

 --------------------------------------
 CID_66902769_JID_6181_Energie_neutraal
 --------------------------------------
 Structure from the checkpoint file:  "JID_6181.chk"
 Charge =  0 Multiplicity = 1

 SCF Done:  E(RB3LYP) =  -769.302958659     A.U. after   15 cycles
 Normal termination of Gaussian 16 at Thu Dec 10 21:50:37 2020.

 ----------------------------------------------------------------------
 # B3LYP/6-311++G(d,p) empiricaldispersion=gd3bj scf=xqc pop=npa geom=c
 heck
 ----------------------------------------------------------------------

 ------------------------------------
 CID_66902769_JID_6181_Energie_kation
 ------------------------------------
 Structure from the checkpoint file:  "JID_6181.chk"
 Charge =  1 Multiplicity = 2

 SCF Done:  E(UB3LYP) =  -768.977502080     A.U. after   26 cycles
 Normal termination of Gaussian 16 at Thu Dec 10 22:04:31 2020.
 Gaussian 16:  ES64L-G16RevA.03 25-Dec-2016

 ----------------------------------------------------------------------
 # B3LYP/6-311++G(d,p) empiricaldispersion=gd3bj scf=xqc pop=npa geom=c
 heck
 ----------------------------------------------------------------------

 -----------------------------------
 CID_66902769_JID_6181_Energie_anion
 -----------------------------------
 Structure from the checkpoint file:  "JID_6181.chk"
 Charge = -1 Multiplicity = 2

                         Standard orientation:
 ---------------------------------------------------------------------
 Center     Atomic      Atomic             Coordinates (Angstroms)
 Number     Number       Type             X           Y           Z
 ---------------------------------------------------------------------
      1          6           0        3.112862    0.975046    1.486178
      2          6           0        2.691793    0.251373    0.208333
      3          6           0        2.876905    1.151779   -1.014268
      4          6           0        3.415383   -1.088499    0.071283
      5          8           0        1.253641    0.019883    0.435056
      6          6           0        0.475359   -0.518680   -0.512580
      7          8           0        0.858579   -1.002710   -1.555147
      8          6           0       -1.002279   -0.422891   -0.088004
      9          6           0       -1.884607   -1.292809   -1.037324
     10          6           0       -2.122277   -2.547727   -0.236500
     11          6           0       -1.757358   -2.412873    1.038497
     12          6           0       -1.213799   -1.038104    1.335819
     13          6           0       -1.385652    1.048435   -0.187473
     14          8           0       -0.722391    1.910442   -0.723396
     15          8           0       -2.599394    1.280663    0.356383
     16          6           0       -3.066392    2.635341    0.251336
     17          1           0        4.183416    1.201311    1.453505
     18          1           0        2.915835    0.352129    2.364673
     19          1           0        2.560008    1.913194    1.594443
     20          1           0        3.920009    1.482207   -1.067064
     21          1           0        2.627558    0.624323   -1.935717
     22          1           0        2.231606    2.031181   -0.930443
     23          1           0        3.216216   -1.719483    0.944218
     24          1           0        3.094699   -1.615538   -0.828067
     25          1           0        4.495806   -0.915826    0.014333
     26          1           0       -2.832285   -0.789293   -1.267577
     27          1           0       -1.357909   -1.466036   -1.979399
     28          1           0       -2.570588   -3.435339   -0.672559
     29          1           0       -1.860470   -3.172964    1.807166
     30          1           0       -0.280080   -1.045054    1.904213
     31          1           0       -1.935456   -0.444819    1.909400
     32          1           0       -2.380754    3.315985    0.762273
     33          1           0       -3.144752    2.931892   -0.797654
     34          1           0       -4.045981    2.643571    0.729303
 ---------------------------------------------------------------------

 SCF Done:  E(UB3LYP) =  -769.288678122     A.U. after   33 cycles
 SCF Done:  E(UB3LYP) =  -769.288678122     a.u. after    1 cycles

 The electronic state is 2-A.
 Alpha  occ. eigenvalues --  -19.08053 -19.06998 -19.02496 -19.02112 -10.21587
 Alpha  occ. eigenvalues --  -10.21295 -10.15360 -10.12973 -10.12012 -10.08707
 Alpha  occ. eigenvalues --  -10.08653 -10.08174 -10.08072 -10.07042 -10.06992
 Alpha  occ. eigenvalues --  -10.06654  -1.02304  -1.01230  -0.93380  -0.93174
 Alpha  occ. eigenvalues --   -0.77274  -0.72527  -0.67255  -0.62732  -0.62629
 Alpha  occ. eigenvalues --   -0.60602  -0.60442  -0.55474  -0.51739  -0.48083
 Alpha  occ. eigenvalues --   -0.45298  -0.44147  -0.42587  -0.42258  -0.39341
 Alpha  occ. eigenvalues --   -0.38811  -0.38579  -0.37807  -0.36442  -0.34931
 Alpha  occ. eigenvalues --   -0.34306  -0.32925  -0.32118  -0.31661  -0.31127
 Alpha  occ. eigenvalues --   -0.30658  -0.29842  -0.29597  -0.28925  -0.27888
 Alpha  occ. eigenvalues --   -0.27035  -0.26955  -0.26338  -0.25959  -0.25333
 Alpha  occ. eigenvalues --   -0.24381  -0.22241  -0.21148  -0.19229  -0.18446
 Alpha  occ. eigenvalues --   -0.16001   0.04178
 Alpha virt. eigenvalues --    0.05809   0.06385   0.07598   0.08146   0.08440
 Alpha virt. eigenvalues --    0.08506   0.08796   0.08978   0.09345   0.09703
 Alpha virt. eigenvalues --    0.09792   0.10385   0.11182   0.11296   0.11778

  Beta  occ. eigenvalues --  -19.08045 -19.06993 -19.02489 -19.02108 -10.21585
  Beta  occ. eigenvalues --  -10.21294 -10.15360 -10.12923 -10.12012 -10.08699
  Beta  occ. eigenvalues --  -10.08638 -10.08167 -10.08062 -10.07012 -10.06970
  Beta  occ. eigenvalues --  -10.06639  -1.02292  -1.01223  -0.93367  -0.93167
  Beta  occ. eigenvalues --   -0.77261  -0.72512  -0.67230  -0.62693  -0.62588
  Beta  occ. eigenvalues --   -0.60558  -0.60408  -0.55445  -0.51699  -0.48040
  Beta  occ. eigenvalues --   -0.45269  -0.44129  -0.42553  -0.42236  -0.39314
  Beta  occ. eigenvalues --   -0.38787  -0.38558  -0.37785  -0.36413  -0.34891
  Beta  occ. eigenvalues --   -0.34284  -0.32901  -0.32101  -0.31636  -0.31100
  Beta  occ. eigenvalues --   -0.30633  -0.29819  -0.29569  -0.28901  -0.27862
  Beta  occ. eigenvalues --   -0.27002  -0.26932  -0.26319  -0.25938  -0.25315
  Beta  occ. eigenvalues --   -0.24364  -0.22223  -0.21135  -0.19218  -0.18436
  Beta  occ. eigenvalues --   -0.15986
  Beta virt. eigenvalues --    0.06205   0.06797   0.07170   0.08084   0.08293
  Beta virt. eigenvalues --    0.08531   0.08886   0.09132   0.09453   0.09536
  Beta virt. eigenvalues --    0.10001   0.10176   0.10945   0.11348   0.11516

 Mulliken charges and spin densities:
               1          2
     1  C    0.556333  -0.909964
     2  C   -1.231643   1.148085
     3  C    0.340128  -0.755982
     4  C    0.220536  -0.626608
     5  O    0.224135  -0.002813
     6  C   -0.689139  -0.662705
     7  O   -0.179441   0.005986
     8  C    0.718756   0.452530
     9  C   -0.173480  -0.269073
    10  C    0.561732  -0.764833
    11  C   -0.468718   0.356867
    12  C    0.932664  -1.227835
    13  C   -0.781392   0.526626
    14  O   -0.204050   0.008104
    15  O   -0.080800   0.065710
    16  C    1.099309  -1.305513
    17  H   -0.139047   0.284056
    18  H   -0.255369   0.406210
    19  H   -0.059144   0.224144
    20  H   -0.016355   0.179887
    21  H    0.125034   0.050161
    22  H    0.089654   0.068629
    23  H    0.003736   0.135638
    24  H    0.123809   0.056891
    25  H   -0.199949   0.367556
    26  H    0.016693   0.166631
    27  H    0.205877   0.021444
    28  H   -0.135193   0.307957
    29  H   -0.666138   0.858390
    30  H    0.313918  -0.133545
    31  H   -0.120447   0.316062
    32  H   -0.278985   0.460157
    33  H   -0.250103   0.424159
    34  H   -0.602919   0.766991
 Sum of Mulliken charges =  -1.00000   1.00000

 Dipole moment (field-independent basis, Debye):
    X=              1.9038    Y=             -1.7817    Z=             -2.6679  Tot=              3.7305
 Quadrupole moment (field-independent basis, Debye-Ang):
   XX=           -174.6142   YY=           -149.6946   ZZ=           -134.8716
   XY=              6.5651   XZ=              3.1969   YZ=              1.2416

 Summary of Natural Population Analysis:

                                       Natural Population
                Natural  -----------------------------------------------
    Atom  No    Charge         Core      Valence    Rydberg      Total
 -----------------------------------------------------------------------
      C    1   -0.28940      0.99960     2.28260    0.00720     3.28940
      C    2    0.13449      0.99953     1.85125    0.01472     2.86551
      C    3   -0.30232      0.99960     2.29725    0.00547     3.30232
      C    4   -0.30129      0.99960     2.29497    0.00672     3.30129
      O    5   -0.29403      0.99984     3.28242    0.01177     4.29403
      C    6    0.43189      0.99963     1.54107    0.02741     2.56811
      O    7   -0.30784      0.99987     3.30300    0.00498     4.30784
      C    8   -0.11494      0.99949     2.10074    0.01471     3.11494
      C    9   -0.20065      0.99960     2.19126    0.00979     3.20065
      C   10   -0.09331      0.99952     2.08436    0.00943     3.09331
      C   11   -0.09162      0.99952     2.08249    0.00962     3.09162
      C   12   -0.19849      0.99960     2.18928    0.00961     3.19849
      C   13    0.42135      0.99961     1.55318    0.02586     2.57865
      O   14   -0.30091      0.99987     3.29546    0.00558     4.30091
      O   15   -0.27817      0.99986     3.26903    0.00929     4.27817
      C   16   -0.10306      0.99959     2.09440    0.00907     3.10306
      H   17    0.10201      0.00000     0.39682    0.00117     0.39799
      H   18    0.10437      0.00000     0.39441    0.00122     0.39563
      H   19    0.10592      0.00000     0.39289    0.00120     0.39408
      H   20    0.10145      0.00000     0.39770    0.00085     0.39855
      H   21    0.11165      0.00000     0.38742    0.00093     0.38835
      H   22    0.11091      0.00000     0.38810    0.00099     0.38909
      H   23    0.10312      0.00000     0.39587    0.00101     0.39688
      H   24    0.11273      0.00000     0.38634    0.00093     0.38727
      H   25    0.10278      0.00000     0.39628    0.00094     0.39722
      H   26    0.10774      0.00000     0.39092    0.00134     0.39226
      H   27    0.11697      0.00000     0.38173    0.00130     0.38303
      H   28    0.09990      0.00000     0.39928    0.00082     0.40010
      H   29    0.10199      0.00000     0.39679    0.00123     0.39801
      H   30    0.11233      0.00000     0.38596    0.00172     0.38767
      H   31    0.11374      0.00000     0.38439    0.00187     0.38626
      H   32    0.09364      0.00000     0.40479    0.00157     0.40636
      H   33    0.09154      0.00000     0.40706    0.00140     0.40846
      H   34    0.09553      0.00000     0.40226    0.00221     0.40447
 =======================================================================
   * Total *   -0.00000     15.99432    44.80176    0.20392    61.00000

 Normal termination of Gaussian 16 at Thu Dec 10 22:22:13 2020.
