 Gaussian 16, Revision A.03,

 -----------------------------------------------------------
 # opt freq B3LYP/6-31G(d) empiricaldispersion=gd3bj scf=xqc
 -----------------------------------------------------------

 ------------------------------
 CID_18688622_JID_3504_neutraal
 ------------------------------
 Symbolic Z-matrix:
 Charge =  0 Multiplicity = 1

 SCF Done:  E(RB3LYP) =  -653.570783727     A.U. after   14 cycles
 SCF Done:  E(RB3LYP) =  -653.564785956     A.U. after   13 cycles
 SCF Done:  E(RB3LYP) =  -653.571250627     A.U. after   13 cycles
 SCF Done:  E(RB3LYP) =  -653.572904871     A.U. after   10 cycles
 SCF Done:  E(RB3LYP) =  -653.573315221     A.U. after   12 cycles
 SCF Done:  E(RB3LYP) =  -653.573838943     A.U. after   12 cycles
 SCF Done:  E(RB3LYP) =  -653.574053486     A.U. after   12 cycles
 SCF Done:  E(RB3LYP) =  -653.574215416     A.U. after   11 cycles
 SCF Done:  E(RB3LYP) =  -653.574238743     A.U. after   10 cycles
 SCF Done:  E(RB3LYP) =  -653.574247815     A.U. after   10 cycles
 SCF Done:  E(RB3LYP) =  -653.574250290     A.U. after    9 cycles
 SCF Done:  E(RB3LYP) =  -653.574252928     A.U. after    9 cycles
 SCF Done:  E(RB3LYP) =  -653.574253041     A.U. after    8 cycles
 SCF Done:  E(RB3LYP) =  -653.574253155     A.U. after    8 cycles
 SCF Done:  E(RB3LYP) =  -653.574253267     A.U. after    6 cycles
 Optimization completed.
    -- Stationary point found.

 1\1\GINC-NODE104\FOpt\RB3LYP\6-31G(d)\C9H16O4\VSC10255\09-Dec-2020\0\\
 # opt freq B3LYP/6-31G(d) empiricaldispersion=gd3bj scf=xqc\\CID_18688
 622_JID_3504_neutraal\\0,1\C,1.0307972441,-0.0410666302,0.1246455625\C
 ,0.5589585511,-1.1037522204,-0.8786874107\C,1.3815430438,-2.4218981521
 ,-0.7398139829\C,1.2407728357,-3.1795031104,0.5566960552\O,0.520713626
 ,-4.1434889001,0.7331862517\O,2.0128769334,-2.6616340328,1.5354240559\
 C,-1.0061604234,-1.2406604803,-0.9667696199\C,-1.5147165508,-0.0814504
 787,-1.853264683\C,-1.4193061273,-2.5616286779,-1.6376973703\C,-1.7516

 Normal termination of Gaussian 16 at Wed Dec  9 23:35:06 2020.

 --------------------------------------------------------------------
 #N Geom=AllCheck Guess=TCheck SCRF=Check GenChk RB3LYP/6-31G(d) Freq
 --------------------------------------------------------------------

 Structure from the checkpoint file:  "JID_3504.chk"
 ------------------------------
 CID_18688622_JID_3504_neutraal
 ------------------------------
 Charge =  0 Multiplicity = 1

 SCF Done:  E(RB3LYP) =  -653.574253267     A.U. after    1 cycles

  Exact polarizability: 109.112   2.242  99.914  -3.886   6.855  94.248
 Approx polarizability: 149.713   2.174 148.846  -9.723  17.261 147.403

                      1                      2                      3
                      A                      A                      A
 Frequencies --     77.8996                89.5984               107.6911
 Red. masses --      4.6630                 4.6376                 6.5525
 Frc consts  --      0.0167                 0.0219                 0.0448
 IR Inten    --      1.7308                 1.6391                 0.1146

                      4                      5                      6
                      A                      A                      A
 Frequencies --    140.0086               144.3901               152.0551
 Red. masses --      7.0380                10.7524                 3.8195
 Frc consts  --      0.0813                 0.1321                 0.0520
 IR Inten    --      1.2780                 9.4391                 0.3190

                      7                      8                      9
                      A                      A                      A
 Frequencies --    181.7272               248.3818               267.1647
 Red. masses --      3.8609                 1.2873                 2.8466
 Frc consts  --      0.0751                 0.0468                 0.1197
 IR Inten    --      0.0328                 0.0326                 0.8916

                     10                     11                     12
                      A                      A                      A
 Frequencies --    274.2538               293.7768               299.0012
 Red. masses --      2.2425                 1.1105                 2.5981
 Frc consts  --      0.0994                 0.0565                 0.1369
 IR Inten    --      0.2444                 0.3317                 0.7627

                     13                     14                     15
                      A                      A                      A
 Frequencies --    335.6617               337.7149               387.2110
 Red. masses --      1.8979                 1.4855                 2.3645
 Frc consts  --      0.1260                 0.0998                 0.2089
 IR Inten    --      0.2745                 0.3176                 2.1275

                     16                     17                     18
                      A                      A                      A
 Frequencies --    416.1623               428.8731               461.5226
 Red. masses --      2.7732                 2.9935                 1.8831
 Frc consts  --      0.2830                 0.3244                 0.2363
 IR Inten    --      0.2759                 4.6394                 4.4324

                     19                     20                     21
                      A                      A                      A
 Frequencies --    468.5559               521.7795               551.6238
 Red. masses --      1.9821                 2.0004                 2.1220
 Frc consts  --      0.2564                 0.3209                 0.3804
 IR Inten    --      1.1560                49.3381                70.3895

                     22                     23                     24
                      A                      A                      A
 Frequencies --    576.4807               603.7860               621.7119
 Red. masses --      3.5874                 1.9968                 1.7132
 Frc consts  --      0.7024                 0.4289                 0.3901
 IR Inten    --     19.7287                 8.6486               140.6807

                     25                     26                     27
                      A                      A                      A
 Frequencies --    680.5624               765.0801               787.4945
 Red. masses --      2.8769                 3.2653                 4.1141
 Frc consts  --      0.7851                 1.1261                 1.5032
 IR Inten    --     71.9016                39.6643                19.7752

                     28                     29                     30
                      A                      A                      A
 Frequencies --    856.3225               892.6647               897.4310
 Red. masses --      3.3602                 2.6532                 3.3344
 Frc consts  --      1.4517                 1.2456                 1.5822
 IR Inten    --      3.6528                 0.7835                 1.3706

                     31                     32                     33
                      A                      A                      A
 Frequencies --    921.1903               937.9396               956.7863
 Red. masses --      2.1195                 2.0974                 1.9453
 Frc consts  --      1.0597                 1.0871                 1.0492
 IR Inten    --      1.4310                 5.8844                 1.2694

                     34                     35                     36
                      A                      A                      A
 Frequencies --    968.7769               992.8617              1036.5103
 Red. masses --      1.5305                 1.7052                 1.5160
 Frc consts  --      0.8463                 0.9904                 0.9596
 IR Inten    --      1.5862                 4.7306                 2.8297

                     37                     38                     39
                      A                      A                      A
 Frequencies --   1059.6168              1104.3481              1129.5545
 Red. masses --      1.4867                 1.8198                 2.2493
 Frc consts  --      0.9835                 1.3076                 1.6909
 IR Inten    --      7.1498                40.4495                12.4100

                     40                     41                     42
                      A                      A                      A
 Frequencies --   1144.2950              1195.6225              1206.5085
 Red. masses --      1.6324                 1.8563                 2.1509
 Frc consts  --      1.2594                 1.5634                 1.8447
 IR Inten    --     60.6414                45.6471               166.0650

                     43                     44                     45
                      A                      A                      A
 Frequencies --   1245.2436              1250.2512              1285.6736
 Red. masses --      2.0584                 2.5923                 1.2507
 Frc consts  --      1.8806                 2.3874                 1.2181
 IR Inten    --    108.6094                52.6015                14.9041

                     46                     47                     48
                      A                      A                      A
 Frequencies --   1315.4109              1320.8585              1353.8277
 Red. masses --      1.4603                 1.4184                 1.4302
 Frc consts  --      1.4887                 1.4580                 1.5445
 IR Inten    --      1.2461                10.6534                 2.6988

                     49                     50                     51
                      A                      A                      A
 Frequencies --   1376.4911              1383.4549              1408.9022
 Red. masses --      1.4526                 1.6765                 2.1826
 Frc consts  --      1.6216                 1.8905                 2.5526
 IR Inten    --      8.2113                13.1797                46.3147

                     52                     53                     54
                      A                      A                      A
 Frequencies --   1433.5644              1436.7006              1453.0912
 Red. masses --      1.2218                 1.5284                 1.2298
 Frc consts  --      1.4794                 1.8587                 1.5299
 IR Inten    --      1.4603                25.0513                13.8348

                     55                     56                     57
                      A                      A                      A
 Frequencies --   1462.5436              1506.8187              1510.5960
 Red. masses --      1.2395                 1.1102                 1.1177
 Frc consts  --      1.5621                 1.4852                 1.5027
 IR Inten    --      0.6562                 6.1098                13.0659

                     58                     59                     60
                      A                      A                      A
 Frequencies --   1522.6411              1526.9229              1535.1656
 Red. masses --      1.0566                 1.0572                 1.0462
 Frc consts  --      1.4433                 1.4523                 1.4528
 IR Inten    --      1.9242                 8.4096                10.3916

                     61                     62                     63
                      A                      A                      A
 Frequencies --   1538.7991              1549.6729              1554.2755
 Red. masses --      1.0509                 1.0566                 1.0582
 Frc consts  --      1.4661                 1.4950                 1.5062
 IR Inten    --      1.1299                 5.0971                 5.4023

                     64                     65                     66
                      A                      A                      A
 Frequencies --   1821.0853              1826.4868              3019.2450
 Red. masses --      8.7408                 9.2954                 1.0834
 Frc consts  --     17.0790                18.2705                 5.8186
 IR Inten    --     78.0809               421.9425                21.9001

                     67                     68                     69
                      A                      A                      A
 Frequencies --   3046.0437              3051.2578              3061.4153
 Red. masses --      1.0371                 1.0392                 1.0391
 Frc consts  --      5.6694                 5.7003                 5.7378
 IR Inten    --     12.0508                36.6565                26.1344

                     70                     71                     72
                      A                      A                      A
 Frequencies --   3078.3302              3080.1841              3106.3690
 Red. masses --      1.0640                 1.0658                 1.1012
 Frc consts  --      5.9403                 5.9579                 6.2605
 IR Inten    --     16.3708                10.1644                10.7353

                     73                     74                     75
                      A                      A                      A
 Frequencies --   3115.5705              3117.0530              3122.1785
 Red. masses --      1.1021                 1.1015                 1.1015
 Frc consts  --      6.3032                 6.3057                 6.3262
 IR Inten    --     31.2604                52.7572                32.0315

                     76                     77                     78
                      A                      A                      A
 Frequencies --   3142.7616              3150.1927              3162.0628
 Red. masses --      1.1000                 1.0979                 1.0996
 Frc consts  --      6.4015                 6.4192                 6.4780
 IR Inten    --     15.4984                12.5912                 4.9198

                     79                     80                     81
                      A                      A                      A
 Frequencies --   3165.2019              3690.1983              3692.2339
 Red. masses --      1.0980                 1.0639                 1.0638
 Frc consts  --      6.4813                 8.5357                 8.5443
 IR Inten    --      3.4499                17.2906                96.3272

 - Thermochemistry -
 -------------------
 Temperature   298.150 Kelvin.  Pressure   1.00000 Atm.
 Atom     1 has atomic number  6 and mass  12.00000

 Molecular mass:   188.10486 amu.
 Principal axes and moments of inertia in atomic units:
                           1         2         3
     Eigenvalues --  1852.890232350.229152885.28235
           X            0.99984   0.01636  -0.00760
           Y           -0.01605   0.99910   0.03929
           Z            0.00823  -0.03917   0.99920
 This molecule is an asymmetric top.
 Rotational symmetry number  1.
 Warning -- assumption of classical behavior for rotation
           may cause significant error
 Rotational temperatures (Kelvin)      0.04675     0.03685     0.03002
 Rotational constants (GHZ):           0.97401     0.76790     0.62550
 Zero-point vibrational energy     657583.5 (Joules/Mol)
                                  157.16622 (Kcal/Mol)
 Warning -- explicit consideration of  23 degrees of freedom as
           vibrations may cause significant error
 Vibrational temperatures:    112.08   128.91   154.94   201.44   207.75
          (Kelvin)            218.77   261.46   357.37   384.39   394.59
                              422.68   430.20   482.94   485.90   557.11
                              598.76   617.05   664.03   674.15   750.72
                              793.66   829.43   868.71   894.50   979.18
                             1100.78  1133.03  1232.06  1284.35  1291.20
                             1325.39  1349.49  1376.60  1393.85  1428.51
                             1491.31  1524.55  1588.91  1625.18  1646.39
                             1720.23  1735.90  1791.63  1798.83  1849.80
                             1892.58  1900.42  1947.86  1980.46  1990.48
                             2027.10  2062.58  2067.09  2090.67  2104.27
                             2167.98  2173.41  2190.74  2196.90  2208.76
                             2213.99  2229.63  2236.26  2620.14  2627.91
                             4344.02  4382.58  4390.08  4404.69  4429.03
                             4431.70  4469.37  4482.61  4484.74  4492.12
                             4521.73  4532.42  4549.50  4554.02  5309.37
                             5312.30

 Zero-point correction=                           0.250460 (Hartree/Particle)
 Thermal correction to Energy=                    0.264375
 Thermal correction to Enthalpy=                  0.265319
 Thermal correction to Gibbs Free Energy=         0.211369
 Sum of electronic and zero-point Energies=           -653.323793
 Sum of electronic and thermal Energies=              -653.309878
 Sum of electronic and thermal Enthalpies=            -653.308934
 Sum of electronic and thermal Free Energies=         -653.362884

                     E (Thermal)             CV                S
                      KCal/Mol        Cal/Mol-Kelvin    Cal/Mol-Kelvin
 Total                  165.898             53.620            113.547
 Electronic               0.000              0.000              0.000
 Translational            0.889              2.981             41.601
 Rotational               0.889              2.981             30.908
 Vibrational            164.121             47.659             41.038
 Vibration     1          0.599              1.964              3.943
 Vibration     2          0.602              1.957              3.669
 Vibration     3          0.606              1.943              3.310
 Vibration     4          0.615              1.913              2.804
 Vibration     5          0.616              1.909              2.745
 Vibration     6          0.619              1.900              2.646
 Vibration     7          0.630              1.865              2.311
 Vibration     8          0.662              1.765              1.742
 Vibration     9          0.672              1.733              1.614
 Vibration    10          0.677              1.721              1.569
 Vibration    11          0.689              1.685              1.452
 Vibration    12          0.692              1.676              1.422
 Vibration    13          0.717              1.604              1.233
 Vibration    14          0.718              1.600              1.223
 Vibration    15          0.756              1.497              1.011
 Vibration    16          0.779              1.435              0.905
 Vibration    17          0.790              1.407              0.862
 Vibration    18          0.819              1.335              0.762
 Vibration    19          0.826              1.320              0.742
 Vibration    20          0.877              1.202              0.606
 Vibration    21          0.907              1.136              0.541
 Vibration    22          0.933              1.082              0.492
 Vibration    23          0.962              1.024              0.443

 Optimization completed.
    -- Stationary point found.

 1\1\GINC-NODE104\Freq\RB3LYP\6-31G(d)\C9H16O4\VSC10255\09-Dec-2020\0\\
 #N Geom=AllCheck Guess=TCheck SCRF=Check GenChk RB3LYP/6-31G(d) Freq\\
 CID_18688622_JID_3504_neutraal\\0,1\C,1.0307972441,-0.0410666302,0.124
 6455625\C,0.5589585511,-1.1037522204,-0.8786874107\C,1.3815430438,-2.4
 218981521,-0.7398139829\C,1.2407728357,-3.1795031104,0.5566960552\O,0.
 520713626,-4.1434889001,0.7331862517\O,2.0128769334,-2.6616340328,1.53
 54240559\C,-1.0061604234,-1.2406604803,-0.9667696199\C,-1.5147165508,-
 0.0814504787,-1.853264683\C,-1.4193061273,-2.5616286779,-1.6376973703\

 Normal termination of Gaussian 16 at Wed Dec  9 23:44:44 2020.

 ----------------------------------------------------------------------
 # B3LYP/6-311++G(d,p) empiricaldispersion=gd3bj scf=xqc pop=npa geom=c
 heck
 ----------------------------------------------------------------------

 --------------------------------------
 CID_18688622_JID_3504_Energie_neutraal
 --------------------------------------
 Structure from the checkpoint file:  "JID_3504.chk"
 Charge =  0 Multiplicity = 1

 SCF Done:  E(RB3LYP) =  -653.781893738     A.U. after   14 cycles
 Normal termination of Gaussian 16 at Wed Dec  9 23:48:49 2020.

 ----------------------------------------------------------------------
 # B3LYP/6-311++G(d,p) empiricaldispersion=gd3bj scf=xqc pop=npa geom=c
 heck
 ----------------------------------------------------------------------

 ------------------------------------
 CID_18688622_JID_3504_Energie_kation
 ------------------------------------
 Structure from the checkpoint file:  "JID_3504.chk"
 Charge =  1 Multiplicity = 2

 SCF Done:  E(UB3LYP) =  -653.426831181     A.U. after   26 cycles
 Normal termination of Gaussian 16 at Wed Dec  9 23:59:37 2020.
 Gaussian 16:  ES64L-G16RevA.03 25-Dec-2016

 -----------------------------------
 CID_18688622_JID_3504_Energie_anion
 -----------------------------------
 Structure from the checkpoint file:  "JID_3504.chk"
 Charge = -1 Multiplicity = 2

                         Standard orientation:
 ---------------------------------------------------------------------
 Center     Atomic      Atomic             Coordinates (Angstroms)
 Number     Number       Type             X           Y           Z
 ---------------------------------------------------------------------
      1          6           0       -0.467298   -1.706410   -1.481202
      2          6           0       -0.752031   -1.384629   -0.006755
      3          6           0        0.504238   -1.636418    0.883093
      4          6           0        1.704252   -0.758001    0.631955
      5          8           0        2.002416    0.227137    1.279646
      6          8           0        2.434961   -1.182947   -0.420530
      7          6           0       -1.523658   -0.030182    0.208110
      8          6           0       -3.015109   -0.304509   -0.089534
      9          6           0       -1.416308    0.454600    1.663875
     10          6           0       -1.116331    1.113462   -0.778589
     11          6           0        0.309496    1.597343   -0.708956
     12          8           0        1.209294    1.241210   -1.445323
     13          8           0        0.497868    2.487453    0.288358
     14          1           0        0.265662   -1.022022   -1.912754
     15          1           0       -1.383616   -1.654288   -2.078731
     16          1           0       -0.070538   -2.722885   -1.575864
     17          1           0       -1.450019   -2.151680    0.356362
     18          1           0        0.241747   -1.529275    1.936412
     19          1           0        0.807380   -2.674858    0.711844
     20          1           0        3.074894   -0.472064   -0.613154
     21          1           0       -3.416537   -1.043264    0.613049
     22          1           0       -3.607470    0.611472    0.013899
     23          1           0       -3.166182   -0.686960   -1.104755
     24          1           0       -0.393613    0.714331    1.941856
     25          1           0       -2.040205    1.342921    1.812896
     26          1           0       -1.777438   -0.321864    2.349299
     27          1           0       -1.296330    0.791033   -1.805945
     28          1           0       -1.770894    1.966007   -0.569241
     29          1           0        1.463341    2.599033    0.375621
 ---------------------------------------------------------------------

 SCF Done:  E(UB3LYP) =  -653.768244821     A.U. after   33 cycles
 SCF Done:  E(UB3LYP) =  -653.768244821     a.u. after    1 cycles

 The electronic state is 2-A.
 Alpha  occ. eigenvalues --  -19.07020 -19.06529 -19.01440 -19.00802 -10.20521
 Alpha  occ. eigenvalues --  -10.19706 -10.09161 -10.07790 -10.07752 -10.07289
 Alpha  occ. eigenvalues --  -10.05073 -10.04652 -10.04532  -1.01237  -1.00465
 Alpha  occ. eigenvalues --   -0.92066  -0.91497  -0.73692  -0.67629  -0.62776
 Alpha  occ. eigenvalues --   -0.61068  -0.57722  -0.52799  -0.51621  -0.48870
 Alpha  occ. eigenvalues --   -0.43434  -0.40491  -0.39495  -0.38877  -0.37980
 Alpha  occ. eigenvalues --   -0.36759  -0.35353  -0.34153  -0.33326  -0.32208
 Alpha  occ. eigenvalues --   -0.31412  -0.30069  -0.29474  -0.28405  -0.27802
 Alpha  occ. eigenvalues --   -0.26952  -0.26583  -0.25374  -0.24862  -0.23558
 Alpha  occ. eigenvalues --   -0.22050  -0.21469  -0.21241  -0.20822  -0.18008
 Alpha  occ. eigenvalues --   -0.17451   0.04763
 Alpha virt. eigenvalues --    0.07360   0.07627   0.08313   0.08626   0.09603
 Alpha virt. eigenvalues --    0.10174   0.10249   0.10526   0.10822   0.11301
 Alpha virt. eigenvalues --    0.12479   0.13237   0.13856   0.14168   0.14588

  Beta  occ. eigenvalues --  -19.07015 -19.06518 -19.01420 -19.00752 -10.20501
  Beta  occ. eigenvalues --  -10.19643 -10.09162 -10.07766 -10.07727 -10.07271
  Beta  occ. eigenvalues --  -10.05026 -10.04626 -10.04506  -1.01204  -1.00408
  Beta  occ. eigenvalues --   -0.92035  -0.91428  -0.73657  -0.67566  -0.62718
  Beta  occ. eigenvalues --   -0.61002  -0.57642  -0.52719  -0.51574  -0.48805
  Beta  occ. eigenvalues --   -0.43364  -0.40418  -0.39433  -0.38779  -0.37908
  Beta  occ. eigenvalues --   -0.36698  -0.35306  -0.34078  -0.33272  -0.32146
  Beta  occ. eigenvalues --   -0.31330  -0.30027  -0.29424  -0.28369  -0.27766
  Beta  occ. eigenvalues --   -0.26910  -0.26545  -0.25326  -0.24820  -0.23465
  Beta  occ. eigenvalues --   -0.21967  -0.21406  -0.21198  -0.20736  -0.17977
  Beta  occ. eigenvalues --   -0.17398
  Beta virt. eigenvalues --    0.07121   0.08019   0.08316   0.08845   0.09256
  Beta virt. eigenvalues --    0.09979   0.10548   0.10813   0.11100   0.11250
  Beta virt. eigenvalues --    0.11858   0.13020   0.13665   0.14379   0.14507

 Mulliken charges and spin densities:
               1          2
     1  C    0.979986  -1.775016
     2  C    0.088518   0.393734
     3  C    0.223797  -0.752861
     4  C   -0.406359   0.218672
     5  O   -0.297044   0.030293
     6  O   -0.089110   0.017951
     7  C   -2.023831   2.580961
     8  C    1.524942  -2.008452
     9  C    0.936874  -1.673969
    10  C    0.971629  -1.244686
    11  C   -0.673462   0.254529
    12  O   -0.264703   0.021057
    13  O   -0.091352   0.025578
    14  H    0.135863   0.066535
    15  H   -0.142816   0.276117
    16  H   -0.097091   0.235209
    17  H   -0.637336   0.873313
    18  H    0.076299   0.114628
    19  H   -0.457043   0.679713
    20  H    0.145774   0.140568
    21  H   -0.359361   0.518756
    22  H   -0.184481   0.320898
    23  H   -0.287912   0.425344
    24  H    0.201376  -0.021584
    25  H   -0.000579   0.139570
    26  H   -0.333659   0.491957
    27  H    0.114049   0.089981
    28  H   -0.213812   0.430204
    29  H    0.160844   0.131000
 Sum of Mulliken charges =  -1.00000   1.00000

 Dipole moment (field-independent basis, Debye):
    X=              4.7246    Y=              3.9563    Z=             -0.9078  Tot=              6.2289
 Quadrupole moment (field-independent basis, Debye-Ang):
   XX=           -127.9971   YY=           -126.7039   ZZ=           -115.5195
   XY=             -2.9310   XZ=              0.4142   YZ=              2.7118

 Summary of Natural Population Analysis:

                                       Natural Population
                Natural  -----------------------------------------------
    Atom  No    Charge         Core      Valence    Rydberg      Total
 -----------------------------------------------------------------------
      C    1   -0.29220      0.99963     2.28584    0.00673     3.29220
      C    2   -0.10446      0.99955     2.08991    0.01501     3.10446
      C    3   -0.23942      0.99955     2.22925    0.01062     3.23942
      C    4    0.41577      0.99970     1.55801    0.02651     2.58423
      O    5   -0.31832      0.99987     3.31222    0.00624     4.31832
      O    6   -0.34225      0.99987     3.33618    0.00619     4.34225
      C    7   -0.03528      0.99956     2.02132    0.01441     3.03528
      C    8   -0.28164      0.99962     2.27404    0.00798     3.28164
      C    9   -0.29243      0.99961     2.28547    0.00735     3.29243
      C   10   -0.24294      0.99953     2.23254    0.01087     3.24294
      C   11    0.41387      0.99970     1.56006    0.02637     2.58613
      O   12   -0.31591      0.99987     3.30968    0.00637     4.31591
      O   13   -0.34229      0.99987     3.33623    0.00618     4.34229
      H   14    0.10897      0.00000     0.38950    0.00153     0.39103
      H   15    0.09891      0.00000     0.40004    0.00105     0.40109
      H   16    0.10208      0.00000     0.39695    0.00097     0.39792
      H   17    0.10567      0.00000     0.38969    0.00464     0.39433
      H   18    0.11449      0.00000     0.38410    0.00141     0.38551
      H   19    0.11529      0.00000     0.38269    0.00203     0.38471
      H   20    0.24117      0.00000     0.25589    0.00293     0.25883
      H   21    0.10399      0.00000     0.39424    0.00177     0.39601
      H   22    0.09968      0.00000     0.39892    0.00140     0.40032
      H   23    0.10116      0.00000     0.39735    0.00149     0.39884
      H   24    0.11219      0.00000     0.38627    0.00153     0.38781
      H   25    0.10028      0.00000     0.39874    0.00098     0.39972
      H   26    0.10123      0.00000     0.39762    0.00115     0.39877
      H   27    0.11456      0.00000     0.38428    0.00115     0.38544
      H   28    0.11439      0.00000     0.38406    0.00154     0.38561
      H   29    0.24344      0.00000     0.25378    0.00278     0.25656
 =======================================================================
   * Total *   -0.00000     12.99593    37.82489    0.17918    51.00000

 Normal termination of Gaussian 16 at Thu Dec 10 00:13:08 2020.
