 Gaussian 16, Revision A.03,

 -----------------------------------------------------------
 # opt freq B3LYP/6-31G(d) empiricaldispersion=gd3bj scf=xqc
 -----------------------------------------------------------

 ---------------------------
 CID_330948_JID_786_neutraal
 ---------------------------
 Symbolic Z-matrix:
 Charge =  0 Multiplicity = 1

 SCF Done:  E(RB3LYP) =  -493.439915266     A.U. after   15 cycles
 SCF Done:  E(RB3LYP) =  -493.446742011     A.U. after   13 cycles
 SCF Done:  E(RB3LYP) =  -493.447261033     A.U. after   11 cycles
 SCF Done:  E(RB3LYP) =  -493.447322949     A.U. after   12 cycles
 SCF Done:  E(RB3LYP) =  -493.447387274     A.U. after   11 cycles
 SCF Done:  E(RB3LYP) =  -493.447416359     A.U. after    9 cycles
 SCF Done:  E(RB3LYP) =  -493.447432159     A.U. after   11 cycles
 SCF Done:  E(RB3LYP) =  -493.447436745     A.U. after    9 cycles
 SCF Done:  E(RB3LYP) =  -493.447443856     A.U. after   10 cycles
 SCF Done:  E(RB3LYP) =  -493.447450699     A.U. after   11 cycles
 SCF Done:  E(RB3LYP) =  -493.447551174     A.U. after   10 cycles
 SCF Done:  E(RB3LYP) =  -493.447554031     A.U. after   10 cycles
 SCF Done:  E(RB3LYP) =  -493.447555611     A.U. after   10 cycles
 SCF Done:  E(RB3LYP) =  -493.447555852     A.U. after    8 cycles
 SCF Done:  E(RB3LYP) =  -493.447555932     A.U. after    7 cycles
 Optimization completed.
    -- Stationary point found.
 Normal termination of Gaussian 16 at Tue Dec  8 12:51:49 2020.

 --------------------------------------------------------------------
 #N Geom=AllCheck Guess=TCheck SCRF=Check GenChk RB3LYP/6-31G(d) Freq
 --------------------------------------------------------------------

 Structure from the checkpoint file:  "JID_786.chk"
 ---------------------------
 CID_330948_JID_786_neutraal
 ---------------------------
 Charge =  0 Multiplicity = 1

 SCF Done:  E(RB3LYP) =  -493.447555932     A.U. after    2 cycles

  Exact polarizability:  92.267  11.665  82.128   0.024   1.979  52.543
 Approx polarizability: 121.265  27.237 139.677   2.217   3.549  77.068

                      1                      2                      3
                      A                      A                      A
 Frequencies --     25.6281                60.4027               116.3477
 Red. masses --      4.1724                 3.2296                 3.8898
 Frc consts  --      0.0016                 0.0069                 0.0310
 IR Inten    --      0.4982                 1.3444                 4.8370

                      4                      5                      6
                      A                      A                      A
 Frequencies --    138.7498               167.0196               252.2382
 Red. masses --      4.1588                 2.9416                 3.4356
 Frc consts  --      0.0472                 0.0483                 0.1288
 IR Inten    --      1.1397                30.4216                 3.1217

                      7                      8                      9
                      A                      A                      A
 Frequencies --    335.9785               383.0141               413.9056
 Red. masses --      4.0324                 2.4317                 1.1987
 Frc consts  --      0.2682                 0.2102                 0.1210
 IR Inten    --     16.8058                 4.1220               115.0607

                     10                     11                     12
                      A                      A                      A
 Frequencies --    427.8367               574.2037               586.2632
 Red. masses --      2.5558                 2.7739                 3.6189
 Frc consts  --      0.2756                 0.5389                 0.7328
 IR Inten    --     12.0232                 0.8966                 1.4897

                     13                     14                     15
                      A                      A                      A
 Frequencies --    592.2017               669.7159               729.0386
 Red. masses --      3.8133                 3.6031                 5.7129
 Frc consts  --      0.7879                 0.9522                 1.7890
 IR Inten    --      7.5937                27.0935                29.8876

                     16                     17                     18
                      A                      A                      A
 Frequencies --    754.7208               795.6981               910.7501
 Red. masses --      9.7440                 3.4925                 1.6552
 Frc consts  --      3.2701                 1.3028                 0.8089
 IR Inten    --     20.1124                16.3511                12.7289

                     19                     20                     21
                      A                      A                      A
 Frequencies --    950.3892               958.8681              1023.3584
 Red. masses --      2.2211                 1.3683                 1.9700
 Frc consts  --      1.1820                 0.7412                 1.2155
 IR Inten    --      7.0708                36.0500                 4.1087

                     22                     23                     24
                      A                      A                      A
 Frequencies --   1035.1166              1045.5241              1079.2558
 Red. masses --      1.2173                 2.1415                 2.1134
 Frc consts  --      0.7685                 1.3792                 1.4504
 IR Inten    --      6.3391                13.8813                15.2565

                     25                     26                     27
                      A                      A                      A
 Frequencies --   1130.8201              1199.9525              1204.2394
 Red. masses --      2.9710                 2.7143                 1.1762
 Frc consts  --      2.2384                 2.3027                 1.0050
 IR Inten    --     47.8755                17.2696                 3.6857

                     28                     29                     30
                      A                      A                      A
 Frequencies --   1233.9859              1327.4279              1333.2589
 Red. masses --      2.3451                 1.3701                 1.6154
 Frc consts  --      2.1040                 1.4224                 1.6919
 IR Inten    --     50.7566                27.2631                30.0162

                     31                     32                     33
                      A                      A                      A
 Frequencies --   1376.1173              1388.1261              1432.0354
 Red. masses --      1.6417                 1.4016                 1.8819
 Frc consts  --      1.8317                 1.5912                 2.2739
 IR Inten    --     57.4957                58.0004                10.3184

                     34                     35                     36
                      A                      A                      A
 Frequencies --   1453.8369              1477.6366              1499.9290
 Red. masses --      2.8950                 1.3064                 1.1525
 Frc consts  --      3.6052                 1.6806                 1.5277
 IR Inten    --    208.4842                35.2765                46.9227

                     37                     38                     39
                      A                      A                      A
 Frequencies --   1524.9490              1738.1154              1827.1215
 Red. masses --      1.1093                 4.4958                11.8867
 Frc consts  --      1.5199                 8.0023                23.3802
 IR Inten    --     24.2306                 3.8583               688.1249

                     40                     41                     42
                      A                      A                      A
 Frequencies --   1884.5508              3055.1520              3085.6093
 Red. masses --     11.0552                 1.0617                 1.0612
 Frc consts  --     23.1331                 5.8385                 5.9531
 IR Inten    --    102.7513                22.9840                14.4874

                     43                     44                     45
                      A                      A                      A
 Frequencies --   3101.4736              3146.5169              3161.6127
 Red. masses --      1.1032                 1.1017                 1.0596
 Frc consts  --      6.2525                 6.4263                 6.2406
 IR Inten    --     11.8599                 0.3214                 8.4296

                     46                     47                     48
                      A                      A                      A
 Frequencies --   3177.6568              3244.1727              3659.7851
 Red. masses --      1.0938                 1.1164                 1.0789
 Frc consts  --      6.5074                 6.9225                 8.5138
 IR Inten    --      4.9960                14.2984                51.3841

 - Thermochemistry -
 -------------------
 Temperature   298.150 Kelvin.  Pressure   1.00000 Atm.
 Atom     1 has atomic number  6 and mass  12.00000

 Molecular mass:   140.05858 amu.
 Principal axes and moments of inertia in atomic units:
                           1         2         3
     Eigenvalues --   931.555891523.457572212.98004
           X            0.99995  -0.00998   0.00087
           Y            0.00998   0.99995   0.00058
           Z           -0.00088  -0.00057   1.00000
 This molecule is an asymmetric top.
 Rotational symmetry number  1.
 Warning -- assumption of classical behavior for rotation
           may cause significant error
 Rotational temperatures (Kelvin)      0.09298     0.05685     0.03914
 Rotational constants (GHZ):           1.93734     1.18464     0.81553
 Zero-point vibrational energy     374971.3 (Joules/Mol)
                                   89.62029 (Kcal/Mol)
 Warning -- explicit consideration of  13 degrees of freedom as
           vibrations may cause significant error
 Vibrational temperatures:     36.87    86.91   167.40   199.63   240.30
          (Kelvin)            362.91   483.40   551.07   595.52   615.56
                              826.15   843.50   852.05   963.57  1048.92
                             1085.87  1144.83  1310.37  1367.40  1379.60
                             1472.38  1489.30  1504.28  1552.81  1627.00
                             1726.46  1732.63  1775.43  1909.87  1918.26
                             1979.93  1997.20  2060.38  2091.75  2125.99
                             2158.06  2194.06  2500.76  2628.82  2711.45
                             4395.68  4439.50  4462.33  4527.14  4548.86
                             4571.94  4667.64  5265.61

 Zero-point correction=                           0.142819 (Hartree/Particle)
 Thermal correction to Energy=                    0.152405
 Thermal correction to Enthalpy=                  0.153349
 Thermal correction to Gibbs Free Energy=         0.106523
 Sum of electronic and zero-point Energies=           -493.304737
 Sum of electronic and thermal Energies=              -493.295151
 Sum of electronic and thermal Enthalpies=            -493.294207
 Sum of electronic and thermal Free Energies=         -493.341033

                     E (Thermal)             CV                S
                      KCal/Mol        Cal/Mol-Kelvin    Cal/Mol-Kelvin
 Total                   95.636             34.102             98.555
 Electronic               0.000              0.000              0.000
 Translational            0.889              2.981             40.722
 Rotational               0.889              2.981             29.531
 Vibrational             93.858             28.141             28.302
 Vibration     1          0.593              1.985              6.142
 Vibration     2          0.597              1.973              4.444
 Vibration     3          0.608              1.936              3.160
 Vibration     4          0.614              1.915              2.821
 Vibration     5          0.624              1.883              2.469
 Vibration     6          0.664              1.759              1.715
 Vibration     7          0.717              1.604              1.231
 Vibration     8          0.752              1.506              1.027
 Vibration     9          0.777              1.440              0.913
 Vibration    10          0.789              1.410              0.866
 Vibration    11          0.931              1.087              0.496
 Vibration    12          0.943              1.061              0.474
 Vibration    13          0.950              1.048              0.463

 Optimization completed.
    -- Stationary point found.
 Normal termination of Gaussian 16 at Tue Dec  8 13:06:17 2020.

 ----------------------------------------------------------------------
 # B3LYP/6-311++G(d,p) empiricaldispersion=gd3bj scf=xqc pop=npa geom=c
 heck
 ----------------------------------------------------------------------

 -----------------------------------
 CID_330948_JID_786_Energie_neutraal
 -----------------------------------
 Structure from the checkpoint file:  "JID_786.chk"
 Charge =  0 Multiplicity = 1

 SCF Done:  E(RB3LYP) =  -493.597645458     A.U. after   14 cycles
 Normal termination of Gaussian 16 at Tue Dec  8 13:11:45 2020.

 ----------------------------------------------------------------------
 # B3LYP/6-311++G(d,p) empiricaldispersion=gd3bj scf=xqc pop=npa geom=c
 heck
 ----------------------------------------------------------------------

 ---------------------------------
 CID_330948_JID_786_Energie_kation
 ---------------------------------
 Structure from the checkpoint file:  "JID_786.chk"
 Charge =  1 Multiplicity = 2

 SCF Done:  E(UB3LYP) =  -493.251808544     A.U. after   26 cycles
 Normal termination of Gaussian 16 at Tue Dec  8 13:17:05 2020.
 Gaussian 16:  ES64L-G16RevA.03 25-Dec-2016

 ----------------------------------------------------------------------
 # B3LYP/6-311++G(d,p) empiricaldispersion=gd3bj scf=xqc pop=npa geom=c
 heck
 ----------------------------------------------------------------------

 --------------------------------
 CID_330948_JID_786_Energie_anion
 --------------------------------
 Structure from the checkpoint file:  "JID_786.chk"
 Charge = -1 Multiplicity = 2

                         Standard orientation:
 ---------------------------------------------------------------------
 Center     Atomic      Atomic             Coordinates (Angstroms)
 Number     Number       Type             X           Y           Z
 ---------------------------------------------------------------------
      1          6           0        3.191650    0.157646   -0.642872
      2          6           0        2.181936   -0.643554   -0.309514
      3          6           0        1.249525   -0.370504    0.840436
      4          7           0       -0.109618   -0.094334    0.382223
      5          6           0       -1.034721   -1.060957    0.056817
      6          8           0       -0.890326   -2.263165    0.147563
      7          6           0       -2.275666   -0.307206   -0.435631
      8          7           0       -1.816545    1.068664   -0.452057
      9          6           0       -0.571271    1.213858    0.113002
     10          8           0        0.035082    2.238328    0.347228
     11          1           0        3.397766    1.071104   -0.089706
     12          1           0        3.846633   -0.065922   -1.480368
     13          1           0        1.975308   -1.548242   -0.879126
     14          1           0        1.186750   -1.235108    1.508569
     15          1           0        1.574489    0.503540    1.408669
     16          1           0       -3.108953   -0.478392    0.257997
     17          1           0       -2.567334   -0.673428   -1.425822
     18          1           0       -2.428287    1.869142   -0.503134
 ---------------------------------------------------------------------

 SCF Done:  E(UB3LYP) =  -493.585279358     A.U. after   33 cycles
 SCF Done:  E(UB3LYP) =  -493.585279358     a.u. after    1 cycles

 The electronic state is 2-A.
 Alpha  occ. eigenvalues --  -19.00701 -18.99540 -14.26111 -14.23326 -10.20301
 Alpha  occ. eigenvalues --  -10.18706 -10.12034 -10.11247 -10.08386 -10.07494
 Alpha  occ. eigenvalues --   -0.97325  -0.94635  -0.87379  -0.81146  -0.69881
 Alpha  occ. eigenvalues --   -0.63319  -0.60921  -0.53156  -0.49846  -0.46037
 Alpha  occ. eigenvalues --   -0.40850  -0.40160  -0.39750  -0.36316  -0.35504
 Alpha  occ. eigenvalues --   -0.34359  -0.33854  -0.31993  -0.30829  -0.29771
 Alpha  occ. eigenvalues --   -0.28217  -0.26579  -0.19625  -0.18089  -0.17668
 Alpha  occ. eigenvalues --   -0.16711  -0.15610   0.04956
 Alpha virt. eigenvalues --    0.07034   0.08076   0.08650   0.09085   0.09395
 Alpha virt. eigenvalues --    0.10422   0.10763   0.12045   0.12398   0.13556
 Alpha virt. eigenvalues --    0.15339   0.15613   0.16337   0.16906   0.17143

  Beta  occ. eigenvalues --  -19.00696 -18.99535 -14.26088 -14.23273 -10.20303
  Beta  occ. eigenvalues --  -10.18708 -10.12028 -10.11176 -10.08349 -10.07441
  Beta  occ. eigenvalues --   -0.97306  -0.94627  -0.87352  -0.81079  -0.69790
  Beta  occ. eigenvalues --   -0.63220  -0.60840  -0.53100  -0.49732  -0.45958
  Beta  occ. eigenvalues --   -0.40751  -0.40101  -0.39691  -0.36245  -0.35444
  Beta  occ. eigenvalues --   -0.34301  -0.33823  -0.31948  -0.30789  -0.29744
  Beta  occ. eigenvalues --   -0.28187  -0.26540  -0.19550  -0.17987  -0.17531
  Beta  occ. eigenvalues --   -0.16686  -0.15550
  Beta virt. eigenvalues --    0.07167   0.08246   0.08795   0.09079   0.09267
  Beta virt. eigenvalues --    0.09828   0.11342   0.11608   0.12468   0.12650
  Beta virt. eigenvalues --    0.13767   0.15372   0.15702   0.16570   0.17068

 Mulliken charges and spin densities:
               1          2
     1  C   -0.150870  -0.290940
     2  C   -0.269007   0.591338
     3  C    0.305075  -0.808857
     4  N    0.056320  -0.009265
     5  C   -0.493124   0.547136
     6  O   -0.400461   0.058840
     7  C    2.630006  -2.938083
     8  N   -0.491044   0.242574
     9  C    0.512476  -0.258461
    10  O   -0.417942   0.028546
    11  H    0.062515   0.056132
    12  H   -0.051798   0.161004
    13  H    0.001693   0.173757
    14  H    0.022129   0.163538
    15  H    0.063157   0.119930
    16  H   -0.913990   1.138393
    17  H   -0.777338   0.997065
    18  H   -0.687797   1.027351
 Sum of Mulliken charges =  -1.00000   1.00000

 Dipole moment (field-independent basis, Debye):
    X=              8.2040    Y=             -1.6760    Z=              1.4049  Tot=              8.4905
 Quadrupole moment (field-independent basis, Debye-Ang):
   XX=           -121.6452   YY=            -98.2105   ZZ=            -82.4371
   XY=              4.6874   XZ=             -3.2674   YZ=              0.3898

 Summary of Natural Population Analysis:

                                       Natural Population
                Natural  -----------------------------------------------
    Atom  No    Charge         Core      Valence    Rydberg      Total
 -----------------------------------------------------------------------
      C    1   -0.17598      0.99957     2.16949    0.00693     3.17598
      C    2   -0.08784      0.99956     2.07935    0.00893     3.08784
      C    3   -0.10571      0.99959     2.09416    0.01196     3.10571
      N    4   -0.26289      0.99959     2.75201    0.01129     3.76289
      C    5    0.35347      0.99966     1.62389    0.02298     2.64653
      O    6   -0.30827      0.99987     3.30216    0.00624     4.30827
      C    7   -0.12356      0.99960     2.11251    0.01144     3.12356
      N    8   -0.32153      0.99969     2.81096    0.01087     3.82153
      C    9    0.41536      0.99967     1.56106    0.02391     2.58464
      O   10   -0.32023      0.99987     3.31448    0.00588     4.32023
      H   11    0.09147      0.00000     0.40724    0.00129     0.40853
      H   12    0.09165      0.00000     0.40728    0.00108     0.40835
      H   13    0.09702      0.00000     0.40182    0.00116     0.40298
      H   14    0.10885      0.00000     0.38984    0.00131     0.39115
      H   15    0.11023      0.00000     0.38835    0.00142     0.38977
      H   16    0.11539      0.00000     0.37496    0.00965     0.38461
      H   17    0.11226      0.00000     0.38334    0.00440     0.38774
      H   18    0.21032      0.00000     0.26945    0.02023     0.28968
 =======================================================================
   * Total *    0.00000      9.99668    26.84236    0.16097    37.00000

 Normal termination of Gaussian 16 at Tue Dec  8 13:24:00 2020.
