 Gaussian 16, Revision A.03,

 -----------------------------------------------------------
 # opt freq B3LYP/6-31G(d) empiricaldispersion=gd3bj scf=xqc
 -----------------------------------------------------------

 ------------------------------
 CID_63030895_JID_7091_neutraal
 ------------------------------
 Symbolic Z-matrix:
 Charge =  0 Multiplicity = 1

 SCF Done:  E(RB3LYP) =  -1177.08069855     A.U. after   15 cycles
 SCF Done:  E(RB3LYP) =  -1177.08885642     A.U. after   13 cycles
 SCF Done:  E(RB3LYP) =  -1177.08779744     A.U. after   13 cycles
 SCF Done:  E(RB3LYP) =  -1177.09052769     A.U. after   12 cycles
 SCF Done:  E(RB3LYP) =  -1177.09096444     A.U. after   12 cycles
 SCF Done:  E(RB3LYP) =  -1177.09107631     A.U. after   12 cycles
 SCF Done:  E(RB3LYP) =  -1177.09126642     A.U. after   11 cycles
 SCF Done:  E(RB3LYP) =  -1177.09134529     A.U. after   11 cycles
 SCF Done:  E(RB3LYP) =  -1177.09136313     A.U. after    9 cycles
 SCF Done:  E(RB3LYP) =  -1177.09136925     A.U. after    9 cycles
 SCF Done:  E(RB3LYP) =  -1177.09138051     A.U. after   10 cycles
 SCF Done:  E(RB3LYP) =  -1177.09138108     A.U. after    8 cycles
 SCF Done:  E(RB3LYP) =  -1177.09138128     A.U. after    8 cycles
 SCF Done:  E(RB3LYP) =  -1177.09138139     A.U. after    7 cycles
 SCF Done:  E(RB3LYP) =  -1177.09138144     A.U. after    7 cycles
 Optimization completed.
    -- Stationary point found.
 Normal termination of Gaussian 16 at Mon Dec 14 16:45:42 2020.

 --------------------------------------------------------------------
 #N Geom=AllCheck Guess=TCheck SCRF=Check GenChk RB3LYP/6-31G(d) Freq
 --------------------------------------------------------------------

 Structure from the checkpoint file:  "JID_7091.chk"
 ------------------------------
 CID_63030895_JID_7091_neutraal
 ------------------------------
 Charge =  0 Multiplicity = 1

 SCF Done:  E(RB3LYP) =  -1177.09138144     A.U. after    1 cycles

  Exact polarizability: 203.211  -5.671 139.908   1.752   0.534 100.321
 Approx polarizability: 271.066 -13.083 253.202  -1.264  10.059 156.493

                      1                      2                      3
                      A                      A                      A
 Frequencies --     23.3836                35.5332                44.0560
 Red. masses --      6.9073                10.8203                 4.9285
 Frc consts  --      0.0022                 0.0080                 0.0056
 IR Inten    --      0.3370                 0.8433                 1.5394

                      4                      5                      6
                      A                      A                      A
 Frequencies --     60.7923                70.8387                92.9468
 Red. masses --      5.8400                 3.6241                 8.4944
 Frc consts  --      0.0127                 0.0107                 0.0432
 IR Inten    --      1.3960                 0.8350                 4.0662

                      7                      8                      9
                      A                      A                      A
 Frequencies --    175.5546               186.5482               202.2301
 Red. masses --      2.8806                 4.0231                 2.4034
 Frc consts  --      0.0523                 0.0825                 0.0579
 IR Inten    --      0.0989                 1.5886                 7.4099

                     10                     11                     12
                      A                      A                      A
 Frequencies --    220.1492               231.0362               260.6787
 Red. masses --      2.7896                 1.9058                 3.6376
 Frc consts  --      0.0797                 0.0599                 0.1456
 IR Inten    --      4.9421                 3.4870                 1.0157

                     13                     14                     15
                      A                      A                      A
 Frequencies --    266.5693               289.4222               303.7332
 Red. masses --      3.3263                 3.4431                 2.8986
 Frc consts  --      0.1393                 0.1699                 0.1576
 IR Inten    --      0.2968                 7.5250                 8.5670

                     16                     17                     18
                      A                      A                      A
 Frequencies --    318.1827               337.4784               391.3107
 Red. masses --      2.2088                 1.4089                 6.4188
 Frc consts  --      0.1318                 0.0945                 0.5791
 IR Inten    --      5.3784                38.4553                 3.6162

                     19                     20                     21
                      A                      A                      A
 Frequencies --    422.1455               452.4188               528.3202
 Red. masses --      5.4405                 5.2385                 1.8305
 Frc consts  --      0.5712                 0.6317                 0.3010
 IR Inten    --     17.9664                 4.4062               260.3349

                     22                     23                     24
                      A                      A                      A
 Frequencies --    536.5588               581.8098               593.6081
 Red. masses --      6.3821                 4.0124                 3.6406
 Frc consts  --      1.0825                 0.8002                 0.7558
 IR Inten    --      2.4080                34.9003                26.3459

                     25                     26                     27
                      A                      A                      A
 Frequencies --    618.7667               624.9865               642.7158
 Red. masses --      1.2225                 3.0434                 6.1434
 Frc consts  --      0.2758                 0.7004                 1.4952
 IR Inten    --     84.7939                60.4338                43.5747

                     28                     29                     30
                      A                      A                      A
 Frequencies --    662.2544               679.9204               688.5341
 Red. masses --      3.2321                 4.0851                 3.6524
 Frc consts  --      0.8352                 1.1127                 1.0202
 IR Inten    --     30.3254                 9.5317                 6.7976

                     31                     32                     33
                      A                      A                      A
 Frequencies --    741.6640               769.6016               796.6449
 Red. masses --      7.4370                 5.6390                 3.8191
 Frc consts  --      2.4103                 1.9678                 1.4280
 IR Inten    --     10.6646                36.7237                 7.0334

                     34                     35                     36
                      A                      A                      A
 Frequencies --    805.3528               881.9448               908.1922
 Red. masses --      4.5906                 2.5458                 2.7923
 Frc consts  --      1.7542                 1.1667                 1.3569
 IR Inten    --     15.1409                53.7405                 4.2710

                     37                     38                     39
                      A                      A                      A
 Frequencies --    938.8750               986.2163               999.3116
 Red. masses --      2.3960                 2.9569                 2.3037
 Frc consts  --      1.2444                 1.6944                 1.3554
 IR Inten    --      1.9595                23.0512                 5.0818

                     40                     41                     42
                      A                      A                      A
 Frequencies --   1009.1310              1043.0740              1056.1158
 Red. masses --      2.1673                 2.1714                 2.0652
 Frc consts  --      1.3004                 1.3920                 1.3571
 IR Inten    --      2.6111                20.4936                43.2250

                     43                     44                     45
                      A                      A                      A
 Frequencies --   1079.0491              1095.3872              1135.0864
 Red. masses --      1.5045                 2.4191                 1.8836
 Frc consts  --      1.0321                 1.7102                 1.4299
 IR Inten    --      1.4590                11.1932                13.8479

                     46                     47                     48
                      A                      A                      A
 Frequencies --   1173.0992              1177.4984              1221.1087
 Red. masses --      2.4713                 1.5934                 2.6207
 Frc consts  --      2.0038                 1.3017                 2.3024
 IR Inten    --     42.8203                88.0956                33.4925

                     49                     50                     51
                      A                      A                      A
 Frequencies --   1238.7582              1250.5617              1275.8351
 Red. masses --      1.4256                 1.5584                 1.7932
 Frc consts  --      1.2889                 1.4359                 1.7197
 IR Inten    --     34.1286                 5.8701               119.5510

                     52                     53                     54
                      A                      A                      A
 Frequencies --   1319.2833              1330.6291              1335.9762
 Red. masses --      1.3556                 1.2936                 3.9830
 Frc consts  --      1.3902                 1.3495                 4.1884
 IR Inten    --     10.5103                 0.6879                21.3292

                     55                     56                     57
                      A                      A                      A
 Frequencies --   1353.6029              1368.3533              1374.9352
 Red. masses --      1.3746                 3.4345                 2.2704
 Frc consts  --      1.4840                 3.7889                 2.5288
 IR Inten    --     11.1973               131.1909                34.8554

                     58                     59                     60
                      A                      A                      A
 Frequencies --   1383.6129              1399.7718              1436.3792
 Red. masses --      1.4358                 1.6194                 2.4585
 Frc consts  --      1.6195                 1.8695                 2.9886
 IR Inten    --     20.6559                22.4344               399.2696

                     61                     62                     63
                      A                      A                      A
 Frequencies --   1445.0224              1507.2896              1519.0470
 Red. masses --      1.8386                 1.2077                 1.0626
 Frc consts  --      2.2619                 1.6166                 1.4446
 IR Inten    --    149.2577                46.8006                11.9507

                     64                     65                     66
                      A                      A                      A
 Frequencies --   1523.8718              1533.4862              1551.3094
 Red. masses --      1.0825                 1.0793                 1.1539
 Frc consts  --      1.4811                 1.4954                 1.6361
 IR Inten    --      3.5466                 5.9109                13.8558

                     67                     68                     69
                      A                      A                      A
 Frequencies --   1569.4030              1596.4070              1673.8638
 Red. masses --      3.5458                 4.1939                 1.3395
 Frc consts  --      5.1456                 6.2973                 2.2112
 IR Inten    --    187.5683                44.7673               200.0383

                     70                     71                     72
                      A                      A                      A
 Frequencies --   1727.2697              1851.1007              3001.4965
 Red. masses --     12.0246                 9.5493                 1.0756
 Frc consts  --     21.1369                19.2788                 5.7093
 IR Inten    --    278.3777               362.7788                49.5694

                     73                     74                     75
                      A                      A                      A
 Frequencies --   3029.9488              3046.6528              3097.3923
 Red. masses --      1.0735                 1.0449                 1.0600
 Frc consts  --      5.8068                 5.7145                 5.9916
 IR Inten    --     44.9653                18.3230                21.0333

                     76                     77                     78
                      A                      A                      A
 Frequencies --   3107.2500              3131.7591              3146.4795
 Red. masses --      1.0929                 1.0928                 1.1006
 Frc consts  --      6.2172                 6.3149                 6.4198
 IR Inten    --     13.9583                 6.1837                21.7696

                     79                     80                     81
                      A                      A                      A
 Frequencies --   3151.0528              3166.2882              3183.0333
 Red. masses --      1.0925                 1.1007                 1.0893
 Frc consts  --      6.3912                 6.5017                 6.5025
 IR Inten    --      8.7098                 2.1028                11.5633

                     82                     83                     84
                      A                      A                      A
 Frequencies --   3562.3597              3672.7805              3689.6548
 Red. masses --      1.0469                 1.1003                 1.0642
 Frc consts  --      7.8278                 8.7445                 8.5355
 IR Inten    --     55.7491                29.6167                55.7820

 - Thermochemistry -
 -------------------
 Temperature   298.150 Kelvin.  Pressure   1.00000 Atm.
 Atom     1 has atomic number  6 and mass  12.00000

 Molecular mass:   255.06776 amu.
 Principal axes and moments of inertia in atomic units:
                           1         2         3
     Eigenvalues --  1688.008538283.872388937.26591
           X            0.99996  -0.00662   0.00605
           Y            0.00673   0.99980  -0.01879
           Z           -0.00593   0.01883   0.99981
 This molecule is an asymmetric top.
 Rotational symmetry number  1.
 Warning -- assumption of classical behavior for rotation
           may cause significant error
 Rotational temperatures (Kelvin)      0.05131     0.01046     0.00969
 Rotational constants (GHZ):           1.06915     0.21786     0.20193
 Zero-point vibrational energy     621530.3 (Joules/Mol)
                                  148.54931 (Kcal/Mol)
 Warning -- explicit consideration of  25 degrees of freedom as
           vibrations may cause significant error
 Vibrational temperatures:     33.64    51.12    63.39    87.47   101.92
          (Kelvin)            133.73   252.58   268.40   290.96   316.75
                              332.41   375.06   383.53   416.41   437.00
                              457.79   485.56   563.01   607.37   650.93
                              760.13   771.99   837.09   854.07   890.27
                              899.22   924.72   952.84   978.25   990.65
                             1067.09  1107.29  1146.19  1158.72  1268.92
                             1306.69  1350.83  1418.95  1437.79  1451.91
                             1500.75  1519.52  1552.51  1576.02  1633.14
                             1687.83  1694.16  1756.90  1782.30  1799.28
                             1835.64  1898.15  1914.48  1922.17  1947.53
                             1968.76  1978.23  1990.71  2013.96  2066.63
                             2079.07  2168.65  2185.57  2192.51  2206.34
                             2231.99  2258.02  2296.87  2408.32  2485.16
                             2663.32  4318.48  4359.42  4383.45  4456.46
                             4470.64  4505.90  4527.08  4533.66  4555.58
                             4579.67  5125.44  5284.31  5308.59

 Zero-point correction=                           0.236728 (Hartree/Particle)
 Thermal correction to Energy=                    0.253220
 Thermal correction to Enthalpy=                  0.254164
 Thermal correction to Gibbs Free Energy=         0.190758
 Sum of electronic and zero-point Energies=          -1176.854653
 Sum of electronic and thermal Energies=             -1176.838162
 Sum of electronic and thermal Enthalpies=           -1176.837218
 Sum of electronic and thermal Free Energies=        -1176.900624

                     E (Thermal)             CV                S
                      KCal/Mol        Cal/Mol-Kelvin    Cal/Mol-Kelvin
 Total                  158.898             61.030            133.449
 Electronic               0.000              0.000              0.000
 Translational            0.889              2.981             42.509
 Rotational               0.889              2.981             33.191
 Vibrational            157.120             55.068             57.749
 Vibration     1          0.593              1.985              6.324
 Vibration     2          0.594              1.982              5.494
 Vibration     3          0.595              1.980              5.068
 Vibration     4          0.597              1.973              4.431
 Vibration     5          0.598              1.968              4.130
 Vibration     6          0.602              1.954              3.597
 Vibration     7          0.628              1.872              2.375
 Vibration     8          0.632              1.858              2.262
 Vibration     9          0.639              1.837              2.113
 Vibration    10          0.647              1.810              1.958
 Vibration    11          0.653              1.794              1.871
 Vibration    12          0.669              1.745              1.657
 Vibration    13          0.672              1.734              1.618
 Vibration    14          0.686              1.693              1.477
 Vibration    15          0.695              1.667              1.396
 Vibration    16          0.705              1.639              1.319
 Vibration    17          0.718              1.601              1.224
 Vibration    18          0.759              1.489              0.995
 Vibration    19          0.784              1.422              0.885
 Vibration    20          0.811              1.356              0.788
 Vibration    21          0.883              1.187              0.591
 Vibration    22          0.892              1.169              0.573
 Vibration    23          0.939              1.071              0.482
 Vibration    24          0.951              1.045              0.461
 Vibration    25          0.979              0.992              0.418

                           ! Non-Optimized Parameters !
 Normal termination of Gaussian 16 at Mon Dec 14 16:57:28 2020.

 ----------------------------------------------------------------------
 # B3LYP/6-311++G(d,p) empiricaldispersion=gd3bj scf=xqc pop=npa geom=c
 heck
 ----------------------------------------------------------------------

 --------------------------------------
 CID_63030895_JID_7091_Energie_neutraal
 --------------------------------------
 Structure from the checkpoint file:  "JID_7091.chk"
 Charge =  0 Multiplicity = 1

 SCF Done:  E(RB3LYP) =  -1177.35215208     A.U. after   16 cycles
 Normal termination of Gaussian 16 at Mon Dec 14 17:03:18 2020.

 ----------------------------------------------------------------------
 # B3LYP/6-311++G(d,p) empiricaldispersion=gd3bj scf=xqc pop=npa geom=c
 heck
 ----------------------------------------------------------------------

 ------------------------------------
 CID_63030895_JID_7091_Energie_kation
 ------------------------------------
 Structure from the checkpoint file:  "JID_7091.chk"
 Charge =  1 Multiplicity = 2

 SCF Done:  E(UB3LYP) =  -1177.06106478     A.U. after   30 cycles
 Normal termination of Gaussian 16 at Mon Dec 14 17:19:01 2020.
 Gaussian 16:  ES64L-G16RevA.03 25-Dec-2016

 ----------------------------------------------------------------------
 # B3LYP/6-311++G(d,p) empiricaldispersion=gd3bj scf=xqc pop=npa geom=c
 heck
 ----------------------------------------------------------------------

 -----------------------------------
 CID_63030895_JID_7091_Energie_anion
 -----------------------------------
 Structure from the checkpoint file:  "JID_7091.chk"
 Charge = -1 Multiplicity = 2

                         Standard orientation:
 ---------------------------------------------------------------------
 Center     Atomic      Atomic             Coordinates (Angstroms)
 Number     Number       Type             X           Y           Z
 ---------------------------------------------------------------------
      1          6           0       -0.610795    2.097674   -0.306806
      2          6           0       -1.666381    1.044902   -0.140008
      3          6           0       -1.470985   -0.316509   -0.112774
      4         16           0       -3.026655   -1.142053   -0.055005
      5          6           0       -3.793978    0.439728   -0.015382
      6          7           0       -2.980635    1.461422   -0.076579
      7          7           0       -5.151602    0.570147    0.140294
      8          6           0       -0.255471   -1.134285   -0.310912
      9          8           0       -0.257884   -2.137719   -1.022699
     10          7           0        0.892969   -0.690203    0.302279
     11          6           0        0.989174   -0.046345    1.610557
     12          6           0        2.426282    0.499012    1.623413
     13          6           0        3.219729   -0.420751    0.640242
     14          6           0        2.150799   -1.370790    0.034372
     15          6           0        3.930673    0.371693   -0.433493
     16          8           0        5.120178    0.353311   -0.655099
     17          8           0        3.067847    1.129627   -1.162835
     18          1           0       -0.925813    2.801826   -1.083724
     19          1           0       -0.488696    2.679036    0.616435
     20          1           0        0.353980    1.667963   -0.582282
     21          1           0       -5.486829    1.504733   -0.060767
     22          1           0       -5.732770   -0.166584   -0.236405
     23          1           0        0.849350   -0.792342    2.408775
     24          1           0        0.232774    0.725186    1.737233
     25          1           0        2.435014    1.531128    1.265756
     26          1           0        2.860318    0.485626    2.626001
     27          1           0        3.993539   -0.990665    1.155784
     28          1           0        2.258034   -1.544000   -1.037041
     29          1           0        2.187948   -2.349120    0.534160
     30          1           0        3.609102    1.582765   -1.835997
 ---------------------------------------------------------------------

 SCF Done:  E(UB3LYP) =  -1177.35134043     A.U. after   33 cycles
 SCF Done:  E(UB3LYP) =  -1177.35134043     a.u. after    1 cycles

 The electronic state is 2-A.
 Alpha  occ. eigenvalues --  -88.76107 -19.09040 -19.03708 -18.96999 -14.23242
 Alpha  occ. eigenvalues --  -14.22854 -14.19094 -10.22543 -10.15557 -10.15443
 Alpha  occ. eigenvalues --  -10.11524 -10.11265 -10.10945 -10.09771 -10.09315
 Alpha  occ. eigenvalues --  -10.08047 -10.06542  -7.84743  -5.81051  -5.80702
 Alpha  occ. eigenvalues --   -5.80274  -1.03086  -0.94210  -0.92595  -0.87045
 Alpha  occ. eigenvalues --   -0.84540  -0.79822  -0.71762  -0.68494  -0.66119
 Alpha  occ. eigenvalues --   -0.65483  -0.59723  -0.56564  -0.54206  -0.51279
 Alpha  occ. eigenvalues --   -0.49589  -0.46321  -0.45861  -0.42681  -0.41906
 Alpha  occ. eigenvalues --   -0.40377  -0.40108  -0.38275  -0.37494  -0.35588
 Alpha  occ. eigenvalues --   -0.34300  -0.33326  -0.32919  -0.32309  -0.31838
 Alpha  occ. eigenvalues --   -0.30951  -0.29754  -0.28771  -0.28452  -0.28242
 Alpha  occ. eigenvalues --   -0.27591  -0.26666  -0.25949  -0.24591  -0.24141
 Alpha  occ. eigenvalues --   -0.20958  -0.20037  -0.17756  -0.16593  -0.15049
 Alpha  occ. eigenvalues --   -0.13690  -0.10590   0.03654
 Alpha virt. eigenvalues --    0.05300   0.06132   0.06866   0.07408   0.08099
 Alpha virt. eigenvalues --    0.08979   0.09274   0.09810   0.10703   0.11237
 Alpha virt. eigenvalues --    0.11536   0.12045   0.12521   0.12786   0.13142

  Beta  occ. eigenvalues --  -88.76088 -19.09018 -19.03699 -18.96848 -14.23249
  Beta  occ. eigenvalues --  -14.22767 -14.19148 -10.22539 -10.15426 -10.15296
  Beta  occ. eigenvalues --  -10.11520 -10.11242 -10.10933 -10.09629 -10.09291
  Beta  occ. eigenvalues --  -10.08019 -10.06549  -7.84723  -5.81032  -5.80691
  Beta  occ. eigenvalues --   -5.80232  -1.03054  -0.94182  -0.92352  -0.86909
  Beta  occ. eigenvalues --   -0.84454  -0.79701  -0.71691  -0.68419  -0.66010
  Beta  occ. eigenvalues --   -0.65388  -0.59589  -0.56464  -0.54093  -0.51163
  Beta  occ. eigenvalues --   -0.49453  -0.46151  -0.45798  -0.42574  -0.41850
  Beta  occ. eigenvalues --   -0.40317  -0.39978  -0.38224  -0.37455  -0.35474
  Beta  occ. eigenvalues --   -0.34090  -0.33207  -0.32799  -0.32202  -0.31751
  Beta  occ. eigenvalues --   -0.30817  -0.29563  -0.28636  -0.28401  -0.28129
  Beta  occ. eigenvalues --   -0.27461  -0.26345  -0.25838  -0.24557  -0.23977
  Beta  occ. eigenvalues --   -0.20641  -0.19999  -0.17728  -0.16454  -0.14869
  Beta  occ. eigenvalues --   -0.13458  -0.10115
  Beta virt. eigenvalues --    0.05762   0.06741   0.07046   0.07344   0.08040
  Beta virt. eigenvalues --    0.08458   0.09225   0.09578   0.10219   0.10687
  Beta virt. eigenvalues --    0.11304   0.11617   0.12234   0.12610   0.13160

 Mulliken charges and spin densities:
               1          2
     1  C   -0.945363  -0.030172
     2  C   -1.406527   0.308255
     3  C    2.481366  -0.223549
     4  S   -0.475513   0.181207
     5  C    0.569429  -0.272744
     6  N    0.079030  -0.110746
     7  N   -0.352324   0.104433
     8  C   -0.618572  -0.331817
     9  O   -0.322705   0.053162
    10  N    0.198166  -0.028772
    11  C   -0.192026  -0.064046
    12  C    0.162770  -0.817228
    13  C    0.150323   0.205670
    14  C   -0.062862  -0.237150
    15  C    0.014977  -0.261822
    16  O   -0.283811   0.011467
    17  O   -0.193811  -0.012002
    18  H    0.156904   0.006838
    19  H    0.030534   0.140294
    20  H    0.275034  -0.096696
    21  H    0.011980   0.239340
    22  H   -0.371947   0.637140
    23  H   -0.099108   0.292821
    24  H    0.199135  -0.039760
    25  H    0.109159   0.060603
    26  H   -0.358099   0.528521
    27  H   -0.107604   0.396082
    28  H    0.174537   0.041445
    29  H    0.069250   0.116577
    30  H    0.107681   0.202650
 Sum of Mulliken charges =  -1.00000   1.00000

 Dipole moment (field-independent basis, Debye):
    X=              3.6260    Y=              2.3541    Z=              0.1275  Tot=              4.3250
 Quadrupole moment (field-independent basis, Debye-Ang):
   XX=           -207.1903   YY=           -134.6162   ZZ=           -132.4605
   XY=              1.1738   XZ=             -7.3733   YZ=             -4.3669

 Summary of Natural Population Analysis:

                                       Natural Population
                Natural  -----------------------------------------------
    Atom  No    Charge         Core      Valence    Rydberg      Total
 -----------------------------------------------------------------------
      C    1   -0.30336      0.99962     2.29848    0.00526     3.30336
      C    2    0.10917      0.99946     1.87950    0.01187     2.89083
      C    3   -0.15897      0.99938     2.14917    0.01042     3.15897
      S    4    0.18423      4.99943     2.79660    0.01973     7.81577
      C    5    0.15785      0.99963     1.82148    0.02104     2.84215
      N    6   -0.29575      0.99963     2.78485    0.01127     3.79575
      N    7   -0.39543      0.99969     2.88407    0.01167     3.89543
      C    8    0.34616      0.99956     1.63197    0.02231     2.65384
      O    9   -0.30800      0.99988     3.30342    0.00470     4.30800
      N   10   -0.26409      0.99964     2.75450    0.00995     3.76409
      C   11   -0.08080      0.99962     2.07088    0.01030     3.08080
      C   12   -0.18883      0.99962     2.18072    0.00849     3.18883
      C   13   -0.15958      0.99955     2.14830    0.01174     3.15958
      C   14   -0.07824      0.99962     2.06597    0.01265     3.07824
      C   15    0.41223      0.99968     1.56313    0.02496     2.58777
      O   16   -0.30698      0.99987     3.30079    0.00632     4.30698
      O   17   -0.34669      0.99987     3.34010    0.00672     4.34669
      H   18    0.10700      0.00000     0.39185    0.00116     0.39300
      H   19    0.10209      0.00000     0.39655    0.00136     0.39791
      H   20    0.11195      0.00000     0.38658    0.00148     0.38805
      H   21    0.19306      0.00000     0.30389    0.00304     0.30694
      H   22    0.19525      0.00000     0.29716    0.00759     0.30475
      H   23    0.08940      0.00000     0.40920    0.00140     0.41060
      H   24    0.10804      0.00000     0.39062    0.00135     0.39196
      H   25    0.10377      0.00000     0.39458    0.00165     0.39623
      H   26    0.10532      0.00000     0.39322    0.00147     0.39468
      H   27    0.11428      0.00000     0.38438    0.00133     0.38572
      H   28    0.11103      0.00000     0.38796    0.00101     0.38897
      H   29    0.09652      0.00000     0.40233    0.00115     0.40348
      H   30    0.23937      0.00000     0.25662    0.00401     0.26063
 =======================================================================
   * Total *    0.00000     20.99374    45.76885    0.23740    67.00000

 Normal termination of Gaussian 16 at Mon Dec 14 17:36:25 2020.
