 Gaussian 16, Revision A.03,

 -----------------------------------------------------------
 # opt freq B3LYP/6-31G(d) empiricaldispersion=gd3bj scf=xqc
 -----------------------------------------------------------

 -------------------------------
 CID_152799560_JID_4056_neutraal
 -------------------------------
 Symbolic Z-matrix:
 Charge =  0 Multiplicity = 1

 SCF Done:  E(RB3LYP) =  -673.821714388     A.U. after   14 cycles
 SCF Done:  E(RB3LYP) =  -673.834341763     A.U. after   14 cycles
 SCF Done:  E(RB3LYP) =  -673.836183176     A.U. after   13 cycles
 SCF Done:  E(RB3LYP) =  -673.836803022     A.U. after   13 cycles
 SCF Done:  E(RB3LYP) =  -673.837042943     A.U. after   12 cycles
 SCF Done:  E(RB3LYP) =  -673.837126795     A.U. after   11 cycles
 SCF Done:  E(RB3LYP) =  -673.837152352     A.U. after   11 cycles
 SCF Done:  E(RB3LYP) =  -673.837160213     A.U. after   10 cycles
 SCF Done:  E(RB3LYP) =  -673.837164903     A.U. after    8 cycles
 SCF Done:  E(RB3LYP) =  -673.837168759     A.U. after    9 cycles
 SCF Done:  E(RB3LYP) =  -673.837172952     A.U. after    9 cycles
 SCF Done:  E(RB3LYP) =  -673.837174467     A.U. after    9 cycles
 SCF Done:  E(RB3LYP) =  -673.837177000     A.U. after    9 cycles
 SCF Done:  E(RB3LYP) =  -673.837179492     A.U. after    9 cycles
 SCF Done:  E(RB3LYP) =  -673.837180554     A.U. after    9 cycles
 SCF Done:  E(RB3LYP) =  -673.837180913     A.U. after    8 cycles
 Optimization completed.
    -- Stationary point found.

 1\1\GINC-NODE365\FOpt\RB3LYP\6-31G(d)\C6H12N8\VSC10255\10-Dec-2020\0\\
 # opt freq B3LYP/6-31G(d) empiricaldispersion=gd3bj scf=xqc\\CID_15279
 9560_JID_4056_neutraal\\0,1\C,0.5519430088,-0.3364824073,0.1150852493\
 C,0.3765041519,0.7214406138,1.1693922579\N,-0.1831302913,1.8810818157,
 0.9984891648\N,-0.6460206003,2.1561159546,-0.2704815057\C,-1.270597937
 1,3.3055567374,-0.303727453\N,-1.6058179172,4.0599522407,0.7942638535\
 N,-1.6436108804,3.8173414611,-1.5300580124\C,0.861022378,0.4769171623,
 2.5184043164\N,1.4404252986,-0.6328750973,2.8273817941\N,1.819904045,-

 Normal termination of Gaussian 16 at Thu Dec 10 09:15:37 2020.

 --------------------------------------------------------------------
 #N Geom=AllCheck Guess=TCheck SCRF=Check GenChk RB3LYP/6-31G(d) Freq
 --------------------------------------------------------------------

 Structure from the checkpoint file:  "JID_4056.chk"
 -------------------------------
 CID_152799560_JID_4056_neutraal
 -------------------------------
 Charge =  0 Multiplicity = 1

 SCF Done:  E(RB3LYP) =  -673.837180913     A.U. after    1 cycles

  Exact polarizability: 322.136  12.655 124.272  -0.377  -1.045  54.384
 Approx polarizability: 449.034  46.517 194.821  -3.416  -0.453  84.509

                      1                      2                      3
                      A                      A                      A
 Frequencies --     30.8952                52.3683                56.4901
 Red. masses --      4.7325                 4.1808                 4.7359
 Frc consts  --      0.0027                 0.0068                 0.0089
 IR Inten    --      2.7558                 0.6733                 0.8950

                      4                      5                      6
                      A                      A                      A
 Frequencies --     68.1527                79.3163               107.4854
 Red. masses --      1.1557                 2.6218                 5.4525
 Frc consts  --      0.0032                 0.0097                 0.0371
 IR Inten    --      1.2831                 3.7588                 4.4151

                      7                      8                      9
                      A                      A                      A
 Frequencies --    126.4810               145.0392               210.0566
 Red. masses --      3.8348                 4.3232                 4.0742
 Frc consts  --      0.0361                 0.0536                 0.1059
 IR Inten    --      3.5600                 1.3203                 7.3091

                     10                     11                     12
                      A                      A                      A
 Frequencies --    216.3014               259.6295               312.4681
 Red. masses --      3.9950                 4.0236                 3.3604
 Frc consts  --      0.1101                 0.1598                 0.1933
 IR Inten    --      6.5152                 9.6636                12.4002

                     13                     14                     15
                      A                      A                      A
 Frequencies --    323.0141               370.3019               417.6255
 Red. masses --      3.4430                 3.4076                 1.1605
 Frc consts  --      0.2117                 0.2753                 0.1192
 IR Inten    --      0.4233                 3.3523               168.4801

                     16                     17                     18
                      A                      A                      A
 Frequencies --    429.9780               441.0070               457.8814
 Red. masses --      2.2660                 3.6880                 1.3064
 Frc consts  --      0.2468                 0.4226                 0.1614
 IR Inten    --      4.2373                15.7904               413.0547

                     19                     20                     21
                      A                      A                      A
 Frequencies --    475.8993               487.6318               509.0667
 Red. masses --      1.5156                 2.2166                 2.3304
 Frc consts  --      0.2022                 0.3105                 0.3558
 IR Inten    --     27.2758                23.8657                14.6943

                     22                     23                     24
                      A                      A                      A
 Frequencies --    556.4669               571.9672               604.1053
 Red. masses --      3.4675                 2.4456                 2.0801
 Frc consts  --      0.6326                 0.4714                 0.4473
 IR Inten    --      5.0141                37.8709                57.7721

                     25                     26                     27
                      A                      A                      A
 Frequencies --    630.2133               651.5466               667.5865
 Red. masses --      1.9379                 3.2302                 2.3719
 Frc consts  --      0.4535                 0.8079                 0.6228
 IR Inten    --    131.1629                28.6506                22.0970

                     28                     29                     30
                      A                      A                      A
 Frequencies --    709.7975               730.9775               794.3569
 Red. masses --      1.3735                 3.8455                 2.1807
 Frc consts  --      0.4077                 1.2106                 0.8107
 IR Inten    --    588.6611                19.2065               236.0677

                     31                     32                     33
                      A                      A                      A
 Frequencies --    823.7024               876.1244               931.9392
 Red. masses --      2.4613                 3.8771                 3.0334
 Frc consts  --      0.9839                 1.7534                 1.5522
 IR Inten    --     15.2766                10.2203                22.3483

                     34                     35                     36
                      A                      A                      A
 Frequencies --    977.7461               991.5799              1049.7397
 Red. masses --      3.7564                 1.4340                 1.7753
 Frc consts  --      2.1158                 0.8307                 1.1526
 IR Inten    --     75.3785                 9.4314                 8.8079

                     37                     38                     39
                      A                      A                      A
 Frequencies --   1072.5225              1075.3575              1085.1833
 Red. masses --      1.5917                 2.8428                 1.6294
 Frc consts  --      1.0788                 1.9369                 1.1306
 IR Inten    --      2.0841                25.1235                52.5915

                     40                     41                     42
                      A                      A                      A
 Frequencies --   1111.2482              1141.8961              1155.6201
 Red. masses --      2.2398                 1.6160                 2.2183
 Frc consts  --      1.6296                 1.2415                 1.7454
 IR Inten    --      6.3069                 7.3537                 5.2524

                     43                     44                     45
                      A                      A                      A
 Frequencies --   1211.9958              1242.8270              1306.3932
 Red. masses --      2.5098                 1.6018                 1.5490
 Frc consts  --      2.1722                 1.4578                 1.5576
 IR Inten    --    122.9975                 1.4070                29.1990

                     46                     47                     48
                      A                      A                      A
 Frequencies --   1381.0711              1413.2003              1424.2308
 Red. masses --      2.9858                 1.9893                 1.7700
 Frc consts  --      3.3554                 2.3408                 2.1154
 IR Inten    --     16.1554                19.1754                34.9010

                     49                     50                     51
                      A                      A                      A
 Frequencies --   1489.6894              1505.4152              1510.8012
 Red. masses --      1.7858                 1.4513                 1.2619
 Frc consts  --      2.3349                 1.9378                 1.6971
 IR Inten    --     57.8540                44.3624                19.8209

                     52                     53                     54
                      A                      A                      A
 Frequencies --   1515.5573              1569.6079              1595.6971
 Red. masses --      1.0494                 1.9495                 2.0721
 Frc consts  --      1.4202                 2.8298                 3.1085
 IR Inten    --      7.9807               144.1551               582.4496

                     55                     56                     57
                      A                      A                      A
 Frequencies --   1650.2332              1652.1192              1662.0179
 Red. masses --      2.4763                 2.6440                 1.5410
 Frc consts  --      3.9733                 4.2520                 2.5080
 IR Inten    --    181.5324               113.9033               301.3222

                     58                     59                     60
                      A                      A                      A
 Frequencies --   1682.5034              1714.5381              1733.3538
 Red. masses --      4.6472                 2.8374                 6.1091
 Frc consts  --      7.7509                 4.9143                10.8144
 IR Inten    --    625.2569               472.1120                80.9152

                     61                     62                     63
                      A                      A                      A
 Frequencies --   3062.3422              3092.8039              3112.0190
 Red. masses --      1.0394                 1.0547                 1.0996
 Frc consts  --      5.7428                 5.9438                 6.2745
 IR Inten    --     14.9665                23.0015                14.1380

                     64                     65                     66
                      A                      A                      A
 Frequencies --   3126.2251              3187.4167              3191.3168
 Red. masses --      1.0883                 1.0990                 1.1183
 Frc consts  --      6.2669                 6.5784                 6.7107
 IR Inten    --     14.3441                 5.1911                27.0867

                     67                     68                     69
                      A                      A                      A
 Frequencies --   3516.1800              3544.0156              3565.9148
 Red. masses --      1.0487                 1.0475                 1.0455
 Frc consts  --      7.6389                 7.7519                 7.8329
 IR Inten    --     31.5590                23.3936                33.9865

                     70                     71                     72
                      A                      A                      A
 Frequencies --   3637.2350              3650.9486              3698.1982
 Red. masses --      1.0966                 1.0983                 1.1017
 Frc consts  --      8.5474                 8.6253                 8.8772
 IR Inten    --     42.5861                17.5858                63.0284

 - Thermochemistry -
 -------------------
 Temperature   298.150 Kelvin.  Pressure   1.00000 Atm.
 Atom     1 has atomic number  6 and mass  12.00000

 Molecular mass:   196.11849 amu.
 Principal axes and moments of inertia in atomic units:
                           1         2         3
     Eigenvalues --   824.323548564.633389346.28503
           X            1.00000  -0.00070   0.00138
           Y            0.00071   0.99995  -0.01025
           Z           -0.00137   0.01025   0.99995
 This molecule is an asymmetric top.
 Rotational symmetry number  1.
 Warning -- assumption of classical behavior for rotation
           may cause significant error
 Rotational temperatures (Kelvin)      0.10507     0.01011     0.00927
 Rotational constants (GHZ):           2.18936     0.21072     0.19310
 Zero-point vibrational energy     546888.6 (Joules/Mol)
                                  130.70951 (Kcal/Mol)
 Warning -- explicit consideration of  24 degrees of freedom as
           vibrations may cause significant error
 Vibrational temperatures:     44.45    75.35    81.28    98.06   114.12
          (Kelvin)            154.65   181.98   208.68   302.22   311.21
                              373.55   449.57   464.75   532.78   600.87
                              618.64   634.51   658.79   684.71   701.59
                              732.43   800.63   822.93   869.17   906.74
                              937.43   960.51  1021.24  1051.71  1142.90
                             1185.12  1260.55  1340.85  1406.76  1426.66
                             1510.34  1543.12  1547.20  1561.34  1598.84
                             1642.93  1662.68  1743.79  1788.15  1879.61
                             1987.05  2033.28  2049.15  2143.33  2165.96
                             2173.71  2180.55  2258.32  2295.85  2374.32
                             2377.03  2391.27  2420.75  2466.84  2493.91
                             4406.03  4449.85  4477.50  4497.94  4585.98
                             4591.59  5059.00  5099.05  5130.56  5233.17
                             5252.90  5320.88

 Zero-point correction=                           0.208299 (Hartree/Particle)
 Thermal correction to Energy=                    0.223524
 Thermal correction to Enthalpy=                  0.224469
 Thermal correction to Gibbs Free Energy=         0.164572
 Sum of electronic and zero-point Energies=           -673.628882
 Sum of electronic and thermal Energies=              -673.613656
 Sum of electronic and thermal Enthalpies=            -673.612712
 Sum of electronic and thermal Free Energies=         -673.672609

                     E (Thermal)             CV                S
                      KCal/Mol        Cal/Mol-Kelvin    Cal/Mol-Kelvin
 Total                  140.264             55.292            126.064
 Electronic               0.000              0.000              0.000
 Translational            0.889              2.981             41.726
 Rotational               0.889              2.981             32.556
 Vibrational            138.486             49.331             51.782
 Vibration     1          0.594              1.984              5.771
 Vibration     2          0.596              1.977              4.726
 Vibration     3          0.596              1.975              4.576
 Vibration     4          0.598              1.969              4.206
 Vibration     5          0.600              1.963              3.908
 Vibration     6          0.606              1.943              3.314
 Vibration     7          0.611              1.927              2.999
 Vibration     8          0.616              1.908              2.736
 Vibration     9          0.642              1.825              2.043
 Vibration    10          0.645              1.816              1.990
 Vibration    11          0.668              1.746              1.664
 Vibration    12          0.701              1.650              1.349
 Vibration    13          0.708              1.629              1.295
 Vibration    14          0.742              1.533              1.079
 Vibration    15          0.781              1.432              0.900
 Vibration    16          0.791              1.405              0.859
 Vibration    17          0.801              1.381              0.823
 Vibration    18          0.816              1.343              0.772
 Vibration    19          0.833              1.304              0.721
 Vibration    20          0.844              1.277              0.690
 Vibration    21          0.864              1.230              0.636
 Vibration    22          0.912              1.126              0.531
 Vibration    23          0.928              1.092              0.500
 Vibration    24          0.963              1.023              0.443

 Optimization completed.
    -- Stationary point found.

 1\1\GINC-NODE365\Freq\RB3LYP\6-31G(d)\C6H12N8\VSC10255\10-Dec-2020\0\\
 #N Geom=AllCheck Guess=TCheck SCRF=Check GenChk RB3LYP/6-31G(d) Freq\\
 CID_152799560_JID_4056_neutraal\\0,1\C,0.5519430088,-0.3364824073,0.11
 50852493\C,0.3765041519,0.7214406138,1.1693922579\N,-0.1831302913,1.88
 10818157,0.9984891648\N,-0.6460206003,2.1561159546,-0.2704815057\C,-1.
 2705979371,3.3055567374,-0.303727453\N,-1.6058179172,4.0599522407,0.79
 42638535\N,-1.6436108804,3.8173414611,-1.5300580124\C,0.861022378,0.47
 69171623,2.5184043164\N,1.4404252986,-0.6328750973,2.8273817941\N,1.81

 Normal termination of Gaussian 16 at Thu Dec 10 09:20:31 2020.

 ----------------------------------------------------------------------
 # B3LYP/6-311++G(d,p) empiricaldispersion=gd3bj scf=xqc pop=npa geom=c
 heck
 ----------------------------------------------------------------------

 ---------------------------------------
 CID_152799560_JID_4056_Energie_neutraal
 ---------------------------------------
 Structure from the checkpoint file:  "JID_4056.chk"
 Charge =  0 Multiplicity = 1

 SCF Done:  E(RB3LYP) =  -674.048829061     A.U. after   16 cycles
 Normal termination of Gaussian 16 at Thu Dec 10 09:22:34 2020.

 ----------------------------------------------------------------------
 # B3LYP/6-311++G(d,p) empiricaldispersion=gd3bj scf=xqc pop=npa geom=c
 heck
 ----------------------------------------------------------------------

 -------------------------------------
 CID_152799560_JID_4056_Energie_kation
 -------------------------------------
 Structure from the checkpoint file:  "JID_4056.chk"
 Charge =  1 Multiplicity = 2

 SCF Done:  E(UB3LYP) =  -673.786352056     A.U. after   21 cycles
 Normal termination of Gaussian 16 at Thu Dec 10 09:26:17 2020.
 Gaussian 16:  ES64L-G16RevA.03 25-Dec-2016

 ------------------------------------
 CID_152799560_JID_4056_Energie_anion
 ------------------------------------
 Structure from the checkpoint file:  "JID_4056.chk"
 Charge = -1 Multiplicity = 2

                         Standard orientation:
 ---------------------------------------------------------------------
 Center     Atomic      Atomic             Coordinates (Angstroms)
 Number     Number       Type             X           Y           Z
 ---------------------------------------------------------------------
      1          6           0       -0.874482    2.018248   -0.088149
      2          6           0       -0.912662    0.515705   -0.038664
      3          7           0       -1.983292   -0.216848    0.026794
      4          7           0       -3.185041    0.457544    0.061341
      5          6           0       -4.192793   -0.376718    0.032074
      6          7           0       -4.099839   -1.727469   -0.200096
      7          7           0       -5.464470    0.118952    0.237253
      8          6           0        0.332750   -0.234516   -0.061012
      9          7           0        1.471858    0.366776   -0.121809
     10          7           0        2.556757   -0.495938   -0.158381
     11          6           0        3.682161    0.151052   -0.032611
     12          7           0        3.813741    1.484592    0.209056
     13          7           0        4.914434   -0.522659   -0.152378
     14          6           0        4.962930   -1.740264    0.217962
     15          1           0       -1.885939    2.422292   -0.071116
     16          1           0       -0.354724    2.351938   -0.993023
     17          1           0       -0.305277    2.407996    0.763179
     18          1           0       -4.750123   -2.306113    0.316817
     19          1           0       -3.129544   -2.028984   -0.153241
     20          1           0       -5.475965    1.132326    0.245150
     21          1           0       -6.182145   -0.282840   -0.355090
     22          1           0        0.265057   -1.324540   -0.023377
     23          1           0        4.694623    1.907027   -0.044034
     24          1           0        2.962241    2.019681    0.087546
     25          1           0        4.108269   -2.267391    0.652256
     26          1           0        5.897073   -2.287085    0.084868
 ---------------------------------------------------------------------

 SCF Done:  E(UB3LYP) =  -674.067234720     A.U. after   27 cycles

 The electronic state is 2-A.
 Alpha  occ. eigenvalues --  -14.22517 -14.21697 -14.18419 -14.18323 -14.17590
 Alpha  occ. eigenvalues --  -14.17051 -14.16682 -14.15960 -10.14394 -10.10116
 Alpha  occ. eigenvalues --  -10.05790 -10.05508 -10.03276 -10.03131  -0.88752
 Alpha  occ. eigenvalues --   -0.85586  -0.82031  -0.79180  -0.77418  -0.74964
 Alpha  occ. eigenvalues --   -0.69581  -0.65096  -0.58466  -0.53267  -0.50824
 Alpha  occ. eigenvalues --   -0.47398  -0.43997  -0.42380  -0.41152  -0.39555
 Alpha  occ. eigenvalues --   -0.37638  -0.36314  -0.35434  -0.33483  -0.31715
 Alpha  occ. eigenvalues --   -0.30963  -0.30062  -0.29711  -0.28518  -0.26165
 Alpha  occ. eigenvalues --   -0.24473  -0.22793  -0.21648  -0.20624  -0.19408
 Alpha  occ. eigenvalues --   -0.17817  -0.17171  -0.12980  -0.11447  -0.10171
 Alpha  occ. eigenvalues --   -0.08727  -0.06731   0.03387
 Alpha virt. eigenvalues --    0.05987   0.08393   0.09125   0.09296   0.09933
 Alpha virt. eigenvalues --    0.10334   0.11532   0.12401   0.13057   0.13846
 Alpha virt. eigenvalues --    0.14400   0.15005   0.15325   0.16056   0.16410

  Beta  occ. eigenvalues --  -14.22484 -14.21685 -14.18428 -14.18338 -14.17211
  Beta  occ. eigenvalues --  -14.16859 -14.16665 -14.16079 -10.14184 -10.09826
  Beta  occ. eigenvalues --  -10.05742 -10.05086 -10.03137 -10.03077  -0.88527
  Beta  occ. eigenvalues --   -0.85313  -0.81715  -0.78834  -0.77361  -0.74716
  Beta  occ. eigenvalues --   -0.69400  -0.64924  -0.58298  -0.52580  -0.50415
  Beta  occ. eigenvalues --   -0.47120  -0.43824  -0.42196  -0.40906  -0.39324
  Beta  occ. eigenvalues --   -0.37470  -0.36086  -0.35357  -0.33247  -0.31485
  Beta  occ. eigenvalues --   -0.30565  -0.29586  -0.29419  -0.28245  -0.25631
  Beta  occ. eigenvalues --   -0.24228  -0.22341  -0.21030  -0.19904  -0.18938
  Beta  occ. eigenvalues --   -0.17579  -0.16102  -0.12801  -0.10950  -0.09948
  Beta  occ. eigenvalues --   -0.08584  -0.05786
  Beta virt. eigenvalues --    0.06006   0.08247   0.08952   0.09247   0.09851
  Beta virt. eigenvalues --    0.10338   0.11058   0.11658   0.12377   0.13106
  Beta virt. eigenvalues --    0.13832   0.14349   0.14998   0.15380   0.16421

 Mulliken charges and spin densities:
               1          2
     1  C   -0.539904  -0.012949
     2  C   -0.333178   0.033499
     3  N   -0.206401   0.168873
     4  N   -0.126811  -0.066266
     5  C    0.099198   0.074787
     6  N   -0.429596   0.015482
     7  N   -0.341373   0.011777
     8  C   -0.135884   0.158431
     9  N   -0.066520   0.109759
    10  N   -0.198682  -0.086197
    11  C    0.008635   0.153273
    12  N   -0.395438   0.046903
    13  N   -0.154540  -0.029613
    14  C   -0.297967   0.380770
    15  H    0.138657   0.000891
    16  H    0.139921   0.008653
    17  H    0.145640   0.001571
    18  H    0.223544   0.000293
    19  H    0.267443  -0.001912
    20  H    0.227079   0.008511
    21  H    0.165969   0.059605
    22  H    0.115312  -0.010220
    23  H    0.228507   0.005386
    24  H    0.271988   0.001332
    25  H    0.092319  -0.019018
    26  H    0.102083  -0.013620
 Sum of Mulliken charges =  -1.00000   1.00000

 Dipole moment (field-independent basis, Debye):
    X=             -6.6988    Y=              1.0209    Z=              0.1983  Tot=              6.7791
 Quadrupole moment (field-independent basis, Debye-Ang):
   XX=           -141.9360   YY=            -87.0704   ZZ=            -94.8288
   XY=             10.6129   XZ=              1.4777   YZ=             -3.3827

 Summary of Natural Population Analysis:

                                       Natural Population
                Natural  -----------------------------------------------
    Atom  No    Charge         Core      Valence    Rydberg      Total
 -----------------------------------------------------------------------
      C    1   -0.31795      0.99963     2.31327    0.00505     3.31795
      C    2    0.10782      0.99961     1.87764    0.01493     2.89218
      N    3   -0.12896      0.99962     2.61298    0.01636     3.62896
      N    4   -0.24956      0.99964     2.73366    0.01625     3.74956
      C    5    0.32602      0.99971     1.65799    0.01628     2.67398
      N    6   -0.41886      0.99970     2.90970    0.00946     3.91886
      N    7   -0.40807      0.99971     2.89833    0.01004     3.90807
      C    8    0.06277      0.99960     1.92146    0.01618     2.93723
      N    9   -0.15211      0.99965     2.63500    0.01746     3.65211
      N   10   -0.24470      0.99964     2.72867    0.01639     3.74470
      C   11    0.33298      0.99965     1.64781    0.01956     2.66702
      N   12   -0.39813      0.99969     2.88934    0.00911     3.89813
      N   13   -0.26475      0.99967     2.75091    0.01417     3.76475
      C   14    0.08171      0.99969     1.90639    0.01222     2.91829
      H   15    0.10772      0.00000     0.39129    0.00099     0.39228
      H   16    0.10459      0.00000     0.39420    0.00120     0.39541
      H   17    0.10431      0.00000     0.39452    0.00116     0.39569
      H   18    0.18173      0.00000     0.31656    0.00171     0.31827
      H   19    0.20762      0.00000     0.29050    0.00188     0.29238
      H   20    0.18983      0.00000     0.30720    0.00297     0.31017
      H   21    0.18020      0.00000     0.31703    0.00278     0.31980
      H   22    0.07436      0.00000     0.42190    0.00374     0.42564
      H   23    0.18785      0.00000     0.31072    0.00143     0.31215
      H   24    0.20011      0.00000     0.29848    0.00140     0.29989
      H   25    0.07102      0.00000     0.42681    0.00217     0.42898
      H   26    0.06245      0.00000     0.43585    0.00170     0.43755
 =======================================================================
   * Total *   -0.00000     13.99521    37.78820    0.21658    52.00000

 Normal termination of Gaussian 16 at Thu Dec 10 09:31:11 2020.
