 Gaussian 16, Revision A.03,

 -----------------------------------------------------------
 # opt freq B3LYP/6-31G(d) empiricaldispersion=gd3bj scf=xqc
 -----------------------------------------------------------

 -------------------------------
 CID_107690425_JID_8924_neutraal
 -------------------------------
 Symbolic Z-matrix:
 Charge =  0 Multiplicity = 1

 SCF Done:  E(RB3LYP) =  -841.441966330     A.U. after   15 cycles
 SCF Done:  E(RB3LYP) =  -841.448106793     A.U. after   13 cycles
 SCF Done:  E(RB3LYP) =  -841.446936737     A.U. after   13 cycles
 SCF Done:  E(RB3LYP) =  -841.449584139     A.U. after   12 cycles
 SCF Done:  E(RB3LYP) =  -841.451038428     A.U. after   13 cycles
 SCF Done:  E(RB3LYP) =  -841.451399605     A.U. after   12 cycles
 SCF Done:  E(RB3LYP) =  -841.451587014     A.U. after   12 cycles
 SCF Done:  E(RB3LYP) =  -841.451698718     A.U. after   11 cycles
 SCF Done:  E(RB3LYP) =  -841.451730663     A.U. after   10 cycles
 SCF Done:  E(RB3LYP) =  -841.451739014     A.U. after    9 cycles
 SCF Done:  E(RB3LYP) =  -841.451740782     A.U. after    8 cycles
 SCF Done:  E(RB3LYP) =  -841.451741360     A.U. after    8 cycles
 SCF Done:  E(RB3LYP) =  -841.451741615     A.U. after    8 cycles
 SCF Done:  E(RB3LYP) =  -841.451741710     A.U. after    7 cycles
 Optimization completed.
    -- Stationary point found.
 Normal termination of Gaussian 16 at Fri Dec 11 23:02:37 2020.

 --------------------------------------------------------------------
 #N Geom=AllCheck Guess=TCheck SCRF=Check GenChk RB3LYP/6-31G(d) Freq
 --------------------------------------------------------------------

 Structure from the checkpoint file:  "JID_8924.chk"
 -------------------------------
 CID_107690425_JID_8924_neutraal
 -------------------------------
 Charge =  0 Multiplicity = 1

 SCF Done:  E(RB3LYP) =  -841.451741710     A.U. after    1 cycles

  Exact polarizability: 178.579 -13.241 131.869   2.135  10.542 141.325
 Approx polarizability: 247.278 -24.159 200.825   6.221  24.166 242.649

                      1                      2                      3
                      A                      A                      A
 Frequencies --     39.7380                50.9588                59.4182
 Red. masses --      3.6759                 3.4854                 5.8854
 Frc consts  --      0.0034                 0.0053                 0.0122
 IR Inten    --      0.7179                 0.9102                 1.6449

                      4                      5                      6
                      A                      A                      A
 Frequencies --     69.1902                83.3542               102.8462
 Red. masses --      4.6133                 3.0412                 3.5716
 Frc consts  --      0.0130                 0.0124                 0.0223
 IR Inten    --      1.2829                 1.2166                 1.1485

                      7                      8                      9
                      A                      A                      A
 Frequencies --    143.4557               149.3018               181.8423
 Red. masses --      3.9646                 3.1567                 3.2593
 Frc consts  --      0.0481                 0.0415                 0.0635
 IR Inten    --      0.2491                 0.2225                 0.2299

                     10                     11                     12
                      A                      A                      A
 Frequencies --    194.2884               237.1912               243.6337
 Red. masses --      1.9418                 4.5354                 2.0155
 Frc consts  --      0.0432                 0.1503                 0.0705
 IR Inten    --      0.8480                 0.0752                 1.4658

                     13                     14                     15
                      A                      A                      A
 Frequencies --    261.1557               278.2936               310.9414
 Red. masses --      4.3996                 2.7166                 2.7417
 Frc consts  --      0.1768                 0.1240                 0.1562
 IR Inten    --     15.2530                 0.6533                 5.9598

                     16                     17                     18
                      A                      A                      A
 Frequencies --    342.7359               352.2615               354.9263
 Red. masses --      1.5425                 1.3986                 1.3235
 Frc consts  --      0.1068                 0.1023                 0.0982
 IR Inten    --    145.5502                12.9323                28.2439

                     19                     20                     21
                      A                      A                      A
 Frequencies --    389.8254               407.2023               428.5300
 Red. masses --      3.9916                 3.3358                 4.2743
 Frc consts  --      0.3574                 0.3259                 0.4625
 IR Inten    --     10.6465                 1.2568                 6.4585

                     22                     23                     24
                      A                      A                      A
 Frequencies --    458.5482               501.6772               516.8266
 Red. masses --      3.5300                 3.9904                 4.4139
 Frc consts  --      0.4373                 0.5917                 0.6946
 IR Inten    --     10.9116                21.1158                 2.7286

                     25                     26                     27
                      A                      A                      A
 Frequencies --    539.0544               573.2841               601.2404
 Red. masses --      8.0552                 2.9347                 2.9100
 Frc consts  --      1.3791                 0.5683                 0.6198
 IR Inten    --      2.5464                 4.0013                 4.6129

                     28                     29                     30
                      A                      A                      A
 Frequencies --    616.7083               623.5543               726.2396
 Red. masses --      4.4938                 4.3264                 2.2246
 Frc consts  --      1.0070                 0.9911                 0.6913
 IR Inten    --      4.7392                 0.4491                31.7257

                     31                     32                     33
                      A                      A                      A
 Frequencies --    730.7277               747.4192               766.3404
 Red. masses --      2.1169                 2.2331                 2.7210
 Frc consts  --      0.6660                 0.7350                 0.9415
 IR Inten    --     22.5505                21.1789                24.9482

                     34                     35                     36
                      A                      A                      A
 Frequencies --    780.8920               794.5292               825.6515
 Red. masses --      4.6440                 3.0084                 1.4711
 Frc consts  --      1.6685                 1.1189                 0.5908
 IR Inten    --     27.6050                17.6703                 0.6904

                     37                     38                     39
                      A                      A                      A
 Frequencies --    879.5539               905.3735               915.6891
 Red. masses --      1.8758                 1.8600                 2.7466
 Frc consts  --      0.8550                 0.8983                 1.3569
 IR Inten    --      2.3418                 1.7541                23.1704

                     40                     41                     42
                      A                      A                      A
 Frequencies --    933.2200               941.5837               953.4967
 Red. masses --      2.3217                 1.2646                 2.2356
 Frc consts  --      1.1913                 0.6606                 1.1975
 IR Inten    --      9.2557                 0.6754                 1.7503

                     43                     44                     45
                      A                      A                      A
 Frequencies --    973.2113               995.4868              1027.4965
 Red. masses --      2.5915                 1.6795                 2.1013
 Frc consts  --      1.4462                 0.9806                 1.3071
 IR Inten    --      5.4601                 0.8963                 6.8873

                     46                     47                     48
                      A                      A                      A
 Frequencies --   1034.3675              1067.7619              1104.7456
 Red. masses --      4.0879                 2.2030                 2.3220
 Frc consts  --      2.5769                 1.4798                 1.6697
 IR Inten    --    152.4859                 6.9714                 1.4566

                     49                     50                     51
                      A                      A                      A
 Frequencies --   1118.8827              1156.5051              1166.4165
 Red. masses --      1.6105                 2.0053                 1.7407
 Frc consts  --      1.1879                 1.5803                 1.3954
 IR Inten    --      8.5709                16.2759                 8.8529

                     52                     53                     54
                      A                      A                      A
 Frequencies --   1176.5656              1192.4134              1195.3057
 Red. masses --      1.7865                 2.1094                 1.1220
 Frc consts  --      1.4571                 1.7671                 0.9445
 IR Inten    --     20.3044                13.8022                 0.5805

                     55                     56                     57
                      A                      A                      A
 Frequencies --   1210.2669              1221.4988              1233.3908
 Red. masses --      1.6200                 2.6134                 1.5415
 Frc consts  --      1.3981                 2.2974                 1.3816
 IR Inten    --     30.2811                37.4861                 3.1780

                     58                     59                     60
                      A                      A                      A
 Frequencies --   1249.7493              1250.9607              1281.0850
 Red. masses --      1.7401                 1.7215                 1.4187
 Frc consts  --      1.6013                 1.5872                 1.3719
 IR Inten    --      8.0528                21.0430                25.1046

                     61                     62                     63
                      A                      A                      A
 Frequencies --   1322.1242              1323.6116              1341.6444
 Red. masses --      1.7991                 1.3690                 1.2902
 Frc consts  --      1.8529                 1.4131                 1.3683
 IR Inten    --    135.7645                26.0699                 5.2120

                     64                     65                     66
                      A                      A                      A
 Frequencies --   1347.2315              1353.4727              1375.6251
 Red. masses --      1.4189                 3.4161                 1.2810
 Frc consts  --      1.5174                 3.6870                 1.4282
 IR Inten    --      2.7219                19.8306                 2.9959

                     67                     68                     69
                      A                      A                      A
 Frequencies --   1382.0180              1388.4167              1392.6455
 Red. masses --      1.3613                 1.4948                 3.2205
 Frc consts  --      1.5319                 1.6977                 3.6800
 IR Inten    --      7.7807                11.5185               107.1826

                     70                     71                     72
                      A                      A                      A
 Frequencies --   1413.3082              1447.5469              1480.5233
 Red. masses --      1.2698                 6.8535                 1.1581
 Frc consts  --      1.4943                 8.4611                 1.4956
 IR Inten    --     23.0441               307.4126                 0.4175

                     73                     74                     75
                      A                      A                      A
 Frequencies --   1510.0280              1513.8725              1517.1269
 Red. masses --      2.2947                 1.1524                 1.1391
 Frc consts  --      3.0828                 1.5561                 1.5447
 IR Inten    --    115.8863                19.9191                 8.5476

                     76                     77                     78
                      A                      A                      A
 Frequencies --   1518.8267              1521.8705              1527.2100
 Red. masses --      1.1467                 1.1054                 1.1025
 Frc consts  --      1.5585                 1.5085                 1.5150
 IR Inten    --      4.0256                 2.1421                 0.6562

                     79                     80                     81
                      A                      A                      A
 Frequencies --   1549.0955              1551.9292              1561.7990
 Red. masses --      1.0701                 1.1018                 2.6881
 Frc consts  --      1.5130                 1.5635                 3.8632
 IR Inten    --      6.2507                 2.4574                 0.2456

                     82                     83                     84
                      A                      A                      A
 Frequencies --   1663.4597              1669.4111              1752.2215
 Red. masses --      6.2590                 6.6451                12.0963
 Frc consts  --     10.2041                10.9114                21.8817
 IR Inten    --     61.1012               100.4045               363.5067

                     85                     86                     87
                      A                      A                      A
 Frequencies --   2945.5461              3033.6229              3037.2320
 Red. masses --      1.0617                 1.0732                 1.0686
 Frc consts  --      5.4271                 5.8191                 5.8077
 IR Inten    --     70.7943                43.5271                16.9650

                     88                     89                     90
                      A                      A                      A
 Frequencies --   3047.8503              3058.4208              3063.6329
 Red. masses --      1.0713                 1.0784                 1.0712
 Frc consts  --      5.8637                 5.9433                 5.9236
 IR Inten    --     34.0413                27.0652                33.9626

                     91                     92                     93
                      A                      A                      A
 Frequencies --   3064.7513              3110.2150              3111.8734
 Red. masses --      1.0647                 1.0967                 1.0973
 Frc consts  --      5.8919                 6.2505                 6.2608
 IR Inten    --     50.0381                35.5282                 8.6111

                     94                     95                     96
                      A                      A                      A
 Frequencies --   3114.0788              3119.3786              3139.0821
 Red. masses --      1.1014                 1.1033                 1.0938
 Frc consts  --      6.2930                 6.3252                 6.3505
 IR Inten    --     34.2698                45.3257                11.5190

                     97                     98                     99
                      A                      A                      A
 Frequencies --   3178.7375              3184.0404              3210.4910
 Red. masses --      1.0878                 1.0903                 1.0955
 Frc consts  --      6.4762                 6.5124                 6.6531
 IR Inten    --      3.4328                18.8992                14.6683

                    100                    101                    102
                      A                      A                      A
 Frequencies --   3540.2452              3755.9134              3756.2650
 Red. masses --      1.0732                 1.0660                 1.0660
 Frc consts  --      7.9251                 8.8604                 8.8614
 IR Inten    --      9.7781                88.9537                14.6915

 - Thermochemistry -
 -------------------
 Temperature   298.150 Kelvin.  Pressure   1.00000 Atm.
 Atom     1 has atomic number  6 and mass  12.00000

 Molecular mass:   250.13174 amu.
 Principal axes and moments of inertia in atomic units:
                           1         2         3
     Eigenvalues --  3097.439204717.019575601.40326
           X            0.99999  -0.00390   0.00084
           Y            0.00389   0.99995   0.00922
           Z           -0.00088  -0.00922   0.99996
 This molecule is an asymmetric top.
 Rotational symmetry number  1.
 Warning -- assumption of classical behavior for rotation
           may cause significant error
 Rotational temperatures (Kelvin)      0.02796     0.01836     0.01546
 Rotational constants (GHZ):           0.58266     0.38260     0.32219
 Zero-point vibrational energy     798897.3 (Joules/Mol)
                                  190.94105 (Kcal/Mol)
 Warning -- explicit consideration of  28 degrees of freedom as
           vibrations may cause significant error
 Vibrational temperatures:     57.17    73.32    85.49    99.55   119.93
          (Kelvin)            147.97   206.40   214.81   261.63   279.54
                              341.27   350.53   375.74   400.40   447.38
                              493.12   506.83   510.66   560.87   585.87
                              616.56   659.75   721.80   743.60   775.58
                              824.83   865.05   887.31   897.16  1044.90
                             1051.35  1075.37  1102.59  1123.53  1143.15
                             1187.93  1265.48  1302.63  1317.47  1342.70
                             1354.73  1371.87  1400.23  1432.28  1478.34
                             1488.22  1536.27  1589.48  1609.82  1663.95
                             1678.21  1692.82  1715.62  1719.78  1741.30
                             1757.46  1774.57  1798.11  1799.85  1843.20
                             1902.24  1904.38  1930.33  1938.37  1947.35
                             1979.22  1988.42  1997.62  2003.71  2033.44
                             2082.70  2130.14  2172.59  2178.12  2182.81
                             2185.25  2189.63  2197.31  2228.80  2232.88
                             2247.08  2393.35  2401.91  2521.06  4237.98
                             4364.71  4369.90  4385.18  4400.39  4407.88
                             4409.49  4474.91  4477.29  4480.46  4488.09
                             4516.44  4573.49  4581.12  4619.18  5093.62
                             5403.92  5404.43

 Zero-point correction=                           0.304284 (Hartree/Particle)
 Thermal correction to Energy=                    0.321670
 Thermal correction to Enthalpy=                  0.322615
 Thermal correction to Gibbs Free Energy=         0.259096
 Sum of electronic and zero-point Energies=           -841.147458
 Sum of electronic and thermal Energies=              -841.130071
 Sum of electronic and thermal Enthalpies=            -841.129127
 Sum of electronic and thermal Free Energies=         -841.192646

                     E (Thermal)             CV                S
                      KCal/Mol        Cal/Mol-Kelvin    Cal/Mol-Kelvin
 Total                  201.851             66.493            133.687
 Electronic               0.000              0.000              0.000
 Translational            0.889              2.981             42.451
 Rotational               0.889              2.981             32.770
 Vibrational            200.074             60.531             58.466
 Vibration     1          0.594              1.981              5.272
 Vibration     2          0.595              1.977              4.780
 Vibration     3          0.597              1.974              4.476
 Vibration     4          0.598              1.969              4.176
 Vibration     5          0.600              1.961              3.810
 Vibration     6          0.605              1.947              3.400
 Vibration     7          0.616              1.910              2.757
 Vibration     8          0.618              1.903              2.681
 Vibration     9          0.630              1.864              2.309
 Vibration    10          0.635              1.848              2.187
 Vibration    11          0.656              1.784              1.824
 Vibration    12          0.659              1.773              1.776
 Vibration    13          0.669              1.744              1.654
 Vibration    14          0.679              1.714              1.544
 Vibration    15          0.700              1.653              1.357
 Vibration    16          0.722              1.590              1.199
 Vibration    17          0.729              1.571              1.156
 Vibration    18          0.731              1.565              1.144
 Vibration    19          0.758              1.492              1.001
 Vibration    20          0.772              1.455              0.937
 Vibration    21          0.790              1.408              0.863
 Vibration    22          0.817              1.342              0.770
 Vibration    23          0.857              1.246              0.654
 Vibration    24          0.872              1.213              0.617
 Vibration    25          0.894              1.164              0.567
 Vibration    26          0.930              1.089              0.498
 Vibration    27          0.959              1.029              0.448
 Vibration    28          0.976              0.997              0.422

 Optimization completed.
    -- Stationary point found.
 Normal termination of Gaussian 16 at Fri Dec 11 23:20:42 2020.

 ----------------------------------------------------------------------
 # B3LYP/6-311++G(d,p) empiricaldispersion=gd3bj scf=xqc pop=npa geom=c
 heck
 ----------------------------------------------------------------------

 ---------------------------------------
 CID_107690425_JID_8924_Energie_neutraal
 ---------------------------------------
 Structure from the checkpoint file:  "JID_8924.chk"
 Charge =  0 Multiplicity = 1

 SCF Done:  E(RB3LYP) =  -841.704503458     A.U. after   16 cycles
 Normal termination of Gaussian 16 at Fri Dec 11 23:27:45 2020.

 ----------------------------------------------------------------------
 # B3LYP/6-311++G(d,p) empiricaldispersion=gd3bj scf=xqc pop=npa geom=c
 heck
 ----------------------------------------------------------------------

 -------------------------------------
 CID_107690425_JID_8924_Energie_kation
 -------------------------------------
 Structure from the checkpoint file:  "JID_8924.chk"
 Charge =  1 Multiplicity = 2

 SCF Done:  E(UB3LYP) =  -841.422683559     A.U. after   30 cycles
 Normal termination of Gaussian 16 at Fri Dec 11 23:45:34 2020.
 Gaussian 16:  ES64L-G16RevA.03 25-Dec-2016

 ----------------------------------------------------------------------
 # B3LYP/6-311++G(d,p) empiricaldispersion=gd3bj scf=xqc pop=npa geom=c
 heck
 ----------------------------------------------------------------------

 ------------------------------------
 CID_107690425_JID_8924_Energie_anion
 ------------------------------------
 Structure from the checkpoint file:  "JID_8924.chk"
 Charge = -1 Multiplicity = 2

                         Standard orientation:
 ---------------------------------------------------------------------
 Center     Atomic      Atomic             Coordinates (Angstroms)
 Number     Number       Type             X           Y           Z
 ---------------------------------------------------------------------
      1          6           0       -0.027281    3.416186    0.025033
      2          7           0       -0.390486    2.288227   -0.819062
      3          6           0        0.732423    1.445552   -1.205174
      4          6           0        1.503511    0.717896   -0.059228
      5          6           0        3.010723    1.041064   -0.026330
      6          6           0        3.667969   -0.224027    0.536229
      7          6           0        2.842946   -1.338285   -0.113805
      8          7           0        1.497372   -0.757876   -0.172416
      9          6           0        0.410721   -1.568390   -0.063980
     10          8           0        0.483215   -2.792832   -0.097015
     11          6           0       -0.920692   -0.877323    0.117087
     12          6           0       -1.304494   -0.381434    1.367864
     13          6           0       -2.562790    0.196929    1.565085
     14          6           0       -3.452604    0.266239    0.494798
     15          6           0       -3.098330   -0.223491   -0.759774
     16          6           0       -1.835318   -0.798394   -0.939809
     17          8           0       -1.412199   -1.260388   -2.151097
     18          8           0       -0.376755   -0.462384    2.370896
     19          1           0        0.649467    4.079147   -0.528398
     20          1           0        0.474828    3.152166    0.975135
     21          1           0       -0.927626    3.988495    0.272219
     22          1           0       -1.101295    1.726832   -0.358456
     23          1           0        0.372506    0.692567   -1.912603
     24          1           0        1.435921    2.084762   -1.755186
     25          1           0        1.053444    0.992903    0.901841
     26          1           0        3.367533    1.218779   -1.049103
     27          1           0        3.215301    1.945505    0.554936
     28          1           0        4.735171   -0.296201    0.305984
     29          1           0        3.549654   -0.263472    1.625503
     30          1           0        3.206841   -1.571603   -1.123987
     31          1           0        2.810057   -2.271208    0.451924
     32          1           0       -2.839608    0.582480    2.543281
     33          1           0       -4.430623    0.715345    0.638498
     34          1           0       -3.788895   -0.154560   -1.596354
     35          1           0       -2.115858   -1.123558   -2.804003
     36          1           0       -0.769799   -0.121133    3.188877
 ---------------------------------------------------------------------

 SCF Done:  E(UB3LYP) =  -841.698558032     A.U. after   33 cycles
 SCF Done:  E(UB3LYP) =  -841.698558033     a.u. after    1 cycles

 The electronic state is 2-A.
 Alpha  occ. eigenvalues --  -19.06329 -19.05813 -18.98576 -14.24244 -14.19910
 Alpha  occ. eigenvalues --  -10.17410 -10.15044 -10.14920 -10.11674 -10.11280
 Alpha  occ. eigenvalues --  -10.09830 -10.09147 -10.09024 -10.09012 -10.08972
 Alpha  occ. eigenvalues --  -10.08527 -10.07833 -10.07639  -0.97641  -0.96984
 Alpha  occ. eigenvalues --   -0.93683  -0.85157  -0.80664  -0.76344  -0.70977
 Alpha  occ. eigenvalues --   -0.67470  -0.66127  -0.64608  -0.60063  -0.56598
 Alpha  occ. eigenvalues --   -0.54916  -0.53509  -0.51741  -0.50908  -0.47622
 Alpha  occ. eigenvalues --   -0.45544  -0.43618  -0.41900  -0.41448  -0.38841
 Alpha  occ. eigenvalues --   -0.37890  -0.37263  -0.36292  -0.35498  -0.33892
 Alpha  occ. eigenvalues --   -0.33706  -0.33436  -0.32382  -0.31540  -0.31062
 Alpha  occ. eigenvalues --   -0.30274  -0.29499  -0.29317  -0.28945  -0.28326
 Alpha  occ. eigenvalues --   -0.27128  -0.27026  -0.26115  -0.25757  -0.25185
 Alpha  occ. eigenvalues --   -0.24742  -0.22750  -0.16769  -0.15288  -0.14209
 Alpha  occ. eigenvalues --   -0.13393  -0.12425   0.03775
 Alpha virt. eigenvalues --    0.05586   0.06067   0.07330   0.07551   0.07712
 Alpha virt. eigenvalues --    0.08190   0.09104   0.09303   0.09842   0.10287
 Alpha virt. eigenvalues --    0.10433   0.11018   0.11604   0.12346   0.12512

  Beta  occ. eigenvalues --  -19.06297 -19.05756 -18.98574 -14.24244 -14.19905
  Beta  occ. eigenvalues --  -10.17410 -10.15043 -10.14921 -10.11667 -10.11278
  Beta  occ. eigenvalues --  -10.09827 -10.09126 -10.09016 -10.09004 -10.08964
  Beta  occ. eigenvalues --  -10.08519 -10.07809 -10.07605  -0.97576  -0.96879
  Beta  occ. eigenvalues --   -0.93677  -0.85152  -0.80653  -0.76308  -0.70965
  Beta  occ. eigenvalues --   -0.67441  -0.66105  -0.64557  -0.60039  -0.56578
  Beta  occ. eigenvalues --   -0.54823  -0.53485  -0.51722  -0.50882  -0.47508
  Beta  occ. eigenvalues --   -0.45523  -0.43580  -0.41859  -0.41414  -0.38813
  Beta  occ. eigenvalues --   -0.37849  -0.37209  -0.36273  -0.35486  -0.33874
  Beta  occ. eigenvalues --   -0.33656  -0.33419  -0.32357  -0.31527  -0.31042
  Beta  occ. eigenvalues --   -0.30237  -0.29483  -0.29262  -0.28929  -0.28283
  Beta  occ. eigenvalues --   -0.27108  -0.27009  -0.26085  -0.25739  -0.25165
  Beta  occ. eigenvalues --   -0.24728  -0.22719  -0.16759  -0.15282  -0.14197
  Beta  occ. eigenvalues --   -0.13367  -0.12410
  Beta virt. eigenvalues --    0.05881   0.06667   0.07242   0.07526   0.07683
  Beta virt. eigenvalues --    0.08226   0.08672   0.09199   0.09317   0.10172
  Beta virt. eigenvalues --    0.10394   0.10904   0.11032   0.11675   0.12434

 Mulliken charges and spin densities:
               1          2
     1  C    0.120408  -0.517321
     2  N    0.006592   0.047072
     3  C   -0.962960   0.132518
     4  C   -0.155383   0.230029
     5  C   -0.261893  -0.234468
     6  C   -0.012516  -0.425253
     7  C   -0.179724   0.028713
     8  N    0.402404  -0.046896
     9  C    1.646655  -2.011944
    10  O   -0.241743  -0.015802
    11  C    1.077619  -0.943220
    12  C   -0.610883   0.625934
    13  C   -1.256771   1.123188
    14  C    2.359981  -2.668323
    15  C   -1.323218   1.122102
    16  C   -0.393852   0.310535
    17  O   -0.154454  -0.005554
    18  O   -0.145346  -0.025381
    19  H    0.063814   0.065686
    20  H   -0.291285   0.436103
    21  H   -0.081635   0.231606
    22  H    0.527534  -0.289078
    23  H    0.227433   0.042122
    24  H    0.059457   0.079329
    25  H    0.588392  -0.355396
    26  H    0.117037   0.010031
    27  H   -0.014592   0.188819
    28  H    0.089068   0.079734
    29  H    0.017039   0.135855
    30  H    0.105600   0.048869
    31  H    0.198476  -0.005084
    32  H   -1.224812   1.403756
    33  H    0.131012   0.043401
    34  H   -0.878863   1.040376
    35  H   -0.125115   0.403119
    36  H   -0.423471   0.714823
 Sum of Mulliken charges =  -1.00000   1.00000

 Dipole moment (field-independent basis, Debye):
    X=              6.0297    Y=              0.7707    Z=             -3.6754  Tot=              7.1035
 Quadrupole moment (field-independent basis, Debye-Ang):
   XX=           -151.7311   YY=           -156.3194   ZZ=           -165.2612
   XY=              2.1685   XZ=             -1.0061   YZ=             -7.3607

 Summary of Natural Population Analysis:

                                       Natural Population
                Natural  -----------------------------------------------
    Atom  No    Charge         Core      Valence    Rydberg      Total
 -----------------------------------------------------------------------
      C    1   -0.18029      0.99966     2.17200    0.00863     3.18029
      N    2   -0.33975      0.99975     2.82870    0.01129     3.83975
      C    3   -0.09202      0.99960     2.08090    0.01152     3.09202
      C    4   -0.02007      0.99958     2.00819    0.01230     3.02007
      C    5   -0.19010      0.99962     2.18155    0.00893     3.19010
      C    6   -0.19501      0.99963     2.18865    0.00672     3.19501
      C    7   -0.08163      0.99963     2.07321    0.00880     3.08163
      N    8   -0.25199      0.99962     2.74318    0.00918     3.75199
      C    9    0.35256      0.99960     1.62397    0.02388     2.64744
      O   10   -0.31458      0.99988     3.30989    0.00481     4.31458
      C   11   -0.11200      0.99938     2.09899    0.01363     3.11200
      C   12    0.17109      0.99936     1.81490    0.01465     2.82891
      C   13   -0.15182      0.99951     2.14072    0.01159     3.15182
      C   14   -0.08292      0.99957     2.07318    0.01017     3.08292
      C   15   -0.15231      0.99951     2.14241    0.01039     3.15231
      C   16    0.17330      0.99936     1.81378    0.01355     2.82670
      O   17   -0.33508      0.99987     3.32852    0.00669     4.33508
      O   18   -0.33951      0.99988     3.33209    0.00754     4.33951
      H   19    0.08676      0.00000     0.41225    0.00098     0.41324
      H   20    0.08000      0.00000     0.41855    0.00145     0.42000
      H   21    0.09649      0.00000     0.40269    0.00082     0.40351
      H   22    0.17963      0.00000     0.31540    0.00496     0.32037
      H   23    0.10697      0.00000     0.39139    0.00164     0.39303
      H   24    0.08780      0.00000     0.41105    0.00115     0.41220
      H   25    0.10590      0.00000     0.39153    0.00257     0.39410
      H   26    0.09333      0.00000     0.40557    0.00110     0.40667
      H   27    0.10564      0.00000     0.39354    0.00082     0.39436
      H   28    0.09866      0.00000     0.40036    0.00097     0.40134
      H   29    0.10085      0.00000     0.39783    0.00131     0.39915
      H   30    0.08967      0.00000     0.40903    0.00131     0.41033
      H   31    0.10981      0.00000     0.38886    0.00133     0.39019
      H   32    0.10929      0.00000     0.38713    0.00357     0.39071
      H   33    0.10341      0.00000     0.39569    0.00090     0.39659
      H   34    0.10458      0.00000     0.39319    0.00222     0.39542
      H   35    0.23858      0.00000     0.25693    0.00449     0.26142
      H   36    0.24475      0.00000     0.24194    0.01330     0.25525
 =======================================================================
   * Total *   -0.00000     17.99303    48.76778    0.23919    67.00000

 Normal termination of Gaussian 16 at Sat Dec 12 00:05:02 2020.
