 Gaussian 16, Revision A.03,

 -----------------------------------------------------------
 # opt freq B3LYP/6-31G(d) empiricaldispersion=gd3bj scf=xqc
 -----------------------------------------------------------

 -------------------------------
 CID_129935333_JID_2138_neutraal
 -------------------------------
 Symbolic Z-matrix:
 Charge =  0 Multiplicity = 1

 SCF Done:  E(RB3LYP) =  -875.189626974     A.U. after   13 cycles
 SCF Done:  E(RB3LYP) =  -875.194848248     A.U. after   13 cycles
 SCF Done:  E(RB3LYP) =  -875.193247334     A.U. after   12 cycles
 SCF Done:  E(RB3LYP) =  -875.195241925     A.U. after   11 cycles
 SCF Done:  E(RB3LYP) =  -875.195756199     A.U. after   12 cycles
 SCF Done:  E(RB3LYP) =  -875.195856190     A.U. after   12 cycles
 SCF Done:  E(RB3LYP) =  -875.195955798     A.U. after   11 cycles
 SCF Done:  E(RB3LYP) =  -875.195969719     A.U. after   10 cycles
 SCF Done:  E(RB3LYP) =  -875.195974210     A.U. after    9 cycles
 SCF Done:  E(RB3LYP) =  -875.195976069     A.U. after    8 cycles
 SCF Done:  E(RB3LYP) =  -875.195977403     A.U. after    7 cycles
 SCF Done:  E(RB3LYP) =  -875.195977871     A.U. after    7 cycles
 SCF Done:  E(RB3LYP) =  -875.195978419     A.U. after    7 cycles
 SCF Done:  E(RB3LYP) =  -875.195979041     A.U. after    9 cycles
 SCF Done:  E(RB3LYP) =  -875.195979294     A.U. after    7 cycles
 Optimization completed.
    -- Stationary point found.
 Normal termination of Gaussian 16 at Wed Dec  9 16:53:28 2020.

 --------------------------------------------------------------------
 #N Geom=AllCheck Guess=TCheck SCRF=Check GenChk RB3LYP/6-31G(d) Freq
 --------------------------------------------------------------------

 Structure from the checkpoint file:  "JID_2138.chk"
 -------------------------------
 CID_129935333_JID_2138_neutraal
 -------------------------------
 Charge =  0 Multiplicity = 1

 SCF Done:  E(RB3LYP) =  -875.195979294     A.U. after    1 cycles

  Exact polarizability: 163.670   3.862 114.642 -10.168   2.384  85.638
 Approx polarizability: 239.567   9.665 183.417 -24.550   6.453 133.923

                      1                      2                      3
                      A                      A                      A
 Frequencies --     46.7921                62.2701                69.5875
 Red. masses --      2.9055                 4.0200                 1.3663
 Frc consts  --      0.0037                 0.0092                 0.0039
 IR Inten    --      0.0169                 0.6154                 0.4687

                      4                      5                      6
                      A                      A                      A
 Frequencies --    102.5700               144.2404               215.8342
 Red. masses --      2.0872                 4.7304                 3.6452
 Frc consts  --      0.0129                 0.0580                 0.1000
 IR Inten    --      0.1153                 0.8975                 6.0681

                      7                      8                      9
                      A                      A                      A
 Frequencies --    220.4004               262.0412               285.0113
 Red. masses --      3.9859                 1.0512                 1.2331
 Frc consts  --      0.1141                 0.0425                 0.0590
 IR Inten    --      0.4215                 0.4391                 2.3395

                     10                     11                     12
                      A                      A                      A
 Frequencies --    307.0976               313.2617               317.3045
 Red. masses --      2.0390                 1.6171                 2.5487
 Frc consts  --      0.1133                 0.0935                 0.1512
 IR Inten    --    162.7873               204.7437                 1.9537

                     13                     14                     15
                      A                      A                      A
 Frequencies --    335.4508               371.0496               388.2859
 Red. masses --      3.7133                 2.7243                 4.7873
 Frc consts  --      0.2462                 0.2210                 0.4252
 IR Inten    --      1.4470                 0.8862                 2.9553

                     16                     17                     18
                      A                      A                      A
 Frequencies --    459.5804               487.6874               499.3653
 Red. masses --      3.3427                 2.1404                 3.7216
 Frc consts  --      0.4160                 0.2999                 0.5468
 IR Inten    --      0.2859                11.5545                 3.4886

                     19                     20                     21
                      A                      A                      A
 Frequencies --    538.2265               574.0476               597.2134
 Red. masses --      1.2375                 6.0272                 3.8859
 Frc consts  --      0.2112                 1.1702                 0.8166
 IR Inten    --      1.2999                 3.9636                 4.2392

                     22                     23                     24
                      A                      A                      A
 Frequencies --    644.8306               692.0402               775.9235
 Red. masses --      3.8012                 7.3158                 5.5171
 Frc consts  --      0.9312                 2.0643                 1.9570
 IR Inten    --      2.0174                 0.5161                 3.1743

                     25                     26                     27
                      A                      A                      A
 Frequencies --    813.6605               902.2554               945.6027
 Red. masses --      9.8774                 2.5414                 1.1531
 Frc consts  --      3.8528                 1.2189                 0.6075
 IR Inten    --     26.8867                 1.3315                 1.2663

                     28                     29                     30
                      A                      A                      A
 Frequencies --    967.0246               972.9960               988.9762
 Red. masses --      1.4506                 3.2722                 1.4226
 Frc consts  --      0.7993                 1.8252                 0.8198
 IR Inten    --      0.1186                 0.2565                 2.4953

                     31                     32                     33
                      A                      A                      A
 Frequencies --   1028.6787              1070.6353              1082.5850
 Red. masses --      1.6442                 1.6043                 3.7169
 Frc consts  --      1.0251                 1.0835                 2.5666
 IR Inten    --      8.4455                 4.0349                 1.3543

                     34                     35                     36
                      A                      A                      A
 Frequencies --   1087.7892              1120.5397              1142.6133
 Red. masses --      1.3497                 2.5942                 2.2167
 Frc consts  --      0.9410                 1.9192                 1.7051
 IR Inten    --     18.3779                 0.6705                 0.9244

                     37                     38                     39
                      A                      A                      A
 Frequencies --   1201.1741              1259.9908              1294.8844
 Red. masses --      1.9050                 2.9217                 4.2979
 Frc consts  --      1.6194                 2.7329                 4.2459
 IR Inten    --      8.3772                 5.3590                 7.9404

                     40                     41                     42
                      A                      A                      A
 Frequencies --   1302.4693              1353.0148              1376.6513
 Red. masses --      1.2772                 1.3444                 2.2268
 Frc consts  --      1.2766                 1.4500                 2.4865
 IR Inten    --     42.7187                 0.6548                 3.5771

                     43                     44                     45
                      A                      A                      A
 Frequencies --   1424.5956              1427.1327              1444.6593
 Red. masses --      1.3639                 1.2622                 1.2270
 Frc consts  --      1.6308                 1.5146                 1.5087
 IR Inten    --      0.2868                 6.9271                 2.6374

                     46                     47                     48
                      A                      A                      A
 Frequencies --   1459.0543              1489.3525              1505.6985
 Red. masses --      2.7364                 1.9879                 1.0836
 Frc consts  --      3.4322                 2.5981                 1.4474
 IR Inten    --     30.0108                94.7530                13.3904

                     49                     50                     51
                      A                      A                      A
 Frequencies --   1510.7268              1514.4335              1523.9526
 Red. masses --      1.3402                 1.0857                 1.0496
 Frc consts  --      1.8022                 1.4671                 1.4362
 IR Inten    --    121.2743                31.5185                 0.3734

                     52                     53                     54
                      A                      A                      A
 Frequencies --   1529.5707              1539.7589              1579.0485
 Red. masses --      1.0443                 1.0477                 5.7268
 Frc consts  --      1.4395                 1.4635                 8.4130
 IR Inten    --      3.3795                 9.3196               117.8019

                     55                     56                     57
                      A                      A                      A
 Frequencies --   1627.2586              1664.8297              3044.8256
 Red. masses --      3.8865                 1.7943                 1.0375
 Frc consts  --      6.0635                 2.9301                 5.6669
 IR Inten    --    137.0766               631.9351                16.6323

                     58                     59                     60
                      A                      A                      A
 Frequencies --   3050.2879              3061.3662              3073.6448
 Red. masses --      1.0377                 1.0847                 1.0361
 Frc consts  --      5.6886                 5.9895                 5.7673
 IR Inten    --     31.8774                 9.5593                 6.0289

                     61                     62                     63
                      A                      A                      A
 Frequencies --   3107.7710              3114.3199              3132.6685
 Red. masses --      1.0994                 1.0990                 1.0995
 Frc consts  --      6.2563                 6.2801                 6.3575
 IR Inten    --      4.2661                59.6056                 7.1503

                     64                     65                     66
                      A                      A                      A
 Frequencies --   3136.4345              3138.7390              3167.7096
 Red. masses --      1.1026                 1.1025                 1.1037
 Frc consts  --      6.3905                 6.3996                 6.5250
 IR Inten    --     15.8541                23.2994                11.1612

                     67                     68                     69
                      A                      A                      A
 Frequencies --   3181.2501              3611.4986              3737.3529
 Red. masses --      1.0915                 1.0449                 1.1046
 Frc consts  --      6.5084                 8.0296                 9.0905
 IR Inten    --     13.6377                95.6387                44.1082

 - Thermochemistry -
 -------------------
 Temperature   298.150 Kelvin.  Pressure   1.00000 Atm.
 Atom     1 has atomic number  6 and mass  12.00000

 Molecular mass:   183.08302 amu.
 Principal axes and moments of inertia in atomic units:
                           1         2         3
     Eigenvalues --  1286.318753315.434963796.20437
           X            0.99982  -0.01138   0.01526
           Y            0.01131   0.99993   0.00444
           Z           -0.01530  -0.00427   0.99987
 This molecule is an asymmetric top.
 Rotational symmetry number  1.
 Warning -- assumption of classical behavior for rotation
           may cause significant error
 Rotational temperatures (Kelvin)      0.06733     0.02612     0.02282
 Rotational constants (GHZ):           1.40303     0.54435     0.47541
 Zero-point vibrational energy     546810.6 (Joules/Mol)
                                  130.69087 (Kcal/Mol)
 Warning -- explicit consideration of  21 degrees of freedom as
           vibrations may cause significant error
 Vibrational temperatures:     67.32    89.59   100.12   147.58   207.53
          (Kelvin)            310.54   317.11   377.02   410.07   441.84
                              450.71   456.53   482.64   533.86   558.66
                              661.23   701.67   718.48   774.39   825.93
                              859.26   927.77   995.69  1116.38  1170.68
                             1298.14  1360.51  1391.33  1399.92  1422.92
                             1480.04  1540.41  1557.60  1565.09  1612.21
                             1643.97  1728.22  1812.85  1863.05  1873.96
                             1946.69  1980.69  2049.68  2053.33  2078.54
                             2099.25  2142.85  2166.36  2173.60  2178.93
                             2192.63  2200.71  2215.37  2271.90  2341.26
                             2395.32  4380.82  4388.68  4404.62  4422.29
                             4471.39  4480.81  4507.21  4512.63  4515.95
                             4557.63  4577.11  5196.14  5377.22

 Zero-point correction=                           0.208269 (Hartree/Particle)
 Thermal correction to Energy=                    0.221331
 Thermal correction to Enthalpy=                  0.222275
 Thermal correction to Gibbs Free Energy=         0.168662
 Sum of electronic and zero-point Energies=           -874.987710
 Sum of electronic and thermal Energies=              -874.974648
 Sum of electronic and thermal Enthalpies=            -874.973704
 Sum of electronic and thermal Free Energies=         -875.027317

                     E (Thermal)             CV                S
                      KCal/Mol        Cal/Mol-Kelvin    Cal/Mol-Kelvin
 Total                  138.887             48.471            112.838
 Electronic               0.000              0.000              0.000
 Translational            0.889              2.981             41.521
 Rotational               0.889              2.981             31.160
 Vibrational            137.110             42.509             40.157
 Vibration     1          0.595              1.979              4.949
 Vibration     2          0.597              1.972              4.384
 Vibration     3          0.598              1.969              4.165
 Vibration     4          0.605              1.947              3.405
 Vibration     5          0.616              1.909              2.747
 Vibration     6          0.645              1.817              1.994
 Vibration     7          0.647              1.810              1.956
 Vibration     8          0.669              1.742              1.648
 Vibration     9          0.683              1.701              1.503
 Vibration    10          0.697              1.660              1.378
 Vibration    11          0.701              1.648              1.345
 Vibration    12          0.704              1.641              1.324
 Vibration    13          0.717              1.605              1.234
 Vibration    14          0.743              1.532              1.075
 Vibration    15          0.756              1.495              1.007
 Vibration    16          0.818              1.340              0.767
 Vibration    17          0.844              1.277              0.690
 Vibration    18          0.855              1.251              0.660
 Vibration    19          0.893              1.166              0.569
 Vibration    20          0.930              1.087              0.497
 Vibration    21          0.955              1.038              0.454

 Optimization completed.
    -- Stationary point found.
 Normal termination of Gaussian 16 at Wed Dec  9 16:59:20 2020.

 ----------------------------------------------------------------------
 # B3LYP/6-311++G(d,p) empiricaldispersion=gd3bj scf=xqc pop=npa geom=c
 heck
 ----------------------------------------------------------------------

 ---------------------------------------
 CID_129935333_JID_2138_Energie_neutraal
 ---------------------------------------
 Structure from the checkpoint file:  "JID_2138.chk"
 Charge =  0 Multiplicity = 1

 SCF Done:  E(RB3LYP) =  -875.357825577     A.U. after   15 cycles
 Normal termination of Gaussian 16 at Wed Dec  9 17:02:24 2020.

 ----------------------------------------------------------------------
 # B3LYP/6-311++G(d,p) empiricaldispersion=gd3bj scf=xqc pop=npa geom=c
 heck
 ----------------------------------------------------------------------

 -------------------------------------
 CID_129935333_JID_2138_Energie_kation
 -------------------------------------
 Structure from the checkpoint file:  "JID_2138.chk"
 Charge =  1 Multiplicity = 2

 SCF Done:  E(UB3LYP) =  -875.063079307     A.U. after   26 cycles
 Normal termination of Gaussian 16 at Wed Dec  9 17:09:26 2020.
 Gaussian 16:  ES64L-G16RevA.03 25-Dec-2016

 ----------------------------------------------------------------------
 # B3LYP/6-311++G(d,p) empiricaldispersion=gd3bj scf=xqc pop=npa geom=c
 heck
 ----------------------------------------------------------------------

 ------------------------------------
 CID_129935333_JID_2138_Energie_anion
 ------------------------------------
 Structure from the checkpoint file:  "JID_2138.chk"
 Charge = -1 Multiplicity = 2

                         Standard orientation:
 ---------------------------------------------------------------------
 Center     Atomic      Atomic             Coordinates (Angstroms)
 Number     Number       Type             X           Y           Z
 ---------------------------------------------------------------------
      1          6           0       -0.317224    2.500578   -0.039695
      2          6           0       -0.815940    1.084340   -0.125663
      3          7           0       -2.075649    0.876983    0.270674
      4          6           0       -2.553043   -0.379593    0.182335
      5          7           0       -1.896133   -1.459161   -0.286543
      6          6           0       -0.646349   -1.228933   -0.681307
      7          6           0       -0.020411    0.021576   -0.610247
      8         16           0        1.652039    0.232737   -1.185687
      9          6           0        2.664207   -0.289724    0.290205
     10          6           0        2.426588    0.606609    1.503696
     11          6           0        2.478178   -1.768341    0.624936
     12          7           0       -3.843459   -0.569739    0.574242
     13          1           0        0.098215    2.828165   -0.997455
     14          1           0       -1.141402    3.154347    0.250921
     15          1           0        0.487240    2.588160    0.697459
     16          1           0       -0.100065   -2.080232   -1.082859
     17          1           0        3.682012   -0.129933   -0.085950
     18          1           0        1.388856    0.525499    1.845724
     19          1           0        3.075146    0.299115    2.333458
     20          1           0        2.635620    1.654870    1.272815
     21          1           0        2.673974   -2.402499   -0.244423
     22          1           0        3.163845   -2.060351    1.430222
     23          1           0        1.457733   -1.963802    0.971375
     24          1           0       -4.285188    0.166396    1.103036
     25          1           0       -4.157952   -1.519185    0.702495
 ---------------------------------------------------------------------

 SCF Done:  E(UB3LYP) =  -875.345564405     A.U. after   33 cycles
 SCF Done:  E(UB3LYP) =  -875.345674635     a.u. after    4 cycles

 The electronic state is 2-A.
 Alpha  occ. eigenvalues --  -88.72770 -14.21457 -14.17901 -14.17744 -10.15328
 Alpha  occ. eigenvalues --  -10.09926 -10.09633 -10.08816 -10.07561 -10.05642
 Alpha  occ. eigenvalues --  -10.05512 -10.05205  -7.81383  -5.77781  -5.77413
 Alpha  occ. eigenvalues --   -5.76755  -0.87939  -0.79012  -0.76723  -0.71461
 Alpha  occ. eigenvalues --   -0.66752  -0.61687  -0.58421  -0.57686  -0.51931
 Alpha  occ. eigenvalues --   -0.50731  -0.45870  -0.43195  -0.40734  -0.37080
 Alpha  occ. eigenvalues --   -0.35764  -0.34698  -0.32679  -0.31694  -0.30895
 Alpha  occ. eigenvalues --   -0.29754  -0.28844  -0.28048  -0.27504  -0.26710
 Alpha  occ. eigenvalues --   -0.24620  -0.23774  -0.22755  -0.19972  -0.18802
 Alpha  occ. eigenvalues --   -0.18312  -0.14183  -0.11623  -0.11024   0.04874
 Alpha virt. eigenvalues --    0.06558   0.06967   0.08432   0.08693   0.09581
 Alpha virt. eigenvalues --    0.09971   0.10087   0.11167   0.11548   0.12327
 Alpha virt. eigenvalues --    0.12718   0.13086   0.14092   0.14475   0.15094

  Beta  occ. eigenvalues --  -88.72769 -14.21431 -14.17745 -14.17595 -10.15348
  Beta  occ. eigenvalues --  -10.09923 -10.09385 -10.08636 -10.07634 -10.05615
  Beta  occ. eigenvalues --  -10.05474 -10.05219  -7.81382  -5.77778  -5.77411
  Beta  occ. eigenvalues --   -5.76755  -0.87741  -0.78877  -0.76354  -0.71433
  Beta  occ. eigenvalues --   -0.66610  -0.61564  -0.58352  -0.57549  -0.51744
  Beta  occ. eigenvalues --   -0.50562  -0.45806  -0.43053  -0.40586  -0.36983
  Beta  occ. eigenvalues --   -0.35684  -0.34614  -0.32306  -0.31533  -0.30847
  Beta  occ. eigenvalues --   -0.29522  -0.28780  -0.27987  -0.27389  -0.26627
  Beta  occ. eigenvalues --   -0.24582  -0.23702  -0.22619  -0.19688  -0.18206
  Beta  occ. eigenvalues --   -0.17646  -0.14041  -0.11463  -0.10771
  Beta virt. eigenvalues --    0.07313   0.07622   0.08779   0.08983   0.09214
  Beta virt. eigenvalues --    0.09861   0.10327   0.10564   0.11496   0.11738
  Beta virt. eigenvalues --    0.12553   0.12905   0.13158   0.14253   0.14446

 Mulliken charges and spin densities:
               1          2
     1  C    0.016735  -0.624599
     2  C   -0.193610   0.145216
     3  N   -0.137360   0.119092
     4  C   -0.080323   0.126145
     5  N   -0.151524   0.035710
     6  C    0.613867  -0.497323
     7  C    0.095276   0.309087
     8  S   -0.286013  -0.284778
     9  C   -0.974712   0.981982
    10  C    0.763884  -1.349132
    11  C    0.479078  -1.111818
    12  N   -0.340357   0.057680
    13  H    0.142604   0.006224
    14  H    0.054629   0.089182
    15  H    0.049927   0.103522
    16  H    0.179128   0.006658
    17  H   -0.254690   0.471281
    18  H   -0.081528   0.260245
    19  H   -0.285022   0.435771
    20  H   -0.098217   0.224414
    21  H    0.079062   0.047674
    22  H   -0.442888   0.582254
    23  H   -0.001346   0.186407
    24  H   -0.132265   0.400345
    25  H   -0.014335   0.278762
 Sum of Mulliken charges =  -1.00000   1.00000

 Dipole moment (field-independent basis, Debye):
    X=             -0.4965    Y=              1.0753    Z=             -2.8908  Tot=              3.1240
 Quadrupole moment (field-independent basis, Debye-Ang):
   XX=           -147.5032   YY=           -109.0265   ZZ=           -109.1313
   XY=              1.9401   XZ=             -6.3180   YZ=             -0.0573

 Summary of Natural Population Analysis:

                                       Natural Population
                Natural  -----------------------------------------------
    Atom  No    Charge         Core      Valence    Rydberg      Total
 -----------------------------------------------------------------------
      C    1   -0.30557      0.99963     2.30014    0.00580     3.30557
      C    2    0.17027      0.99949     1.81645    0.01379     2.82973
      N    3   -0.26568      0.99964     2.75585    0.01019     3.76568
      C    4    0.29457      0.99962     1.68651    0.01930     2.70543
      N    5   -0.26215      0.99967     2.75212    0.01036     3.76215
      C    6    0.08258      0.99952     1.90164    0.01625     2.91742
      C    7   -0.17815      0.99933     2.16663    0.01219     3.17815
      S    8    0.09498      4.99956     2.88702    0.01844     7.90502
      C    9   -0.16376      0.99959     2.14963    0.01454     3.16376
      C   10   -0.29136      0.99963     2.28480    0.00693     3.29136
      C   11   -0.29221      0.99963     2.28517    0.00741     3.29221
      N   12   -0.39284      0.99970     2.88365    0.00949     3.89284
      H   13    0.10674      0.00000     0.39250    0.00076     0.39326
      H   14    0.10500      0.00000     0.39387    0.00113     0.39500
      H   15    0.11033      0.00000     0.38857    0.00110     0.38967
      H   16    0.08872      0.00000     0.40996    0.00132     0.41128
      H   17    0.09930      0.00000     0.39933    0.00137     0.40070
      H   18    0.10200      0.00000     0.39651    0.00149     0.39800
      H   19    0.10143      0.00000     0.39718    0.00139     0.39857
      H   20    0.10161      0.00000     0.39719    0.00120     0.39839
      H   21    0.10057      0.00000     0.39829    0.00114     0.39943
      H   22    0.10145      0.00000     0.39687    0.00167     0.39855
      H   23    0.10389      0.00000     0.39485    0.00127     0.39611
      H   24    0.19494      0.00000     0.30228    0.00278     0.30506
      H   25    0.19333      0.00000     0.30426    0.00241     0.30667
 =======================================================================
   * Total *   -0.00000     15.99500    32.84128    0.16372    49.00000

 Normal termination of Gaussian 16 at Wed Dec  9 17:40:13 2020.
