 Gaussian 16, Revision A.03,

 -----------------------------------------------------------
 # opt freq B3LYP/6-31G(d) empiricaldispersion=gd3bj scf=xqc
 -----------------------------------------------------------

 ------------------------------
 CID_82496548_JID_7869_neutraal
 ------------------------------
 Symbolic Z-matrix:
 Charge =  0 Multiplicity = 1

 SCF Done:  E(RB3LYP) =  -816.990785785     A.U. after   14 cycles
 SCF Done:  E(RB3LYP) =  -817.000855324     A.U. after   13 cycles
 SCF Done:  E(RB3LYP) =  -817.002522559     A.U. after   13 cycles
 SCF Done:  E(RB3LYP) =  -817.002905670     A.U. after   12 cycles
 SCF Done:  E(RB3LYP) =  -817.003065231     A.U. after   12 cycles
 SCF Done:  E(RB3LYP) =  -817.003327071     A.U. after   11 cycles
 SCF Done:  E(RB3LYP) =  -817.003372772     A.U. after   11 cycles
 SCF Done:  E(RB3LYP) =  -817.003392766     A.U. after   10 cycles
 SCF Done:  E(RB3LYP) =  -817.003397757     A.U. after    9 cycles
 SCF Done:  E(RB3LYP) =  -817.003402086     A.U. after    9 cycles
 SCF Done:  E(RB3LYP) =  -817.003408573     A.U. after    7 cycles
 SCF Done:  E(RB3LYP) =  -817.003408594     A.U. after    7 cycles
 SCF Done:  E(RB3LYP) =  -817.003408596     A.U. after    7 cycles
 SCF Done:  E(RB3LYP) =  -817.003408591     A.U. after    7 cycles
 SCF Done:  E(RB3LYP) =  -817.003408585     A.U. after    6 cycles
 Optimization completed.
    -- Stationary point found.
 Normal termination of Gaussian 16 at Fri Dec 11 13:28:15 2020.

 --------------------------------------------------------------------
 #N Geom=AllCheck Guess=TCheck SCRF=Check GenChk RB3LYP/6-31G(d) Freq
 --------------------------------------------------------------------

 Structure from the checkpoint file:  "JID_7869.chk"
 ------------------------------
 CID_82496548_JID_7869_neutraal
 ------------------------------
 Charge =  0 Multiplicity = 1

 SCF Done:  E(RB3LYP) =  -817.003408585     A.U. after    1 cycles

  Exact polarizability: 167.292 -21.008 135.618   9.628  19.794 106.066
 Approx polarizability: 243.965 -37.266 217.266  22.193  48.654 178.335

                      1                      2                      3
                      A                      A                      A
 Frequencies --     16.5007                28.1805                41.8185
 Red. masses --      4.3956                 5.0658                 5.1551
 Frc consts  --      0.0007                 0.0024                 0.0053
 IR Inten    --      1.1203                 0.7240                 1.6824

                      4                      5                      6
                      A                      A                      A
 Frequencies --     64.8922               106.4489               134.0813
 Red. masses --      3.8388                 6.4586                 2.5334
 Frc consts  --      0.0095                 0.0431                 0.0268
 IR Inten    --      0.9579                 0.4894                 3.3661

                      7                      8                      9
                      A                      A                      A
 Frequencies --    174.4296               177.4887               207.6598
 Red. masses --      6.0176                 4.8915                 1.6492
 Frc consts  --      0.1079                 0.0908                 0.0419
 IR Inten    --      1.6357                 0.8385                 3.0739

                     10                     11                     12
                      A                      A                      A
 Frequencies --    241.0088               263.9377               300.7433
 Red. masses --      2.3455                 4.6496                 4.0479
 Frc consts  --      0.0803                 0.1908                 0.2157
 IR Inten    --      0.5989                 0.0406                 2.4411

                     13                     14                     15
                      A                      A                      A
 Frequencies --    314.6860               364.5510               387.8844
 Red. masses --      2.9438                 4.3143                 3.3200
 Frc consts  --      0.1718                 0.3378                 0.2943
 IR Inten    --     16.2188                19.4303                 1.0952

                     16                     17                     18
                      A                      A                      A
 Frequencies --    404.5576               421.7575               459.4720
 Red. masses --      3.0756                 2.1550                 1.4628
 Frc consts  --      0.2966                 0.2259                 0.1819
 IR Inten    --      0.8428                19.4574               100.8472

                     19                     20                     21
                      A                      A                      A
 Frequencies --    485.5668               496.9189               555.8198
 Red. masses --      5.7874                 1.5561                 4.3325
 Frc consts  --      0.8040                 0.2264                 0.7886
 IR Inten    --      2.9727                48.2947                13.7136

                     22                     23                     24
                      A                      A                      A
 Frequencies --    581.2292               594.4775               611.6344
 Red. masses --      4.8505                 4.4548                 4.5685
 Frc consts  --      0.9655                 0.9276                 1.0070
 IR Inten    --     20.5921                 3.5804                 7.1397

                     25                     26                     27
                      A                      A                      A
 Frequencies --    648.7813               655.7824               723.6543
 Red. masses --      2.0238                 3.7947                 8.0006
 Frc consts  --      0.5019                 0.9615                 2.4685
 IR Inten    --     58.7869                12.7096                 7.9659

                     28                     29                     30
                      A                      A                      A
 Frequencies --    727.5559               743.6443               793.0223
 Red. masses --      5.4938                10.2336                 2.0636
 Frc consts  --      1.7134                 3.3343                 0.7646
 IR Inten    --      0.4698                10.9761               120.5019

                     31                     32                     33
                      A                      A                      A
 Frequencies --    797.3877               820.3368               860.9353
 Red. masses --      3.8065                 1.4983                 2.6877
 Frc consts  --      1.4260                 0.5941                 1.1737
 IR Inten    --      6.4172                16.2239                74.0775

                     34                     35                     36
                      A                      A                      A
 Frequencies --    873.4991               877.2746               930.8172
 Red. masses --      1.8282                 2.8311                 8.4773
 Frc consts  --      0.8218                 1.2837                 4.3275
 IR Inten    --     12.2201                 6.0146                88.0723

                     37                     38                     39
                      A                      A                      A
 Frequencies --    933.9531               963.0720               973.8947
 Red. masses --      1.2941                 2.4141                 2.5718
 Frc consts  --      0.6651                 1.3193                 1.4372
 IR Inten    --      1.5399                11.2791                10.3003

                     40                     41                     42
                      A                      A                      A
 Frequencies --    986.5104              1023.9121              1113.4337
 Red. masses --      1.9577                 1.5435                 3.9354
 Frc consts  --      1.1225                 0.9534                 2.8745
 IR Inten    --      8.1962                 6.5084                17.1123

                     43                     44                     45
                      A                      A                      A
 Frequencies --   1117.8955              1151.9646              1164.9097
 Red. masses --      2.5407                 2.3146                 1.5233
 Frc consts  --      1.8707                 1.8097                 1.2179
 IR Inten    --      6.7049                13.8771                 4.4204

                     46                     47                     48
                      A                      A                      A
 Frequencies --   1176.4913              1188.6845              1207.4549
 Red. masses --      1.4028                 1.7650                 2.0885
 Frc consts  --      1.1440                 1.4693                 1.7940
 IR Inten    --      7.2506                34.0126                13.5440

                     49                     50                     51
                      A                      A                      A
 Frequencies --   1277.9541              1282.9230              1293.3611
 Red. masses --      1.6544                 1.4563                 5.1900
 Frc consts  --      1.5920                 1.4123                 5.1152
 IR Inten    --     83.3309                 5.4504               164.2554

                     52                     53                     54
                      A                      A                      A
 Frequencies --   1318.9039              1327.8113              1332.2621
 Red. masses --      3.5392                 1.5723                 1.3347
 Frc consts  --      3.6273                 1.6333                 1.3958
 IR Inten    --     31.6674                84.1382                 0.6970

                     55                     56                     57
                      A                      A                      A
 Frequencies --   1363.3941              1374.3096              1413.3113
 Red. masses --      1.7904                 1.9915                 1.8614
 Frc consts  --      1.9608                 2.2162                 2.1906
 IR Inten    --     18.5964                 7.8935                52.0396

                     58                     59                     60
                      A                      A                      A
 Frequencies --   1442.4544              1476.3305              1479.1108
 Red. masses --      2.0501                 1.2550                 1.4209
 Frc consts  --      2.5132                 1.6116                 1.8316
 IR Inten    --     28.6601                11.0043                23.6896

                     61                     62                     63
                      A                      A                      A
 Frequencies --   1500.2003              1514.2025              1517.2630
 Red. masses --      1.1704                 2.2948                 1.0707
 Frc consts  --      1.5520                 3.1000                 1.4523
 IR Inten    --     14.2300                52.4177                10.7621

                     64                     65                     66
                      A                      A                      A
 Frequencies --   1522.3238              1529.4686              1547.2110
 Red. masses --      1.5132                 1.1599                 2.3317
 Frc consts  --      2.0662                 1.5987                 3.2886
 IR Inten    --     78.6239                14.2000                36.6113

                     67                     68                     69
                      A                      A                      A
 Frequencies --   1551.4600              1675.0317              1686.8006
 Red. masses --      1.1242                 7.6711                 7.1200
 Frc consts  --      1.5943                12.6811                11.9360
 IR Inten    --     10.9649                 6.1591                15.4908

                     70                     71                     72
                      A                      A                      A
 Frequencies --   1785.4390              1921.9164              2982.4769
 Red. masses --      8.3621                11.7408                 1.0553
 Frc consts  --     15.7057                25.5516                 5.5308
 IR Inten    --    317.2778               916.1110                65.2578

                     73                     74                     75
                      A                      A                      A
 Frequencies --   3033.6942              3056.1699              3078.8259
 Red. masses --      1.0695                 1.0606                 1.0790
 Frc consts  --      5.7995                 5.8365                 6.0262
 IR Inten    --     19.4373                30.7946                33.1992

                     76                     77                     78
                      A                      A                      A
 Frequencies --   3090.1974              3118.6180              3125.3795
 Red. masses --      1.1047                 1.0929                 1.1020
 Frc consts  --      6.2151                 6.2627                 6.3420
 IR Inten    --     13.3946                10.0967                40.2249

                     79                     80                     81
                      A                      A                      A
 Frequencies --   3191.1987              3223.9710              3234.1415
 Red. masses --      1.0893                 1.0908                 1.0937
 Frc consts  --      6.5360                 6.6798                 6.7403
 IR Inten    --      8.2320                 2.0791                 2.6742

                     82                     83                     84
                      A                      A                      A
 Frequencies --   3491.0354              3592.0658              3677.0515
 Red. masses --      1.0728                 1.0765                 1.0803
 Frc consts  --      7.7037                 8.1838                 8.6059
 IR Inten    --      3.0836                18.4407                75.9200

 - Thermochemistry -
 -------------------
 Temperature   298.150 Kelvin.  Pressure   1.00000 Atm.
 Atom     1 has atomic number  6 and mass  12.00000

 Molecular mass:   235.09569 amu.
 Principal axes and moments of inertia in atomic units:
                           1         2         3
     Eigenvalues --  2256.815186431.296127340.91955
           X            0.99998   0.00400  -0.00459
           Y           -0.00403   0.99998  -0.00515
           Z            0.00456   0.00517   0.99998
 This molecule is an asymmetric top.
 Rotational symmetry number  1.
 Warning -- assumption of classical behavior for rotation
           may cause significant error
 Rotational temperatures (Kelvin)      0.03838     0.01347     0.01180
 Rotational constants (GHZ):           0.79968     0.28062     0.24585
 Zero-point vibrational energy     633535.6 (Joules/Mol)
                                  151.41864 (Kcal/Mol)
 Warning -- explicit consideration of  24 degrees of freedom as
           vibrations may cause significant error
 Vibrational temperatures:     23.74    40.55    60.17    93.37   153.16
          (Kelvin)            192.91   250.97   255.37   298.78   346.76
                              379.75   432.70   452.76   524.51   558.08
                              582.07   606.82   661.08   698.62   714.96
                              799.70   836.26   855.32   880.01   933.45
                              943.52  1041.18  1046.79  1069.94  1140.98
                             1147.26  1180.28  1238.69  1256.77  1262.20
                             1339.24  1343.75  1385.65  1401.22  1419.37
                             1473.18  1601.98  1608.40  1657.42  1676.05
                             1692.71  1710.25  1737.26  1838.69  1845.84
                             1860.86  1897.61  1910.42  1916.83  1961.62
                             1977.33  2033.44  2075.37  2124.11  2128.11
                             2158.45  2178.60  2183.00  2190.28  2200.56
                             2226.09  2232.20  2410.00  2426.93  2568.85
                             2765.21  4291.12  4364.81  4397.15  4429.74
                             4446.10  4487.00  4496.72  4591.42  4638.58
                             4653.21  5022.82  5168.18  5290.46

 Zero-point correction=                           0.241301 (Hartree/Particle)
 Thermal correction to Energy=                    0.256675
 Thermal correction to Enthalpy=                  0.257619
 Thermal correction to Gibbs Free Energy=         0.196378
 Sum of electronic and zero-point Energies=           -816.762108
 Sum of electronic and thermal Energies=              -816.746734
 Sum of electronic and thermal Enthalpies=            -816.745789
 Sum of electronic and thermal Free Energies=         -816.807031

                     E (Thermal)             CV                S
                      KCal/Mol        Cal/Mol-Kelvin    Cal/Mol-Kelvin
 Total                  161.066             58.109            128.894
 Electronic               0.000              0.000              0.000
 Translational            0.889              2.981             42.266
 Rotational               0.889              2.981             33.032
 Vibrational            159.289             52.147             53.595
 Vibration     1          0.593              1.986              7.016
 Vibration     2          0.593              1.984              5.954
 Vibration     3          0.594              1.980              5.171
 Vibration     4          0.597              1.971              4.303
 Vibration     5          0.605              1.944              3.333
 Vibration     6          0.613              1.919              2.887
 Vibration     7          0.627              1.874              2.387
 Vibration     8          0.628              1.870              2.355
 Vibration     9          0.641              1.829              2.064
 Vibration    10          0.658              1.778              1.795
 Vibration    11          0.670              1.739              1.636
 Vibration    12          0.693              1.672              1.413
 Vibration    13          0.702              1.646              1.338
 Vibration    14          0.738              1.545              1.103
 Vibration    15          0.756              1.496              1.008
 Vibration    16          0.770              1.460              0.946
 Vibration    17          0.784              1.423              0.886
 Vibration    18          0.817              1.340              0.768
 Vibration    19          0.842              1.282              0.695
 Vibration    20          0.852              1.257              0.666
 Vibration    21          0.911              1.127              0.532
 Vibration    22          0.938              1.072              0.483
 Vibration    23          0.952              1.044              0.459
 Vibration    24          0.971              1.007              0.430

 Optimization completed.
    -- Stationary point found.
 Normal termination of Gaussian 16 at Fri Dec 11 13:38:21 2020.

 ----------------------------------------------------------------------
 # B3LYP/6-311++G(d,p) empiricaldispersion=gd3bj scf=xqc pop=npa geom=c
 heck
 ----------------------------------------------------------------------

 --------------------------------------
 CID_82496548_JID_7869_Energie_neutraal
 --------------------------------------
 Structure from the checkpoint file:  "JID_7869.chk"
 Charge =  0 Multiplicity = 1

 SCF Done:  E(RB3LYP) =  -817.241091598     A.U. after   15 cycles
 Normal termination of Gaussian 16 at Fri Dec 11 13:42:14 2020.

 ----------------------------------------------------------------------
 # B3LYP/6-311++G(d,p) empiricaldispersion=gd3bj scf=xqc pop=npa geom=c
 heck
 ----------------------------------------------------------------------

 ------------------------------------
 CID_82496548_JID_7869_Energie_kation
 ------------------------------------
 Structure from the checkpoint file:  "JID_7869.chk"
 Charge =  1 Multiplicity = 2

 SCF Done:  E(UB3LYP) =  -816.940192079     A.U. after   27 cycles
 Normal termination of Gaussian 16 at Fri Dec 11 13:51:53 2020.
 Gaussian 16:  ES64L-G16RevA.03 25-Dec-2016

 ----------------------------------------------------------------------
 # B3LYP/6-311++G(d,p) empiricaldispersion=gd3bj scf=xqc pop=npa geom=c
 heck
 ----------------------------------------------------------------------

 -----------------------------------
 CID_82496548_JID_7869_Energie_anion
 -----------------------------------
 Structure from the checkpoint file:  "JID_7869.chk"
 Charge = -1 Multiplicity = 2

                         Standard orientation:
 ---------------------------------------------------------------------
 Center     Atomic      Atomic             Coordinates (Angstroms)
 Number     Number       Type             X           Y           Z
 ---------------------------------------------------------------------
      1          6           0       -1.521208   -2.361017    0.978391
      2          7           0       -2.776973   -1.729283    1.382593
      3          6           0       -2.840275   -0.334487    0.989099
      4          6           0       -3.018156   -0.146154   -0.527548
      5          8           0       -3.555096   -1.011124   -1.209683
      6          7           0       -2.610935    1.042391   -1.076511
      7          6           0       -1.745763    2.028412   -0.447974
      8          6           0       -0.334881    1.541404   -0.141896
      9          6           0        0.222865    0.478357   -0.869793
     10          6           0        1.510585    0.085141   -0.541900
     11          6           0        2.232573    0.727384    0.470341
     12          6           0        1.704044    1.774677    1.196785
     13          6           0        0.398275    2.169200    0.873090
     14          8           0        3.471814    0.141035    0.599105
     15          6           0        3.563832   -0.894455   -0.332177
     16          8           0        4.526162   -1.600513   -0.465965
     17          7           0        2.359518   -0.907753   -1.017981
     18          1           0       -0.689655   -1.880780    1.507038
     19          1           0       -1.314910   -2.305653   -0.104253
     20          1           0       -1.540731   -3.415784    1.269330
     21          1           0       -3.541706   -2.207700    0.907620
     22          1           0       -3.704786    0.143510    1.472397
     23          1           0       -1.946576    0.177289    1.356785
     24          1           0       -2.756420    1.098039   -2.077042
     25          1           0       -1.705327    2.886530   -1.128242
     26          1           0       -2.208236    2.398679    0.474241
     27          1           0       -0.347875   -0.027574   -1.640174
     28          1           0        2.269850    2.255094    1.986780
     29          1           0       -0.059416    2.980384    1.432755
     30          1           0        2.170130   -1.585490   -1.740106
 ---------------------------------------------------------------------

 SCF Done:  E(UB3LYP) =  -817.239892233     A.U. after   33 cycles
 SCF Done:  E(UB3LYP) =  -817.239892233     a.u. after    1 cycles

 The electronic state is 2-A.
 Alpha  occ. eigenvalues --  -19.09306 -19.01502 -18.99307 -14.27521 -14.23582
 Alpha  occ. eigenvalues --  -14.20787 -10.23530 -10.17263 -10.13215 -10.12115
 Alpha  occ. eigenvalues --  -10.11470 -10.10697 -10.09332 -10.08144 -10.07661
 Alpha  occ. eigenvalues --  -10.07488 -10.07057  -1.04071  -0.95022  -0.94371
 Alpha  occ. eigenvalues --   -0.86270  -0.82694  -0.81408  -0.75771  -0.67111
 Alpha  occ. eigenvalues --   -0.65306  -0.63139  -0.59878  -0.56208  -0.55638
 Alpha  occ. eigenvalues --   -0.52750  -0.52189  -0.47539  -0.45401  -0.43306
 Alpha  occ. eigenvalues --   -0.41355  -0.40350  -0.39946  -0.38890  -0.36994
 Alpha  occ. eigenvalues --   -0.36567  -0.34959  -0.34440  -0.34339  -0.33071
 Alpha  occ. eigenvalues --   -0.32498  -0.31734  -0.30434  -0.29458  -0.28691
 Alpha  occ. eigenvalues --   -0.28203  -0.27622  -0.26879  -0.26232  -0.25630
 Alpha  occ. eigenvalues --   -0.22091  -0.20661  -0.17256  -0.16264  -0.15080
 Alpha  occ. eigenvalues --   -0.13949  -0.12514   0.04082
 Alpha virt. eigenvalues --    0.06779   0.06885   0.07504   0.08114   0.08779
 Alpha virt. eigenvalues --    0.09353   0.09631   0.10260   0.10820   0.11426
 Alpha virt. eigenvalues --    0.11594   0.12329   0.12696   0.13188   0.13383

  Beta  occ. eigenvalues --  -19.09316 -19.01473 -18.99289 -14.27512 -14.23546
  Beta  occ. eigenvalues --  -14.20780 -10.23498 -10.17247 -10.13181 -10.12082
  Beta  occ. eigenvalues --  -10.11441 -10.10686 -10.09331 -10.08095 -10.07529
  Beta  occ. eigenvalues --  -10.07477 -10.06902  -1.04040  -0.94977  -0.94336
  Beta  occ. eigenvalues --   -0.86231  -0.82628  -0.81393  -0.75605  -0.66934
  Beta  occ. eigenvalues --   -0.65091  -0.63105  -0.59780  -0.56112  -0.55594
  Beta  occ. eigenvalues --   -0.52666  -0.52027  -0.47455  -0.45260  -0.43231
  Beta  occ. eigenvalues --   -0.41319  -0.40249  -0.39816  -0.38839  -0.36917
  Beta  occ. eigenvalues --   -0.36500  -0.34880  -0.34397  -0.34243  -0.33009
  Beta  occ. eigenvalues --   -0.32439  -0.31627  -0.30381  -0.29392  -0.28473
  Beta  occ. eigenvalues --   -0.28123  -0.27597  -0.26789  -0.26177  -0.25542
  Beta  occ. eigenvalues --   -0.21799  -0.20633  -0.17207  -0.16150  -0.14420
  Beta  occ. eigenvalues --   -0.13860  -0.12197
  Beta virt. eigenvalues --    0.06777   0.07315   0.07703   0.08159   0.08503
  Beta virt. eigenvalues --    0.08999   0.09565   0.10248   0.10463   0.11055
  Beta virt. eigenvalues --    0.11651   0.11763   0.12518   0.12953   0.13413

 Mulliken charges and spin densities:
               1          2
     1  C   -0.441011  -0.022990
     2  N   -0.141592   0.017523
     3  C    0.097688  -0.472278
     4  C   -0.117099   0.077078
     5  O   -0.347872   0.026304
     6  N   -0.304886   0.172220
     7  C    2.274425  -2.943483
     8  C    0.221672   0.391833
     9  C   -0.739257   0.322016
    10  C    0.590717   0.127992
    11  C   -0.081733  -0.122151
    12  C   -0.805169   0.406582
    13  C   -0.365217  -0.059054
    14  O   -0.141608  -0.009180
    15  C    0.538336  -0.060768
    16  O   -0.404607   0.012777
    17  N   -0.260061  -0.061454
    18  H    0.142396   0.024255
    19  H    0.139220  -0.011976
    20  H    0.114891   0.023834
    21  H    0.243760  -0.000621
    22  H    0.134119   0.057559
    23  H    0.259409  -0.073673
    24  H   -0.202969   0.534433
    25  H   -0.824504   1.031096
    26  H    0.092776   0.103006
    27  H   -0.576789   0.777877
    28  H    0.015723   0.139073
    29  H   -0.204934   0.358830
    30  H    0.094175   0.233340
 Sum of Mulliken charges =  -1.00000   1.00000

 Dipole moment (field-independent basis, Debye):
    X=             -0.3954    Y=             -2.1910    Z=              4.8744  Tot=              5.3588
 Quadrupole moment (field-independent basis, Debye-Ang):
   XX=           -171.1907   YY=           -137.4840   ZZ=           -135.7303
   XY=              8.2740   XZ=             -9.2767   YZ=              8.6421

 Summary of Natural Population Analysis:

                                       Natural Population
                Natural  -----------------------------------------------
    Atom  No    Charge         Core      Valence    Rydberg      Total
 -----------------------------------------------------------------------
      C    1   -0.18160      0.99967     2.17491    0.00703     3.18160
      N    2   -0.33283      0.99976     2.82365    0.00941     3.83283
      C    3   -0.13797      0.99959     2.12523    0.01315     3.13797
      C    4    0.33823      0.99968     1.63825    0.02384     2.66177
      O    5   -0.33034      0.99988     3.32411    0.00635     4.33034
      N    6   -0.31852      0.99967     2.80651    0.01234     3.81852
      C    7   -0.09459      0.99957     2.08206    0.01296     3.09459
      C    8   -0.01989      0.99951     2.00900    0.01138     3.01989
      C    9   -0.09275      0.99947     2.08282    0.01047     3.09275
      C   10    0.06440      0.99945     1.92472    0.01143     2.93560
      C   11    0.13937      0.99933     1.84778    0.01351     2.86063
      C   12   -0.09250      0.99951     2.08398    0.00901     3.09250
      C   13   -0.10975      0.99952     2.10052    0.00972     3.10975
      O   14   -0.25880      0.99985     3.25306    0.00589     4.25880
      C   15    0.45412      0.99972     1.51913    0.02703     2.54588
      O   16   -0.30928      0.99986     3.30370    0.00572     4.30928
      N   17   -0.30780      0.99964     2.80046    0.00771     3.80780
      H   18    0.09278      0.00000     0.40605    0.00118     0.40722
      H   19    0.08569      0.00000     0.41297    0.00134     0.41431
      H   20    0.09028      0.00000     0.40888    0.00085     0.40972
      H   21    0.17731      0.00000     0.32032    0.00236     0.32269
      H   22    0.10258      0.00000     0.39614    0.00128     0.39742
      H   23    0.10726      0.00000     0.39121    0.00153     0.39274
      H   24    0.19968      0.00000     0.29551    0.00480     0.30032
      H   25    0.11587      0.00000     0.37734    0.00679     0.38413
      H   26    0.09613      0.00000     0.40250    0.00137     0.40387
      H   27    0.11056      0.00000     0.38722    0.00222     0.38944
      H   28    0.10377      0.00000     0.39530    0.00093     0.39623
      H   29    0.09894      0.00000     0.40008    0.00098     0.40106
      H   30    0.20967      0.00000     0.28807    0.00226     0.29033
 =======================================================================
   * Total *    0.00000     16.99369    44.78147    0.22484    62.00000

 Normal termination of Gaussian 16 at Fri Dec 11 14:03:36 2020.
