 Gaussian 16, Revision A.03,

 -----------------------------------------------------------
 # opt freq B3LYP/6-31G(d) empiricaldispersion=gd3bj scf=xqc
 -----------------------------------------------------------

 -----------------------------
 CID_15584278_JID_214_neutraal
 -----------------------------
 Symbolic Z-matrix:
 Charge =  0 Multiplicity = 1

 SCF Done:  E(RB3LYP) =  -390.668761661     A.U. after   14 cycles
 SCF Done:  E(RB3LYP) =  -390.671548982     A.U. after   12 cycles
 SCF Done:  E(RB3LYP) =  -390.671250360     A.U. after   13 cycles
 SCF Done:  E(RB3LYP) =  -390.672869156     A.U. after   12 cycles
 SCF Done:  E(RB3LYP) =  -390.672905108     A.U. after   12 cycles
 SCF Done:  E(RB3LYP) =  -390.673040629     A.U. after   12 cycles
 SCF Done:  E(RB3LYP) =  -390.673161711     A.U. after   11 cycles
 SCF Done:  E(RB3LYP) =  -390.673216752     A.U. after   12 cycles
 SCF Done:  E(RB3LYP) =  -390.673231783     A.U. after   12 cycles
 SCF Done:  E(RB3LYP) =  -390.673256087     A.U. after   11 cycles
 SCF Done:  E(RB3LYP) =  -390.673265957     A.U. after   11 cycles
 SCF Done:  E(RB3LYP) =  -390.673267081     A.U. after   10 cycles
 SCF Done:  E(RB3LYP) =  -390.673267355     A.U. after    9 cycles
 SCF Done:  E(RB3LYP) =  -390.673267362     A.U. after    7 cycles
 SCF Done:  E(RB3LYP) =  -390.673267369     A.U. after    7 cycles
 Optimization completed.
    -- Stationary point found.
 Normal termination of Gaussian 16 at Tue Dec  8 10:23:09 2020.

 --------------------------------------------------------------------
 #N Geom=AllCheck Guess=TCheck SCRF=Check GenChk RB3LYP/6-31G(d) Freq
 --------------------------------------------------------------------

 Structure from the checkpoint file:  "JID_214.chk"
 -----------------------------
 CID_15584278_JID_214_neutraal
 -----------------------------
 Charge =  0 Multiplicity = 1

 SCF Done:  E(RB3LYP) =  -390.673267369     A.U. after    1 cycles

  Exact polarizability: 142.227  -7.285  95.403  10.170  -9.541  84.380
 Approx polarizability: 206.301 -14.634 123.821  26.479 -19.046 126.116

                      1                      2                      3
                      A                      A                      A
 Frequencies --     21.6563                31.0729                69.8691
 Red. masses --      2.8805                 3.0529                 2.6766
 Frc consts  --      0.0008                 0.0017                 0.0077
 IR Inten    --      0.0205                 0.0435                 0.2672

                      4                      5                      6
                      A                      A                      A
 Frequencies --     95.3508               118.3827               127.8668
 Red. masses --      2.8961                 2.5940                 1.9166
 Frc consts  --      0.0155                 0.0214                 0.0185
 IR Inten    --      1.1025                 0.1240                 0.3228

                      7                      8                      9
                      A                      A                      A
 Frequencies --    193.8985               239.6565               258.8803
 Red. masses --      1.4717                 1.5102                 2.4730
 Frc consts  --      0.0326                 0.0511                 0.0977
 IR Inten    --      0.7092                 1.8503                 1.0139

                     10                     11                     12
                      A                      A                      A
 Frequencies --    280.9562               328.7509               358.3207
 Red. masses --      1.5328                 2.6950                 2.4348
 Frc consts  --      0.0713                 0.1716                 0.1842
 IR Inten    --      0.5856                 2.0028                 0.2516

                     13                     14                     15
                      A                      A                      A
 Frequencies --    371.2310               417.2539               519.7167
 Red. masses --      2.1670                 2.7747                 3.1493
 Frc consts  --      0.1760                 0.2846                 0.5012
 IR Inten    --      0.6962                 0.4433                 0.4758

                     16                     17                     18
                      A                      A                      A
 Frequencies --    554.5677               637.7761               650.4784
 Red. masses --      3.9975                 3.3368                 2.4131
 Frc consts  --      0.7244                 0.7997                 0.6016
 IR Inten    --      3.8055                 1.7351                 0.8745

                     19                     20                     21
                      A                      A                      A
 Frequencies --    743.9555               781.7198               810.8572
 Red. masses --      1.2214                 1.3225                 1.2993
 Frc consts  --      0.3983                 0.4762                 0.5033
 IR Inten    --      0.0724                 9.0369                 3.1496

                     22                     23                     24
                      A                      A                      A
 Frequencies --    861.1843               875.3193               900.5024
 Red. masses --      2.5534                 2.3359                 1.3556
 Frc consts  --      1.1157                 1.0545                 0.6477
 IR Inten    --      1.4771                 1.0483                 1.0922

                     25                     26                     27
                      A                      A                      A
 Frequencies --    912.8328               919.4694               938.2163
 Red. masses --      1.3195                 1.4032                 1.9096
 Frc consts  --      0.6478                 0.6989                 0.9904
 IR Inten    --      5.0757                34.6707                 0.5508

                     28                     29                     30
                      A                      A                      A
 Frequencies --   1032.2628              1065.5394              1089.3554
 Red. masses --      1.7997                 1.7924                 2.4179
 Frc consts  --      1.1299                 1.1990                 1.6906
 IR Inten    --      2.0605                 1.0137                 0.8712

                     31                     32                     33
                      A                      A                      A
 Frequencies --   1106.9012              1110.0602              1129.6902
 Red. masses --      1.7103                 1.7988                 1.6614
 Frc consts  --      1.2347                 1.3060                 1.2492
 IR Inten    --      2.3676                 1.9912                 1.6120

                     34                     35                     36
                      A                      A                      A
 Frequencies --   1137.9667              1260.4811              1266.9165
 Red. masses --      1.6792                 1.3515                 1.2364
 Frc consts  --      1.2812                 1.2651                 1.1692
 IR Inten    --      0.3768                 0.4174                 2.3245

                     37                     38                     39
                      A                      A                      A
 Frequencies --   1302.6030              1305.2982              1325.4722
 Red. masses --      1.2644                 1.3418                 2.1823
 Frc consts  --      1.2640                 1.3470                 2.2589
 IR Inten    --      0.2423                 2.0897                 8.6823

                     40                     41                     42
                      A                      A                      A
 Frequencies --   1372.7002              1380.7833              1391.2027
 Red. masses --      1.3087                 1.4348                 1.3849
 Frc consts  --      1.4529                 1.6117                 1.5793
 IR Inten    --     11.3922                 4.9390                14.2775

                     43                     44                     45
                      A                      A                      A
 Frequencies --   1397.9839              1442.6585              1443.3824
 Red. masses --      1.4336                 1.2677                 1.2660
 Frc consts  --      1.6508                 1.5546                 1.5540
 IR Inten    --      4.5549                 5.0034                 5.4926

                     46                     47                     48
                      A                      A                      A
 Frequencies --   1464.9141              1502.8677              1506.6857
 Red. masses --      1.2200                 1.0900                 1.0951
 Frc consts  --      1.5426                 1.4505                 1.4647
 IR Inten    --      1.4788                 5.6475                 3.4448

                     49                     50                     51
                      A                      A                      A
 Frequencies --   1517.8058              1518.9656              1528.8192
 Red. masses --      1.0702                 1.0683                 1.0448
 Frc consts  --      1.4526                 1.4522                 1.4387
 IR Inten    --      0.7086                 1.2627                 4.5264

                     52                     53                     54
                      A                      A                      A
 Frequencies --   1530.3504              1534.3571              1539.1304
 Red. masses --      1.0432                 1.0646                 1.0618
 Frc consts  --      1.4395                 1.4767                 1.4820
 IR Inten    --      4.6534                 2.1714                 4.9937

                     55                     56                     57
                      A                      A                      A
 Frequencies --   1695.3825              2341.7733              3024.7250
 Red. masses --      4.8590                11.8966                 1.0607
 Frc consts  --      8.2288                38.4381                 5.7178
 IR Inten    --     18.7633                 6.8742                28.6218

                     58                     59                     60
                      A                      A                      A
 Frequencies --   3034.3512              3045.6782              3045.7894
 Red. masses --      1.0610                 1.0659                 1.0381
 Frc consts  --      5.7557                 5.8255                 5.6742
 IR Inten    --     22.6317                27.7263                25.7711

                     61                     62                     63
                      A                      A                      A
 Frequencies --   3047.6900              3048.5992              3061.3644
 Red. masses --      1.0383                 1.0595                 1.0945
 Frc consts  --      5.6824                 5.8015                 6.0433
 IR Inten    --     14.1680                40.0097                38.6563

                     64                     65                     66
                      A                      A                      A
 Frequencies --   3074.7423              3085.7626              3087.6809
 Red. masses --      1.1027                 1.1022                 1.1010
 Frc consts  --      6.1420                 6.1836                 6.1847
 IR Inten    --     12.0677                17.7259                27.9588

                     67                     68                     69
                      A                      A                      A
 Frequencies --   3111.0728              3113.9707              3122.9054
 Red. masses --      1.1014                 1.1015                 1.1023
 Frc consts  --      6.2810                 6.2932                 6.3337
 IR Inten    --     51.9667                44.9009                46.7366

                     70                     71                     72
                      A                      A                      A
 Frequencies --   3127.4599              3171.0658              3256.7305
 Red. masses --      1.1025                 1.0591                 1.1171
 Frc consts  --      6.3533                 6.2747                 6.9806
 IR Inten    --     41.7484                 5.8102                11.7393

 - Thermochemistry -
 -------------------
 Temperature   298.150 Kelvin.  Pressure   1.00000 Atm.
 Atom     1 has atomic number  6 and mass  12.00000

 Molecular mass:   136.12520 amu.
 Principal axes and moments of inertia in atomic units:
                           1         2         3
     Eigenvalues --  1039.807102490.937843111.91601
           X            1.00000   0.00174   0.00104
           Y           -0.00174   0.99999  -0.00314
           Z           -0.00104   0.00313   0.99999
 This molecule is an asymmetric top.
 Rotational symmetry number  1.
 Warning -- assumption of classical behavior for rotation
           may cause significant error
 Rotational temperatures (Kelvin)      0.08330     0.03477     0.02783
 Rotational constants (GHZ):           1.73565     0.72452     0.57995
 Zero-point vibrational energy     614411.9 (Joules/Mol)
                                  146.84796 (Kcal/Mol)
 Warning -- explicit consideration of  16 degrees of freedom as
           vibrations may cause significant error
 Vibrational temperatures:     31.16    44.71   100.53   137.19   170.33
          (Kelvin)            183.97   278.98   344.81   372.47   404.23
                              473.00   515.54   534.12   600.34   747.76
                              797.90   917.62   935.89  1070.39  1124.72
                             1166.64  1239.05  1259.39  1295.62  1313.36
                             1322.91  1349.88  1485.20  1533.07  1567.34
                             1592.58  1597.13  1625.37  1637.28  1813.55
                             1822.81  1874.16  1878.03  1907.06  1975.01
                             1986.64  2001.63  2011.39  2075.66  2076.71
                             2107.68  2162.29  2167.78  2183.78  2185.45
                             2199.63  2201.83  2207.60  2214.47  2439.28
                             3369.29  4351.90  4365.75  4382.05  4382.21
                             4384.95  4386.25  4404.62  4423.87  4439.72
                             4442.48  4476.14  4480.31  4493.16  4499.72
                             4562.46  4685.71

 Zero-point correction=                           0.234017 (Hartree/Particle)
 Thermal correction to Energy=                    0.246475
 Thermal correction to Enthalpy=                  0.247419
 Thermal correction to Gibbs Free Energy=         0.193759
 Sum of electronic and zero-point Energies=           -390.439250
 Sum of electronic and thermal Energies=              -390.426792
 Sum of electronic and thermal Enthalpies=            -390.425848
 Sum of electronic and thermal Free Energies=         -390.479508

                     E (Thermal)             CV                S
                      KCal/Mol        Cal/Mol-Kelvin    Cal/Mol-Kelvin
 Total                  154.666             44.274            112.937
 Electronic               0.000              0.000              0.000
 Translational            0.889              2.981             40.637
 Rotational               0.889              2.981             30.467
 Vibrational            152.888             38.312             41.833
 Vibration     1          0.593              1.985              6.476
 Vibration     2          0.594              1.983              5.760
 Vibration     3          0.598              1.968              4.157
 Vibration     4          0.603              1.953              3.547
 Vibration     5          0.609              1.934              3.127
 Vibration     6          0.611              1.925              2.978
 Vibration     7          0.635              1.848              2.190
 Vibration     8          0.657              1.780              1.805
 Vibration     9          0.668              1.748              1.669
 Vibration    10          0.681              1.709              1.528
 Vibration    11          0.712              1.618              1.266
 Vibration    12          0.733              1.558              1.129
 Vibration    13          0.743              1.531              1.075
 Vibration    14          0.780              1.433              0.901
 Vibration    15          0.875              1.206              0.611
 Vibration    16          0.910              1.130              0.535

 Optimization completed.
    -- Stationary point found.
 Normal termination of Gaussian 16 at Tue Dec  8 10:27:45 2020.

 ----------------------------------------------------------------------
 # B3LYP/6-311++G(d,p) empiricaldispersion=gd3bj scf=xqc pop=npa geom=c
 heck
 ----------------------------------------------------------------------

 -------------------------------------
 CID_15584278_JID_214_Energie_neutraal
 -------------------------------------
 Structure from the checkpoint file:  "JID_214.chk"
 Charge =  0 Multiplicity = 1

 SCF Done:  E(RB3LYP) =  -390.782755221     A.U. after   13 cycles
 Normal termination of Gaussian 16 at Tue Dec  8 10:29:45 2020.

 ----------------------------------------------------------------------
 # B3LYP/6-311++G(d,p) empiricaldispersion=gd3bj scf=xqc pop=npa geom=c
 heck
 ----------------------------------------------------------------------

 -----------------------------------
 CID_15584278_JID_214_Energie_kation
 -----------------------------------
 Structure from the checkpoint file:  "JID_214.chk"
 Charge =  1 Multiplicity = 2

 SCF Done:  E(UB3LYP) =  -390.477535969     A.U. after   18 cycles
 Normal termination of Gaussian 16 at Tue Dec  8 10:33:55 2020.
 Gaussian 16:  ES64L-G16RevA.03 25-Dec-2016

 ----------------------------------------------------------------------
 # B3LYP/6-311++G(d,p) empiricaldispersion=gd3bj scf=xqc pop=npa geom=c
 heck
 ----------------------------------------------------------------------

 ----------------------------------
 CID_15584278_JID_214_Energie_anion
 ----------------------------------
 Structure from the checkpoint file:  "JID_214.chk"
 Charge = -1 Multiplicity = 2

                         Standard orientation:
 ---------------------------------------------------------------------
 Center     Atomic      Atomic             Coordinates (Angstroms)
 Number     Number       Type             X           Y           Z
 ---------------------------------------------------------------------
      1          6           0       -2.669167    1.477602    0.188953
      2          6           0       -3.188133    0.061462    0.440424
      3          6           0       -2.540966   -0.993790   -0.484638
      4          6           0       -1.090317   -1.069714   -0.324602
      5          6           0        0.108306   -1.099789   -0.140681
      6          6           0        1.528709   -1.050945    0.017458
      7          6           0        2.162060   -1.833360    0.907037
      8          6           0        2.261985   -0.051521   -0.859053
      9          6           0        1.756539    1.392068   -0.691458
     10          6           0        1.911859    1.923445    0.734599
     11          1           0       -1.589939    1.532950    0.366202
     12          1           0       -3.160363    2.200801    0.848899
     13          1           0       -2.855043    1.787549   -0.846848
     14          1           0       -3.002737   -0.223071    1.483165
     15          1           0       -4.274281    0.024990    0.288019
     16          1           0       -2.781606   -0.751503   -1.529774
     17          1           0       -2.987771   -1.977147   -0.285663
     18          1           0        3.239891   -1.778310    1.029536
     19          1           0        1.623944   -2.543698    1.526351
     20          1           0        3.333223   -0.101215   -0.628329
     21          1           0        2.142885   -0.348515   -1.909839
     22          1           0        2.304561    2.035251   -1.391728
     23          1           0        0.701115    1.432897   -0.987379
     24          1           0        2.961102    1.897061    1.054058
     25          1           0        1.563763    2.959481    0.810960
     26          1           0        1.335997    1.319734    1.444133
 ---------------------------------------------------------------------

 SCF Done:  E(UB3LYP) =  -390.766511224     A.U. after   33 cycles
 SCF Done:  E(UB3LYP) =  -390.766511224     a.u. after    1 cycles

 The electronic state is 2-A.
 Alpha  occ. eigenvalues --  -10.06970 -10.06911 -10.06566 -10.06243 -10.05251
 Alpha  occ. eigenvalues --  -10.04978 -10.03938 -10.03911 -10.03827 -10.03405
 Alpha  occ. eigenvalues --   -0.71201  -0.68552  -0.65389  -0.61389  -0.57436
 Alpha  occ. eigenvalues --   -0.56802  -0.49350  -0.48222  -0.45926  -0.36770
 Alpha  occ. eigenvalues --   -0.35499  -0.35374  -0.33896  -0.33574  -0.30789
 Alpha  occ. eigenvalues --   -0.30656  -0.28688  -0.28369  -0.26183  -0.24968
 Alpha  occ. eigenvalues --   -0.23700  -0.23398  -0.22926  -0.22524  -0.22004
 Alpha  occ. eigenvalues --   -0.18912  -0.13769  -0.11332   0.05322
 Alpha virt. eigenvalues --    0.07214   0.07849   0.08751   0.09288   0.09922
 Alpha virt. eigenvalues --    0.10071   0.10403   0.11404   0.11865   0.12123
 Alpha virt. eigenvalues --    0.13094   0.13381   0.13461   0.14600   0.15553

  Beta  occ. eigenvalues --  -10.06963 -10.06801 -10.06572 -10.06234 -10.05238
  Beta  occ. eigenvalues --  -10.04921 -10.03827 -10.03791 -10.03789 -10.03382
  Beta  occ. eigenvalues --   -0.71026  -0.68445  -0.65255  -0.61261  -0.57369
  Beta  occ. eigenvalues --   -0.56680  -0.49132  -0.48103  -0.45725  -0.36648
  Beta  occ. eigenvalues --   -0.35439  -0.35285  -0.33814  -0.33496  -0.30698
  Beta  occ. eigenvalues --   -0.30562  -0.28638  -0.28328  -0.26107  -0.24825
  Beta  occ. eigenvalues --   -0.23593  -0.23320  -0.22892  -0.22463  -0.21941
  Beta  occ. eigenvalues --   -0.18360  -0.13712  -0.10595
  Beta virt. eigenvalues --    0.07220   0.08287   0.08687   0.08935   0.09866
  Beta virt. eigenvalues --    0.10324   0.10610   0.10836   0.11381   0.12187
  Beta virt. eigenvalues --    0.12615   0.13251   0.13491   0.13662   0.14763

 Mulliken charges and spin densities:
               1          2
     1  C    0.627397  -1.160850
     2  C    0.001598  -0.115062
     3  C   -0.421369   0.066301
     4  C    0.490168  -0.251440
     5  C    0.027182  -0.010357
     6  C    0.729184   0.025845
     7  C   -0.449572  -0.125617
     8  C   -0.900582  -0.054908
     9  C   -0.129406   0.244418
    10  C   -0.053368  -0.615112
    11  H    0.648835  -0.547593
    12  H   -0.425870   0.555202
    13  H   -0.260808   0.392137
    14  H   -0.185666   0.311576
    15  H   -0.840427   0.993217
    16  H   -0.177320   0.326297
    17  H   -0.119384   0.288824
    18  H    0.048272   0.039639
    19  H    0.100474   0.014114
    20  H    0.121215  -0.005395
    21  H    0.130410   0.000224
    22  H    0.111521   0.017608
    23  H    0.078624   0.040418
    24  H   -0.110613   0.234979
    25  H   -0.029455   0.150379
    26  H   -0.011041   0.185156
 Sum of Mulliken charges =  -1.00000   1.00000

 Dipole moment (field-independent basis, Debye):
    X=              7.8898    Y=             -0.1576    Z=             -2.2087  Tot=              8.1947
 Quadrupole moment (field-independent basis, Debye-Ang):
   XX=           -137.4439   YY=            -95.1931   ZZ=            -88.1954
   XY=              5.2815   XZ=             -4.0169   YZ=             -2.9496

 Summary of Natural Population Analysis:

                                       Natural Population
                Natural  -----------------------------------------------
    Atom  No    Charge         Core      Valence    Rydberg      Total
 -----------------------------------------------------------------------
      C    1   -0.28746      0.99966     2.28149    0.00631     3.28746
      C    2   -0.17962      0.99964     2.17159    0.00839     3.17962
      C    3   -0.22660      0.99958     2.21740    0.00962     3.22660
      C    4    0.02445      0.99927     1.96916    0.00711     2.97555
      C    5   -0.03199      0.99924     2.02386    0.00889     3.03199
      C    6   -0.03332      0.99948     2.02494    0.00890     3.03332
      C    7   -0.15511      0.99953     2.14799    0.00759     3.15511
      C    8   -0.19038      0.99960     2.18278    0.00800     3.19038
      C    9   -0.19055      0.99964     2.18291    0.00801     3.19055
      C   10   -0.28962      0.99967     2.28440    0.00555     3.28962
      H   11    0.10012      0.00000     0.39863    0.00125     0.39988
      H   12    0.09872      0.00000     0.40010    0.00118     0.40128
      H   13    0.09404      0.00000     0.40460    0.00135     0.40596
      H   14    0.09404      0.00000     0.40457    0.00139     0.40596
      H   15    0.09947      0.00000     0.39371    0.00682     0.40053
      H   16    0.10726      0.00000     0.39127    0.00146     0.39274
      H   17    0.11099      0.00000     0.38756    0.00144     0.38901
      H   18    0.08507      0.00000     0.41413    0.00080     0.41493
      H   19    0.09305      0.00000     0.40619    0.00076     0.40695
      H   20    0.09303      0.00000     0.40598    0.00099     0.40697
      H   21    0.09935      0.00000     0.39961    0.00104     0.40065
      H   22    0.08876      0.00000     0.41026    0.00098     0.41124
      H   23    0.10198      0.00000     0.39656    0.00146     0.39802
      H   24    0.09222      0.00000     0.40686    0.00092     0.40778
      H   25    0.09612      0.00000     0.40312    0.00076     0.40388
      H   26    0.10598      0.00000     0.39283    0.00119     0.39402
 =======================================================================
   * Total *   -0.00000      9.99533    27.90253    0.10215    38.00000

 Normal termination of Gaussian 16 at Tue Dec  8 10:47:34 2020.
