 Gaussian 16, Revision A.03,

 -----------------------------------------------------------
 # opt freq B3LYP/6-31G(d) empiricaldispersion=gd3bj scf=xqc
 -----------------------------------------------------------

 -----------------------------
 CID_73690570_JID_537_neutraal
 -----------------------------
 Symbolic Z-matrix:
 Charge =  0 Multiplicity = 1

 SCF Done:  E(RB3LYP) =  -531.722855572     A.U. after   15 cycles
 SCF Done:  E(RB3LYP) =  -531.724944824     A.U. after   13 cycles
 SCF Done:  E(RB3LYP) =  -531.720750716     A.U. after   14 cycles
 SCF Done:  E(RB3LYP) =  -531.726574676     A.U. after   12 cycles
 SCF Done:  E(RB3LYP) =  -531.727210047     A.U. after   12 cycles
 SCF Done:  E(RB3LYP) =  -531.727404000     A.U. after   11 cycles
 SCF Done:  E(RB3LYP) =  -531.727614556     A.U. after   11 cycles
 SCF Done:  E(RB3LYP) =  -531.727650955     A.U. after   10 cycles
 SCF Done:  E(RB3LYP) =  -531.727665952     A.U. after   10 cycles
 SCF Done:  E(RB3LYP) =  -531.727669965     A.U. after    8 cycles
 SCF Done:  E(RB3LYP) =  -531.727672620     A.U. after    9 cycles
 SCF Done:  E(RB3LYP) =  -531.727673161     A.U. after    8 cycles
 SCF Done:  E(RB3LYP) =  -531.727673267     A.U. after    7 cycles
 Optimization completed.
    -- Stationary point found.
 Normal termination of Gaussian 16 at Tue Dec  8 12:13:19 2020.

 --------------------------------------------------------------------
 #N Geom=AllCheck Guess=TCheck SCRF=Check GenChk RB3LYP/6-31G(d) Freq
 --------------------------------------------------------------------

 Structure from the checkpoint file:  "JID_537.chk"
 -----------------------------
 CID_73690570_JID_537_neutraal
 -----------------------------
 Charge =  0 Multiplicity = 1

 SCF Done:  E(RB3LYP) =  -531.727673267     A.U. after    1 cycles

  Exact polarizability:  98.047   5.215  71.137  -1.275   1.244  59.887
 Approx polarizability: 129.934  17.977 107.714   0.513   3.089  81.518

                      1                      2                      3
                      A                      A                      A
 Frequencies --     61.0924                87.2455                98.9239
 Red. masses --      3.2078                 3.4529                 3.8167
 Frc consts  --      0.0071                 0.0155                 0.0220
 IR Inten    --      0.6755                 0.8480                 0.5809

                      4                      5                      6
                      A                      A                      A
 Frequencies --    125.1208               162.6138               163.8720
 Red. masses --      1.3665                 2.6779                 1.1064
 Frc consts  --      0.0126                 0.0417                 0.0175
 IR Inten    --      0.8657                 2.7673                 0.5432

                      7                      8                      9
                      A                      A                      A
 Frequencies --    186.2780               200.9384               257.3094
 Red. masses --      1.8098                 1.5489                 3.3821
 Frc consts  --      0.0370                 0.0368                 0.1319
 IR Inten    --      5.6482                 3.4365                 8.2110

                     10                     11                     12
                      A                      A                      A
 Frequencies --    272.2067               334.0521               369.7667
 Red. masses --      3.9633                 3.2506                 6.0333
 Frc consts  --      0.1730                 0.2137                 0.4860
 IR Inten    --      3.1333                 3.6371                 9.8707

                     13                     14                     15
                      A                      A                      A
 Frequencies --    458.1845               524.9052               570.4165
 Red. masses --      4.8406                 3.8657                 3.0313
 Frc consts  --      0.5987                 0.6275                 0.5811
 IR Inten    --      4.3235                 8.0357                 0.5079

                     16                     17                     18
                      A                      A                      A
 Frequencies --    599.4392               683.1119               766.1386
 Red. masses --      2.1592                 4.7121                10.6272
 Frc consts  --      0.4571                 1.2955                 3.6752
 IR Inten    --    108.7979                10.7841                38.3454

                     19                     20                     21
                      A                      A                      A
 Frequencies --    829.2621               835.4921               895.2496
 Red. masses --      3.7722                 2.7380                 4.7253
 Frc consts  --      1.5284                 1.1261                 2.2313
 IR Inten    --     17.1202                74.7524                 2.7614

                     22                     23                     24
                      A                      A                      A
 Frequencies --    990.5307              1082.4812              1090.8983
 Red. masses --      2.1182                 1.8188                 2.9877
 Frc consts  --      1.2245                 1.2556                 2.0949
 IR Inten    --     14.6510                 9.0185                54.1873

                     25                     26                     27
                      A                      A                      A
 Frequencies --   1110.7533              1149.0590              1185.5330
 Red. masses --      5.4793                 3.3441                 1.2746
 Frc consts  --      3.9830                 2.6015                 1.0555
 IR Inten    --     84.9123                45.9234                 0.7101

                     28                     29                     30
                      A                      A                      A
 Frequencies --   1190.1910              1223.4890              1233.2588
 Red. masses --      1.2660                 1.4945                 1.7023
 Frc consts  --      1.0566                 1.3181                 1.5254
 IR Inten    --      1.0032                24.1752                16.1739

                     31                     32                     33
                      A                      A                      A
 Frequencies --   1353.0737              1374.2922              1432.3784
 Red. masses --      3.6911                 3.8344                 1.3751
 Frc consts  --      3.9816                 4.2668                 1.6623
 IR Inten    --    445.8926               230.8114                46.5712

                     34                     35                     36
                      A                      A                      A
 Frequencies --   1459.0511              1495.1439              1499.1581
 Red. masses --      1.2792                 1.1269                 1.1974
 Frc consts  --      1.6045                 1.4842                 1.5855
 IR Inten    --     16.1356                12.2686                29.9670

                     37                     38                     39
                      A                      A                      A
 Frequencies --   1504.1629              1507.8887              1512.5157
 Red. masses --      1.1505                 1.0560                 1.0483
 Frc consts  --      1.5336                 1.4147                 1.4130
 IR Inten    --     18.8350                 8.3850                 4.9885

                     40                     41                     42
                      A                      A                      A
 Frequencies --   1520.2435              1525.9442              1529.0464
 Red. masses --      1.1757                 1.0481                 1.0548
 Frc consts  --      1.6009                 1.4379                 1.4530
 IR Inten    --     17.5451                12.7099                 6.5216

                     43                     44                     45
                      A                      A                      A
 Frequencies --   1718.4071              1822.0106              3070.0722
 Red. masses --      7.7695                 8.9737                 1.0291
 Frc consts  --     13.5174                17.5519                 5.7150
 IR Inten    --    133.8230               453.5873                34.6649

                     46                     47                     48
                      A                      A                      A
 Frequencies --   3076.5365              3080.0616              3142.9363
 Red. masses --      1.0293                 1.0351                 1.1070
 Frc consts  --      5.7398                 5.7855                 6.4425
 IR Inten    --     34.4589                 6.5494                21.5430

                     49                     50                     51
                      A                      A                      A
 Frequencies --   3148.0062              3152.0547              3172.2618
 Red. masses --      1.1006                 1.1077                 1.1042
 Frc consts  --      6.4263                 6.4840                 6.5471
 IR Inten    --      7.9641                20.9136                 4.7861

                     52                     53                     54
                      A                      A                      A
 Frequencies --   3174.9470              3179.6126              3598.2930
 Red. masses --      1.1073                 1.1074                 1.0762
 Frc consts  --      6.5766                 6.5961                 8.2097
 IR Inten    --     24.4016                16.6197                33.9597

 - Thermochemistry -
 -------------------
 Temperature   298.150 Kelvin.  Pressure   1.00000 Atm.
 Atom     1 has atomic number  6 and mass  12.00000

 Molecular mass:   146.06914 amu.
 Principal axes and moments of inertia in atomic units:
                           1         2         3
     Eigenvalues --   732.124482385.101032534.07953
           X            0.99967  -0.02522  -0.00469
           Y            0.02542   0.99845   0.04946
           Z            0.00344  -0.04956   0.99877
 This molecule is an asymmetric top.
 Rotational symmetry number  1.
 Warning -- assumption of classical behavior for rotation
           may cause significant error
 Rotational temperatures (Kelvin)      0.11830     0.03631     0.03418
 Rotational constants (GHZ):           2.46507     0.75667     0.71219
 Zero-point vibrational energy     429375.1 (Joules/Mol)
                                  102.62311 (Kcal/Mol)
 Warning -- explicit consideration of  16 degrees of freedom as
           vibrations may cause significant error
 Vibrational temperatures:     87.90   125.53   142.33   180.02   233.97
          (Kelvin)            235.78   268.01   289.11   370.21   391.64
                              480.63   532.01   659.23   755.22   820.70
                              862.46   982.85  1102.30  1193.12  1202.09
                             1288.06  1425.15  1557.45  1569.56  1598.13
                             1653.24  1705.72  1712.42  1760.33  1774.38
                             1946.77  1977.30  2060.87  2099.25  2151.18
                             2156.95  2164.15  2169.52  2176.17  2187.29
                             2195.49  2199.96  2472.40  2621.47  4417.15
                             4426.45  4431.52  4521.98  4529.28  4535.10
                             4564.18  4568.04  4574.75  5177.14

 Zero-point correction=                           0.163540 (Hartree/Particle)
 Thermal correction to Energy=                    0.174877
 Thermal correction to Enthalpy=                  0.175821
 Thermal correction to Gibbs Free Energy=         0.126209
 Sum of electronic and zero-point Energies=           -531.564133
 Sum of electronic and thermal Energies=              -531.552797
 Sum of electronic and thermal Enthalpies=            -531.551852
 Sum of electronic and thermal Free Energies=         -531.601464

                     E (Thermal)             CV                S
                      KCal/Mol        Cal/Mol-Kelvin    Cal/Mol-Kelvin
 Total                  109.737             39.137            104.416
 Electronic               0.000              0.000              0.000
 Translational            0.889              2.981             40.847
 Rotational               0.889              2.981             29.871
 Vibrational            107.959             33.175             33.698
 Vibration     1          0.597              1.973              4.422
 Vibration     2          0.601              1.958              3.721
 Vibration     3          0.604              1.950              3.475
 Vibration     4          0.610              1.928              3.020
 Vibration     5          0.623              1.888              2.519
 Vibration     6          0.623              1.887              2.505
 Vibration     7          0.632              1.859              2.265
 Vibration     8          0.638              1.839              2.124
 Vibration     9          0.667              1.750              1.680
 Vibration    10          0.675              1.725              1.582
 Vibration    11          0.716              1.608              1.240
 Vibration    12          0.742              1.534              1.081
 Vibration    13          0.816              1.343              0.771
 Vibration    14          0.880              1.195              0.599
 Vibration    15          0.927              1.095              0.503
 Vibration    16          0.958              1.033              0.451

 Optimization completed.
    -- Stationary point found.
 Normal termination of Gaussian 16 at Tue Dec  8 12:17:11 2020.

 ----------------------------------------------------------------------
 # B3LYP/6-311++G(d,p) empiricaldispersion=gd3bj scf=xqc pop=npa geom=c
 heck
 ----------------------------------------------------------------------

 -------------------------------------
 CID_73690570_JID_537_Energie_neutraal
 -------------------------------------
 Structure from the checkpoint file:  "JID_537.chk"
 Charge =  0 Multiplicity = 1

 SCF Done:  E(RB3LYP) =  -531.891549746     A.U. after   14 cycles
 Normal termination of Gaussian 16 at Tue Dec  8 12:22:16 2020.

 ----------------------------------------------------------------------
 # B3LYP/6-311++G(d,p) empiricaldispersion=gd3bj scf=xqc pop=npa geom=c
 heck
 ----------------------------------------------------------------------

 -----------------------------------
 CID_73690570_JID_537_Energie_kation
 -----------------------------------
 Structure from the checkpoint file:  "JID_537.chk"
 Charge =  1 Multiplicity = 2

 SCF Done:  E(UB3LYP) =  -531.575567308     A.U. after   21 cycles
 Normal termination of Gaussian 16 at Tue Dec  8 12:25:45 2020.
 Gaussian 16:  ES64L-G16RevA.03 25-Dec-2016

 ----------------------------------------------------------------------
 # B3LYP/6-311++G(d,p) empiricaldispersion=gd3bj scf=xqc pop=npa geom=c
 heck
 ----------------------------------------------------------------------

 ----------------------------------
 CID_73690570_JID_537_Energie_anion
 ----------------------------------
 Structure from the checkpoint file:  "JID_537.chk"
 Charge = -1 Multiplicity = 2

                         Standard orientation:
 ---------------------------------------------------------------------
 Center     Atomic      Atomic             Coordinates (Angstroms)
 Number     Number       Type             X           Y           Z
 ---------------------------------------------------------------------
      1          6           0        0.888417    0.950277    1.578323
      2          6           0        1.367903    0.097602    0.444229
      3          7           0        0.801110   -0.916875   -0.103420
      4          7           0       -0.469731   -1.243154    0.433471
      5          6           0       -1.625116   -0.596017    0.034251
      6          8           0       -2.731397   -1.096105    0.113295
      7          8           0       -1.377686    0.662928   -0.394480
      8          6           0       -2.551079    1.397027   -0.768845
      9          8           0        2.561506    0.503403   -0.024316
     10          6           0        3.106452   -0.226423   -1.130783
     11          1           0        0.192250    0.385281    2.201055
     12          1           0        0.363422    1.827738    1.189090
     13          1           0        1.743726    1.287450    2.168601
     14          1           0       -0.611752   -2.245900    0.434477
     15          1           0       -3.082442    0.887779   -1.576590
     16          1           0       -3.225035    1.507722    0.084617
     17          1           0       -2.189275    2.370369   -1.101698
     18          1           0        3.292609   -1.267754   -0.853244
     19          1           0        2.416704   -0.208056   -1.979091
     20          1           0        4.041305    0.278968   -1.376603
 ---------------------------------------------------------------------

 SCF Done:  E(UB3LYP) =  -531.874693525     A.U. after   29 cycles

 The electronic state is 2-A.
 Alpha  occ. eigenvalues --  -19.06679 -19.06390 -19.00126 -14.26377 -14.22734
 Alpha  occ. eigenvalues --  -10.22075 -10.17165 -10.11949 -10.11496 -10.07100
 Alpha  occ. eigenvalues --   -1.01476  -0.98815  -0.92118  -0.88736  -0.73945
 Alpha  occ. eigenvalues --   -0.65653  -0.62362  -0.59670  -0.51167  -0.47558
 Alpha  occ. eigenvalues --   -0.44167  -0.41683  -0.39356  -0.38145  -0.37444
 Alpha  occ. eigenvalues --   -0.36367  -0.33850  -0.32873  -0.32215  -0.31029
 Alpha  occ. eigenvalues --   -0.29596  -0.26765  -0.25503  -0.25074  -0.24104
 Alpha  occ. eigenvalues --   -0.20755  -0.19881  -0.17408  -0.13419   0.04763
 Alpha virt. eigenvalues --    0.06816   0.07897   0.08377   0.09970   0.10370
 Alpha virt. eigenvalues --    0.10559   0.10906   0.11185   0.12108   0.12904
 Alpha virt. eigenvalues --    0.13120   0.13738   0.15122   0.16783   0.17123

  Beta  occ. eigenvalues --  -19.06669 -19.06378 -19.00118 -14.26368 -14.22722
  Beta  occ. eigenvalues --  -10.22075 -10.17163 -10.11900 -10.11453 -10.07062
  Beta  occ. eigenvalues --   -1.01462  -0.98797  -0.92105  -0.88722  -0.73921
  Beta  occ. eigenvalues --   -0.65608  -0.62296  -0.59598  -0.51125  -0.47508
  Beta  occ. eigenvalues --   -0.44129  -0.41643  -0.39318  -0.38106  -0.37414
  Beta  occ. eigenvalues --   -0.36333  -0.33799  -0.32828  -0.32173  -0.30990
  Beta  occ. eigenvalues --   -0.29551  -0.26721  -0.25452  -0.25044  -0.24075
  Beta  occ. eigenvalues --   -0.20734  -0.19861  -0.17377  -0.13406
  Beta virt. eigenvalues --    0.07178   0.07976   0.08639   0.08953   0.10615
  Beta virt. eigenvalues --    0.11028   0.11278   0.11454   0.11692   0.12356
  Beta virt. eigenvalues --    0.13209   0.13771   0.13833   0.15339   0.16741

 Mulliken charges and spin densities:
               1          2
     1  C    1.839198  -2.406852
     2  C   -1.083563   1.108985
     3  N   -0.271734   0.208333
     4  N   -0.166211  -0.140665
     5  C    0.120164   0.025933
     6  O   -0.345562   0.015788
     7  O   -0.220392   0.088903
     8  C    1.155177  -1.429061
     9  O   -0.185980   0.103057
    10  C    0.916398  -1.214778
    11  H   -0.088749   0.253017
    12  H   -0.270321   0.496468
    13  H   -0.304651   0.470977
    14  H    0.115350   0.203600
    15  H   -0.201397   0.366788
    16  H   -0.322206   0.500827
    17  H   -0.491894   0.645831
    18  H   -0.385164   0.558274
    19  H   -0.289780   0.467515
    20  H   -0.518682   0.677061
 Sum of Mulliken charges =  -1.00000   1.00000

 Dipole moment (field-independent basis, Debye):
    X=             -1.1672    Y=             -2.9878    Z=              1.3225  Tot=              3.4696
 Quadrupole moment (field-independent basis, Debye-Ang):
   XX=           -124.4574   YY=            -97.7836   ZZ=            -91.7578
   XY=              2.2899   XZ=              3.8701   YZ=             -0.7081

 Summary of Natural Population Analysis:

                                       Natural Population
                Natural  -----------------------------------------------
    Atom  No    Charge         Core      Valence    Rydberg      Total
 -----------------------------------------------------------------------
      C    1   -0.32595      0.99961     2.31963    0.00671     3.32595
      C    2    0.31366      0.99956     1.66868    0.01810     2.68634
      N    3   -0.20543      0.99962     2.69201    0.01380     3.70543
      N    4   -0.24703      0.99966     2.73424    0.01314     3.74703
      C    5    0.45811      0.99969     1.51804    0.02416     2.54189
      O    6   -0.32986      0.99987     3.32417    0.00582     4.32986
      O    7   -0.28282      0.99987     3.27280    0.01015     4.28282
      C    8   -0.09972      0.99959     2.09089    0.00924     3.09972
      O    9   -0.27092      0.99986     3.25986    0.01120     4.27092
      C   10   -0.10030      0.99959     2.09247    0.00823     3.10030
      H   11    0.11217      0.00000     0.38629    0.00154     0.38783
      H   12    0.12194      0.00000     0.37582    0.00224     0.37806
      H   13    0.11151      0.00000     0.38694    0.00155     0.38849
      H   14    0.19325      0.00000     0.30451    0.00224     0.30675
      H   15    0.09057      0.00000     0.40810    0.00133     0.40943
      H   16    0.09096      0.00000     0.40756    0.00149     0.40904
      H   17    0.09551      0.00000     0.40208    0.00240     0.40449
      H   18    0.09005      0.00000     0.40713    0.00282     0.40995
      H   19    0.09315      0.00000     0.40446    0.00238     0.40685
      H   20    0.09115      0.00000     0.40675    0.00211     0.40885
 =======================================================================
   * Total *   -0.00000      9.99691    28.86243    0.14066    39.00000

 Normal termination of Gaussian 16 at Tue Dec  8 12:39:39 2020.
