 Gaussian 16, Revision A.03,

 -----------------------------------------------------------
 # opt freq B3LYP/6-31G(d) empiricaldispersion=gd3bj scf=xqc
 -----------------------------------------------------------

 -----------------------------
 CID_66737868_JID_830_neutraal
 -----------------------------
 Symbolic Z-matrix:
 Charge =  0 Multiplicity = 1

 SCF Done:  E(RB3LYP) =  -513.232526460     A.U. after   16 cycles
 SCF Done:  E(RB3LYP) =  -513.238394612     A.U. after   13 cycles
 SCF Done:  E(RB3LYP) =  -513.241051629     A.U. after   13 cycles
 SCF Done:  E(RB3LYP) =  -513.242128258     A.U. after   13 cycles
 SCF Done:  E(RB3LYP) =  -513.243122556     A.U. after   12 cycles
 SCF Done:  E(RB3LYP) =  -513.243445087     A.U. after   12 cycles
 SCF Done:  E(RB3LYP) =  -513.243716546     A.U. after   12 cycles
 SCF Done:  E(RB3LYP) =  -513.243808287     A.U. after   11 cycles
 SCF Done:  E(RB3LYP) =  -513.243966132     A.U. after   12 cycles
 SCF Done:  E(RB3LYP) =  -513.244044241     A.U. after   12 cycles
 SCF Done:  E(RB3LYP) =  -513.244048160     A.U. after   10 cycles
 SCF Done:  E(RB3LYP) =  -513.244049758     A.U. after   10 cycles
 SCF Done:  E(RB3LYP) =  -513.244050147     A.U. after    8 cycles
 SCF Done:  E(RB3LYP) =  -513.244050238     A.U. after    8 cycles
 SCF Done:  E(RB3LYP) =  -513.244050281     A.U. after    8 cycles
 Optimization completed.
    -- Stationary point found.
 Normal termination of Gaussian 16 at Tue Dec  8 13:05:35 2020.

 --------------------------------------------------------------------
 #N Geom=AllCheck Guess=TCheck SCRF=Check GenChk RB3LYP/6-31G(d) Freq
 --------------------------------------------------------------------

 Structure from the checkpoint file:  "JID_830.chk"
 -----------------------------
 CID_66737868_JID_830_neutraal
 -----------------------------
 Charge =  0 Multiplicity = 1

 SCF Done:  E(RB3LYP) =  -513.244050281     A.U. after    1 cycles

  Exact polarizability:  96.070   0.565 108.520  -2.205   0.328  38.803
 Approx polarizability: 152.919   0.640 208.150  -9.866  -3.887  59.937

                      1                      2                      3
                      A                      A                      A
 Frequencies --     85.8535               131.2299               187.0765
 Red. masses --      6.0055                 4.0012                 3.2038
 Frc consts  --      0.0261                 0.0406                 0.0661
 IR Inten    --      0.8845                 0.9638                 9.3453

                      4                      5                      6
                      A                      A                      A
 Frequencies --    266.9967               280.2389               311.7795
 Red. masses --      1.2063                 3.4695                 3.6495
 Frc consts  --      0.0507                 0.1605                 0.2090
 IR Inten    --    107.7156                 1.7057                10.0216

                      7                      8                      9
                      A                      A                      A
 Frequencies --    331.6302               363.6058               403.8052
 Red. masses --      5.3156                 3.1338                 5.1948
 Frc consts  --      0.3444                 0.2441                 0.4991
 IR Inten    --     32.2046                35.7941                 1.6000

                     10                     11                     12
                      A                      A                      A
 Frequencies --    424.1069               479.8988               482.7649
 Red. masses --      2.7109                 1.2269                 2.8267
 Frc consts  --      0.2873                 0.1665                 0.3881
 IR Inten    --      7.1526               161.7781                 7.2909

                     13                     14                     15
                      A                      A                      A
 Frequencies --    553.3716               561.4111               629.6961
 Red. masses --      4.1800                 3.4822                 5.1152
 Frc consts  --      0.7542                 0.6466                 1.1950
 IR Inten    --      5.1151                16.5777                 1.6440

                     16                     17                     18
                      A                      A                      A
 Frequencies --    666.9732               720.4414               772.4162
 Red. masses --      6.8459                 1.4065                 4.6068
 Frc consts  --      1.7943                 0.4301                 1.6194
 IR Inten    --      6.7934                43.3140                16.1835

                     19                     20                     21
                      A                      A                      A
 Frequencies --    830.8843               900.5214               979.6469
 Red. masses --      4.4218                 1.2758                 2.9041
 Frc consts  --      1.7986                 0.6096                 1.6421
 IR Inten    --     19.3844                 9.8134                28.7409

                     22                     23                     24
                      A                      A                      A
 Frequencies --    989.2898              1031.0339              1154.8637
 Red. masses --      3.5807                 2.7547                 2.7287
 Frc consts  --      2.0647                 1.7253                 2.1442
 IR Inten    --     83.3311                22.9252                81.4393

                     25                     26                     27
                      A                      A                      A
 Frequencies --   1183.0630              1216.3348              1275.9184
 Red. masses --      2.5757                 1.4142                 1.8166
 Frc consts  --      2.1240                 1.2328                 1.7424
 IR Inten    --     57.7253                22.0353               122.6330

                     28                     29                     30
                      A                      A                      A
 Frequencies --   1296.6087              1322.4324              1324.8028
 Red. masses --      1.5695                 1.5175                 1.4774
 Frc consts  --      1.5546                 1.5636                 1.5278
 IR Inten    --    136.1742               132.7931               101.8756

                     31                     32                     33
                      A                      A                      A
 Frequencies --   1382.9802              1451.4701              1479.2598
 Red. masses --      1.4765                 1.9527                 1.5402
 Frc consts  --      1.6639                 2.4239                 1.9857
 IR Inten    --     31.7138                30.6364                39.6810

                     34                     35                     36
                      A                      A                      A
 Frequencies --   1497.3641              1550.3855              1639.0028
 Red. masses --      1.1941                 1.8645                 6.8367
 Frc consts  --      1.5774                 2.6405                10.8207
 IR Inten    --     19.0853                26.0565                28.4932

                     37                     38                     39
                      A                      A                      A
 Frequencies --   1705.4046              1755.3292              3008.1200
 Red. masses --      5.2274                11.0455                 1.0704
 Frc consts  --      8.9576                20.0517                 5.7070
 IR Inten    --    155.5892               347.8668                40.2498

                     40                     41                     42
                      A                      A                      A
 Frequencies --   3154.6667              3175.4193              3194.7159
 Red. masses --      1.0945                 1.0853                 1.0948
 Frc consts  --      6.4174                 6.4476                 6.5836
 IR Inten    --      7.5169                 2.9506                18.3441

                     43                     44                     45
                      A                      A                      A
 Frequencies --   3637.9139              3704.6178              3756.8576
 Red. masses --      1.0777                 1.0642                 1.0662
 Frc consts  --      8.4033                 8.6050                 8.8662
 IR Inten    --     49.7732                66.6947                45.7171

 - Thermochemistry -
 -------------------
 Temperature   298.150 Kelvin.  Pressure   1.00000 Atm.
 Atom     1 has atomic number  6 and mass  12.00000

 Molecular mass:   141.04259 amu.
 Principal axes and moments of inertia in atomic units:
                           1         2         3
     Eigenvalues --  1086.044701160.297822168.25536
           X            0.99998   0.00163   0.00650
           Y           -0.00168   0.99997   0.00710
           Z           -0.00649  -0.00711   0.99995
 This molecule is an asymmetric top.
 Rotational symmetry number  1.
 Warning -- assumption of classical behavior for rotation
           may cause significant error
 Rotational temperatures (Kelvin)      0.07975     0.07465     0.03995
 Rotational constants (GHZ):           1.66176     1.55541     0.83235
 Zero-point vibrational energy     342444.2 (Joules/Mol)
                                   81.84613 (Kcal/Mol)
 Warning -- explicit consideration of  14 degrees of freedom as
           vibrations may cause significant error
 Vibrational temperatures:    123.52   188.81   269.16   384.15   403.20
          (Kelvin)            448.58   477.14   523.15   580.99   610.20
                              690.47   694.59   796.18   807.75   905.99
                              959.63  1036.55  1111.33  1195.46  1295.65
                             1409.49  1423.37  1483.43  1661.59  1702.16
                             1750.03  1835.76  1865.53  1902.69  1906.10
                             1989.80  2088.34  2128.32  2154.37  2230.66
                             2358.16  2453.70  2525.53  4328.01  4538.86
                             4568.72  4596.48  5234.15  5330.12  5405.28

 Zero-point correction=                           0.130430 (Hartree/Particle)
 Thermal correction to Energy=                    0.139594
 Thermal correction to Enthalpy=                  0.140538
 Thermal correction to Gibbs Free Energy=         0.096626
 Sum of electronic and zero-point Energies=           -513.113620
 Sum of electronic and thermal Energies=              -513.104456
 Sum of electronic and thermal Enthalpies=            -513.103512
 Sum of electronic and thermal Free Energies=         -513.147424

                     E (Thermal)             CV                S
                      KCal/Mol        Cal/Mol-Kelvin    Cal/Mol-Kelvin
 Total                   87.596             35.012             92.421
 Electronic               0.000              0.000              0.000
 Translational            0.889              2.981             40.743
 Rotational               0.889              2.981             29.392
 Vibrational             85.819             29.051             22.285
 Vibration     1          0.601              1.959              3.752
 Vibration     2          0.612              1.922              2.928
 Vibration     3          0.632              1.858              2.257
 Vibration     4          0.672              1.734              1.616
 Vibration     5          0.680              1.710              1.532
 Vibration     6          0.700              1.651              1.353
 Vibration     7          0.714              1.612              1.252
 Vibration     8          0.737              1.547              1.107
 Vibration     9          0.769              1.462              0.949
 Vibration    10          0.786              1.418              0.878
 Vibration    11          0.836              1.295              0.710
 Vibration    12          0.839              1.288              0.703
 Vibration    13          0.909              1.132              0.537
 Vibration    14          0.917              1.115              0.521

                           ! Non-Optimized Parameters !
 Normal termination of Gaussian 16 at Tue Dec  8 13:10:24 2020.

 ----------------------------------------------------------------------
 # B3LYP/6-311++G(d,p) empiricaldispersion=gd3bj scf=xqc pop=npa geom=c
 heck
 ----------------------------------------------------------------------

 -------------------------------------
 CID_66737868_JID_830_Energie_neutraal
 -------------------------------------
 Structure from the checkpoint file:  "JID_830.chk"
 Charge =  0 Multiplicity = 1

 SCF Done:  E(RB3LYP) =  -513.416405893     A.U. after   16 cycles
 Normal termination of Gaussian 16 at Tue Dec  8 13:11:34 2020.

 ----------------------------------------------------------------------
 # B3LYP/6-311++G(d,p) empiricaldispersion=gd3bj scf=xqc pop=npa geom=c
 heck
 ----------------------------------------------------------------------

 -----------------------------------
 CID_66737868_JID_830_Energie_kation
 -----------------------------------
 Structure from the checkpoint file:  "JID_830.chk"
 Charge =  1 Multiplicity = 2

 SCF Done:  E(UB3LYP) =  -513.140658948     A.U. after   23 cycles
 Normal termination of Gaussian 16 at Tue Dec  8 13:17:15 2020.
 Gaussian 16:  ES64L-G16RevA.03 25-Dec-2016

 ----------------------------------------------------------------------
 # B3LYP/6-311++G(d,p) empiricaldispersion=gd3bj scf=xqc pop=npa geom=c
 heck
 ----------------------------------------------------------------------

 ----------------------------------
 CID_66737868_JID_830_Energie_anion
 ----------------------------------
 Structure from the checkpoint file:  "JID_830.chk"
 Charge = -1 Multiplicity = 2

                         Standard orientation:
 ---------------------------------------------------------------------
 Center     Atomic      Atomic             Coordinates (Angstroms)
 Number     Number       Type             X           Y           Z
 ---------------------------------------------------------------------
      1          6           0        1.718371    0.515767    0.539185
      2          6           0        0.491958    1.304351    0.066650
      3          8           0        0.587384    2.505377   -0.151213
      4          6           0       -0.775501    0.587878   -0.039953
      5          6           0       -0.952314   -0.766574    0.101605
      6          6           0       -0.000767   -1.847092    0.080916
      7          6           0        1.318740   -1.773230   -0.240911
      8          7           0        2.024704   -0.609798   -0.332633
      9          8           0       -2.290475   -1.134850    0.161261
     10          8           0       -1.861426    1.403610   -0.198787
     11          1           0        1.570967    0.159040    1.570453
     12          1           0        2.557184    1.212199    0.521662
     13          1           0       -0.412432   -2.842087    0.227799
     14          1           0        1.872427   -2.683311   -0.457378
     15          1           0        2.979094   -0.677680   -0.652099
     16          1           0       -2.388563   -2.038844   -0.173766
     17          1           0       -2.638398    0.819574   -0.243272
 ---------------------------------------------------------------------

 SCF Done:  E(UB3LYP) =  -513.417850399     A.U. after   33 cycles
 SCF Done:  E(UB3LYP) =  -513.417850399     a.u. after    1 cycles

 The electronic state is 2-A.
 Alpha  occ. eigenvalues --  -19.03500 -19.00835 -18.94287 -14.20794 -10.09878
 Alpha  occ. eigenvalues --  -10.09317 -10.07892 -10.07818 -10.07807 -10.04043
 Alpha  occ. eigenvalues --   -0.94932  -0.91420  -0.87658  -0.81775  -0.65965
 Alpha  occ. eigenvalues --   -0.63022  -0.56239  -0.52371  -0.47090  -0.42685
 Alpha  occ. eigenvalues --   -0.40754  -0.39210  -0.37339  -0.33813  -0.31467
 Alpha  occ. eigenvalues --   -0.30525  -0.29172  -0.27602  -0.26677  -0.25010
 Alpha  occ. eigenvalues --   -0.23590  -0.23403  -0.20917  -0.20705  -0.13240
 Alpha  occ. eigenvalues --   -0.09882  -0.06027   0.04482
 Alpha virt. eigenvalues --    0.06957   0.07455   0.09555   0.10927   0.11459
 Alpha virt. eigenvalues --    0.12894   0.13512   0.14731   0.15171   0.17549
 Alpha virt. eigenvalues --    0.17879   0.18145   0.18783   0.19063   0.20096

  Beta  occ. eigenvalues --  -19.03440 -19.00830 -18.94020 -14.20618 -10.09682
  Beta  occ. eigenvalues --  -10.09156 -10.07816 -10.07811 -10.07677 -10.04096
  Beta  occ. eigenvalues --   -0.94812  -0.91336  -0.87219  -0.81490  -0.65723
  Beta  occ. eigenvalues --   -0.62723  -0.56147  -0.51954  -0.46842  -0.42521
  Beta  occ. eigenvalues --   -0.40526  -0.39043  -0.37101  -0.33555  -0.31197
  Beta  occ. eigenvalues --   -0.30433  -0.28872  -0.27272  -0.26439  -0.24803
  Beta  occ. eigenvalues --   -0.23422  -0.23185  -0.20300  -0.19805  -0.12785
  Beta  occ. eigenvalues --   -0.09493  -0.05379
  Beta virt. eigenvalues --    0.07595   0.08597   0.09195   0.10133   0.11192
  Beta virt. eigenvalues --    0.11723   0.13301   0.13794   0.15096   0.15578
  Beta virt. eigenvalues --    0.17621   0.18039   0.18595   0.18966   0.19159

 Mulliken charges and spin densities:
               1          2
     1  C    0.371463  -0.562498
     2  C   -0.370284   0.489667
     3  O   -0.386974   0.090769
     4  C    0.622026  -0.549105
     5  C    0.575682  -0.663422
     6  C   -0.477118   0.479099
     7  C    0.212526  -0.510079
     8  N   -0.229332   0.135728
     9  O   -0.334994   0.025088
    10  O   -0.259252  -0.000111
    11  H    0.094277   0.013715
    12  H    0.138010   0.035687
    13  H   -0.391476   0.523408
    14  H   -0.588832   0.698909
    15  H   -0.202761   0.493586
    16  H   -0.058492   0.321528
    17  H    0.285532  -0.021968
 Sum of Mulliken charges =  -1.00000   1.00000

 Dipole moment (field-independent basis, Debye):
    X=             -1.8665    Y=             -0.2102    Z=              1.6141  Tot=              2.4766
 Quadrupole moment (field-independent basis, Debye-Ang):
   XX=            -85.7350   YY=           -103.6491   ZZ=            -72.2893
   XY=              4.3440   XZ=              5.1566   YZ=             -0.8190

 Summary of Natural Population Analysis:

                                       Natural Population
                Natural  -----------------------------------------------
    Atom  No    Charge         Core      Valence    Rydberg      Total
 -----------------------------------------------------------------------
      C    1   -0.12289      0.99959     2.10982    0.01348     3.12289
      C    2    0.25738      0.99962     1.72193    0.02107     2.74262
      O    3   -0.27933      0.99988     3.27280    0.00664     4.27933
      C    4    0.06761      0.99935     1.91725    0.01578     2.93239
      C    5    0.15994      0.99941     1.82756    0.01309     2.84006
      C    6   -0.21298      0.99954     2.20111    0.01233     3.21298
      C    7    0.07395      0.99955     1.91192    0.01458     2.92605
      N    8   -0.28589      0.99969     2.77216    0.01404     3.78589
      O    9   -0.36442      0.99988     3.35630    0.00824     4.36442
      O   10   -0.34449      0.99988     3.33685    0.00777     4.34449
      H   11    0.09024      0.00000     0.40825    0.00151     0.40976
      H   12    0.10247      0.00000     0.39585    0.00168     0.39753
      H   13    0.10115      0.00000     0.39691    0.00194     0.39885
      H   14    0.09103      0.00000     0.40667    0.00230     0.40897
      H   15    0.19237      0.00000     0.30126    0.00637     0.30763
      H   16    0.23785      0.00000     0.25768    0.00447     0.26215
      H   17    0.23600      0.00000     0.26120    0.00280     0.26400
 =======================================================================
   * Total *    0.00000      9.99640    26.85553    0.14808    37.00000

 Normal termination of Gaussian 16 at Tue Dec  8 13:28:55 2020.
