 Gaussian 16, Revision A.03,

 -----------------------------------------------------------
 # opt freq B3LYP/6-31G(d) empiricaldispersion=gd3bj scf=xqc
 -----------------------------------------------------------

 -------------------------------
 CID_116285760_JID_4125_neutraal
 -------------------------------
 Symbolic Z-matrix:
 Charge =  0 Multiplicity = 1

 SCF Done:  E(RB3LYP) =  -723.652973637     A.U. after   15 cycles
 SCF Done:  E(RB3LYP) =  -723.659366740     A.U. after   13 cycles
 SCF Done:  E(RB3LYP) =  -723.660474933     A.U. after   13 cycles
 SCF Done:  E(RB3LYP) =  -723.660416277     A.U. after   12 cycles
 SCF Done:  E(RB3LYP) =  -723.661218002     A.U. after   13 cycles
 SCF Done:  E(RB3LYP) =  -723.662057098     A.U. after   13 cycles
 SCF Done:  E(RB3LYP) =  -723.662277989     A.U. after   11 cycles
 SCF Done:  E(RB3LYP) =  -723.662306625     A.U. after   11 cycles
 SCF Done:  E(RB3LYP) =  -723.662325829     A.U. after   10 cycles
 SCF Done:  E(RB3LYP) =  -723.662334389     A.U. after    9 cycles
 SCF Done:  E(RB3LYP) =  -723.662344207     A.U. after    9 cycles
 SCF Done:  E(RB3LYP) =  -723.662345483     A.U. after    9 cycles
 SCF Done:  E(RB3LYP) =  -723.662346376     A.U. after    9 cycles
 SCF Done:  E(RB3LYP) =  -723.662346680     A.U. after    9 cycles
 SCF Done:  E(RB3LYP) =  -723.662346930     A.U. after    8 cycles
 SCF Done:  E(RB3LYP) =  -723.662346907     A.U. after    8 cycles
 Optimization completed.
    -- Stationary point found.
 Normal termination of Gaussian 16 at Thu Dec 10 09:20:24 2020.

 --------------------------------------------------------------------
 #N Geom=AllCheck Guess=TCheck SCRF=Check GenChk RB3LYP/6-31G(d) Freq
 --------------------------------------------------------------------

 Structure from the checkpoint file:  "JID_4125.chk"
 -------------------------------
 CID_116285760_JID_4125_neutraal
 -------------------------------
 Charge =  0 Multiplicity = 1

 SCF Done:  E(RB3LYP) =  -723.662346907     A.U. after    1 cycles

  Exact polarizability: 120.568  -2.560 102.106  -4.788   3.519  95.473
 Approx polarizability: 151.220  -2.739 151.271 -14.399  15.255 154.059

                      1                      2                      3
                      A                      A                      A
 Frequencies --     26.1855                35.4815                56.6353
 Red. masses --      4.3057                 7.0786                 4.2524
 Frc consts  --      0.0017                 0.0053                 0.0080
 IR Inten    --      0.3505                 0.3750                 0.3021

                      4                      5                      6
                      A                      A                      A
 Frequencies --     73.1120                73.7343               126.2660
 Red. masses --      7.4087                 4.8002                 4.3536
 Frc consts  --      0.0233                 0.0154                 0.0409
 IR Inten    --      0.3996                 0.9661                 4.2666

                      7                      8                      9
                      A                      A                      A
 Frequencies --    168.4366               196.2312               221.9754
 Red. masses --      2.8085                 5.0193                 2.3302
 Frc consts  --      0.0469                 0.1139                 0.0676
 IR Inten    --      1.7582                 5.9209                 0.5436

                     10                     11                     12
                      A                      A                      A
 Frequencies --    244.2862               252.7495               289.6536
 Red. masses --      1.3053                 2.6876                 2.9273
 Frc consts  --      0.0459                 0.1012                 0.1447
 IR Inten    --      0.1656                 2.3351                 2.9514

                     13                     14                     15
                      A                      A                      A
 Frequencies --    324.6473               347.1797               423.6337
 Red. masses --      3.6602                 3.8317                 5.3174
 Frc consts  --      0.2273                 0.2721                 0.5623
 IR Inten    --      1.0706                 2.7962                 1.7402

                     16                     17                     18
                      A                      A                      A
 Frequencies --    443.3183               493.7592               513.8306
 Red. masses --      2.0957                 2.0013                 1.9812
 Frc consts  --      0.2427                 0.2875                 0.3082
 IR Inten    --     40.8021                22.0115                62.7618

                     19                     20                     21
                      A                      A                      A
 Frequencies --    522.5340               575.8653               603.8981
 Red. masses --      3.4257                 2.9709                 3.8068
 Frc consts  --      0.5511                 0.5805                 0.8180
 IR Inten    --     22.5427                66.4540                 7.6687

                     22                     23                     24
                      A                      A                      A
 Frequencies --    645.8799               663.2781               679.2999
 Red. masses --      3.1855                 3.2470                 1.7488
 Frc consts  --      0.7829                 0.8416                 0.4755
 IR Inten    --     18.5909                57.4927                86.4072

                     25                     26                     27
                      A                      A                      A
 Frequencies --    734.8353               775.5029               843.5206
 Red. masses --      6.6111                 1.7510                 2.0873
 Frc consts  --      2.1033                 0.6204                 0.8750
 IR Inten    --     13.7165                14.6489                46.0109

                     28                     29                     30
                      A                      A                      A
 Frequencies --    862.0358               893.1415               936.6159
 Red. masses --      3.7302                 1.7952                 2.3358
 Frc consts  --      1.6332                 0.8437                 1.2073
 IR Inten    --     15.3032                 1.7125                 6.1883

                     31                     32                     33
                      A                      A                      A
 Frequencies --    952.7783               966.8817              1007.4707
 Red. masses --      2.4661                 1.8059                 2.7335
 Frc consts  --      1.3190                 0.9947                 1.6347
 IR Inten    --      2.0975                20.5614                 9.8818

                     34                     35                     36
                      A                      A                      A
 Frequencies --   1051.1163              1063.3461              1076.2739
 Red. masses --      2.5253                 2.6663                 2.4905
 Frc consts  --      1.6438                 1.7762                 1.6997
 IR Inten    --      0.4256                19.1598                10.4878

                     37                     38                     39
                      A                      A                      A
 Frequencies --   1084.9980              1111.0563              1134.7395
 Red. masses --      1.7977                 2.0667                 4.8568
 Frc consts  --      1.2469                 1.5031                 3.6846
 IR Inten    --     25.8304                31.4831               378.9507

                     40                     41                     42
                      A                      A                      A
 Frequencies --   1139.5808              1177.7968              1182.9366
 Red. masses --      1.9156                 2.4894                 2.7329
 Frc consts  --      1.4657                 2.0346                 2.2532
 IR Inten    --      4.3443                17.4558                85.1519

                     43                     44                     45
                      A                      A                      A
 Frequencies --   1225.3830              1245.6379              1293.9707
 Red. masses --      1.2950                 1.3080                 1.1677
 Frc consts  --      1.1457                 1.1958                 1.1519
 IR Inten    --     10.9156                 8.4889                 3.4259

                     46                     47                     48
                      A                      A                      A
 Frequencies --   1297.3076              1332.6329              1340.4699
 Red. masses --      1.2924                 1.5105                 1.3446
 Frc consts  --      1.2815                 1.5804                 1.4236
 IR Inten    --     11.6427                49.6457                 3.6184

                     49                     50                     51
                      A                      A                      A
 Frequencies --   1346.6651              1350.6866              1365.3552
 Red. masses --      1.2559                 1.5584                 2.0883
 Frc consts  --      1.3419                 1.6750                 2.2937
 IR Inten    --      7.0963                18.9050                64.4639

                     52                     53                     54
                      A                      A                      A
 Frequencies --   1404.4351              1418.6435              1436.3638
 Red. masses --      1.2854                 1.3727                 1.8871
 Frc consts  --      1.4938                 1.6277                 2.2939
 IR Inten    --      4.1550                 4.2175                20.7934

                     55                     56                     57
                      A                      A                      A
 Frequencies --   1438.7656              1451.7654              1458.0997
 Red. masses --      1.3249                 1.3917                 1.4440
 Frc consts  --      1.6158                 1.7281                 1.8087
 IR Inten    --     12.1499                 6.0817                21.2899

                     58                     59                     60
                      A                      A                      A
 Frequencies --   1491.4245              1520.9176              1527.8461
 Red. masses --      1.1332                 1.0581                 1.0557
 Frc consts  --      1.4851                 1.4420                 1.4519
 IR Inten    --      5.4770                 2.5379                 0.8637

                     61                     62                     63
                      A                      A                      A
 Frequencies --   1531.7157              1550.5131              1787.8523
 Red. masses --      1.0781                 1.1034                 9.0006
 Frc consts  --      1.4903                 1.5629                16.9506
 IR Inten    --      6.9676                 1.0859               227.4543

                     64                     65                     66
                      A                      A                      A
 Frequencies --   1863.2377              2962.6288              2980.4016
 Red. masses --     10.2741                 1.0732                 1.0817
 Frc consts  --     21.0151                 5.5499                 5.6613
 IR Inten    --    274.1818                72.0751                52.7681

                     67                     68                     69
                      A                      A                      A
 Frequencies --   3016.6074              3047.7345              3081.1246
 Red. masses --      1.0706                 1.0357                 1.0860
 Frc consts  --      5.7398                 5.6681                 6.0744
 IR Inten    --     32.9796                27.1310                27.0791

                     70                     71                     72
                      A                      A                      A
 Frequencies --   3096.2150              3110.2960              3113.4392
 Red. masses --      1.0801                 1.0890                 1.0930
 Frc consts  --      6.1008                 6.2067                 6.2426
 IR Inten    --     36.2811                20.1094                35.2356

                     73                     74                     75
                      A                      A                      A
 Frequencies --   3119.9020              3129.3865              3188.3303
 Red. masses --      1.0918                 1.1029                 1.0949
 Frc consts  --      6.2612                 6.3638                 6.5579
 IR Inten    --      2.8594                26.9229                 1.1954

                     76                     77                     78
                      A                      A                      A
 Frequencies --   3495.8965              3538.6427              3680.8290
 Red. masses --      1.0746                 1.0776                 1.0642
 Frc consts  --      7.7378                 7.9500                 8.4952
 IR Inten    --      2.7216                 9.6554                63.8138

 - Thermochemistry -
 -------------------
 Temperature   298.150 Kelvin.  Pressure   1.00000 Atm.
 Atom     1 has atomic number  6 and mass  12.00000

 Molecular mass:   202.09536 amu.
 Principal axes and moments of inertia in atomic units:
                           1         2         3
     Eigenvalues --  1524.836474142.456604635.82822
           X            1.00000  -0.00004   0.00063
           Y            0.00006   0.99936  -0.03565
           Z           -0.00063   0.03565   0.99936
 This molecule is an asymmetric top.
 Rotational symmetry number  1.
 Warning -- assumption of classical behavior for rotation
           may cause significant error
 Rotational temperatures (Kelvin)      0.05680     0.02091     0.01868
 Rotational constants (GHZ):           1.18356     0.43567     0.38930
 Zero-point vibrational energy     611516.8 (Joules/Mol)
                                  146.15602 (Kcal/Mol)
 Warning -- explicit consideration of  21 degrees of freedom as
           vibrations may cause significant error
 Vibrational temperatures:     37.68    51.05    81.49   105.19   106.09
          (Kelvin)            181.67   242.34   282.33   319.37   351.47
                              363.65   416.75   467.10   499.51   609.51
                              637.84   710.41   739.29   751.81   828.54
                              868.87   929.28   954.31   977.36  1057.26
                             1115.78  1213.64  1240.28  1285.03  1347.58
                             1370.84  1391.13  1449.53  1512.32  1529.92
                             1548.52  1561.07  1598.56  1632.64  1639.60
                             1694.59  1701.98  1763.05  1792.20  1861.74
                             1866.54  1917.36  1928.64  1937.55  1943.34
                             1964.44  2020.67  2041.11  2066.61  2070.06
                             2088.77  2097.88  2145.83  2188.26  2198.23
                             2203.80  2230.84  2572.32  2680.78  4262.56
                             4288.13  4340.23  4385.01  4433.05  4454.76
                             4475.02  4479.54  4488.84  4502.49  4587.30
                             5029.82  5091.32  5295.89

 Zero-point correction=                           0.232914 (Hartree/Particle)
 Thermal correction to Energy=                    0.247290
 Thermal correction to Enthalpy=                  0.248235
 Thermal correction to Gibbs Free Energy=         0.189900
 Sum of electronic and zero-point Energies=           -723.429432
 Sum of electronic and thermal Energies=              -723.415057
 Sum of electronic and thermal Enthalpies=            -723.414112
 Sum of electronic and thermal Free Energies=         -723.472447

                     E (Thermal)             CV                S
                      KCal/Mol        Cal/Mol-Kelvin    Cal/Mol-Kelvin
 Total                  155.177             52.483            122.776
 Electronic               0.000              0.000              0.000
 Translational            0.889              2.981             41.815
 Rotational               0.889              2.981             31.749
 Vibrational            153.400             46.521             49.211
 Vibration     1          0.593              1.985              6.099
 Vibration     2          0.594              1.982              5.497
 Vibration     3          0.596              1.975              4.571
 Vibration     4          0.599              1.967              4.068
 Vibration     5          0.599              1.966              4.051
 Vibration     6          0.611              1.927              3.002
 Vibration     7          0.625              1.881              2.453
 Vibration     8          0.636              1.845              2.168
 Vibration     9          0.648              1.808              1.943
 Vibration    10          0.660              1.772              1.771
 Vibration    11          0.664              1.758              1.711
 Vibration    12          0.686              1.693              1.476
 Vibration    13          0.709              1.626              1.287
 Vibration    14          0.725              1.581              1.179
 Vibration    15          0.786              1.419              0.880
 Vibration    16          0.803              1.376              0.816
 Vibration    17          0.849              1.264              0.674
 Vibration    18          0.869              1.219              0.624
 Vibration    19          0.877              1.200              0.604
 Vibration    20          0.932              1.083              0.493
 Vibration    21          0.962              1.024              0.443

                           ! Non-Optimized Parameters !
 Normal termination of Gaussian 16 at Thu Dec 10 09:28:06 2020.

 ----------------------------------------------------------------------
 # B3LYP/6-311++G(d,p) empiricaldispersion=gd3bj scf=xqc pop=npa geom=c
 heck
 ----------------------------------------------------------------------

 ---------------------------------------
 CID_116285760_JID_4125_Energie_neutraal
 ---------------------------------------
 Structure from the checkpoint file:  "JID_4125.chk"
 Charge =  0 Multiplicity = 1

 SCF Done:  E(RB3LYP) =  -723.890424000     A.U. after   15 cycles
 Normal termination of Gaussian 16 at Thu Dec 10 09:30:58 2020.

 ----------------------------------------------------------------------
 # B3LYP/6-311++G(d,p) empiricaldispersion=gd3bj scf=xqc pop=npa geom=c
 heck
 ----------------------------------------------------------------------

 -------------------------------------
 CID_116285760_JID_4125_Energie_kation
 -------------------------------------
 Structure from the checkpoint file:  "JID_4125.chk"
 Charge =  1 Multiplicity = 2

 SCF Done:  E(UB3LYP) =  -723.586236719     A.U. after   24 cycles
 Normal termination of Gaussian 16 at Thu Dec 10 09:37:21 2020.
 Gaussian 16:  ES64L-G16RevA.03 25-Dec-2016

 ----------------------------------------------------------------------
 # B3LYP/6-311++G(d,p) empiricaldispersion=gd3bj scf=xqc pop=npa geom=c
 heck
 ----------------------------------------------------------------------

 ------------------------------------
 CID_116285760_JID_4125_Energie_anion
 ------------------------------------
 Structure from the checkpoint file:  "JID_4125.chk"
 Charge = -1 Multiplicity = 2

                         Standard orientation:
 ---------------------------------------------------------------------
 Center     Atomic      Atomic             Coordinates (Angstroms)
 Number     Number       Type             X           Y           Z
 ---------------------------------------------------------------------
      1          6           0       -3.503817    0.855527   -0.644176
      2          6           0       -2.308885   -0.073582   -0.479699
      3          6           0       -1.389194    0.302351    0.716004
      4          6           0       -0.836752   -1.063756    1.231652
      5          6           0       -1.481038   -2.107425    0.302692
      6          7           0       -2.711833   -1.440945   -0.129410
      7          6           0       -0.374049    1.375277    0.379949
      8          8           0       -0.318794    2.456017    0.945943
      9          7           0        0.425060    1.206456   -0.748909
     10          8           0        0.766758   -0.106257   -1.180489
     11          6           0        2.159882   -0.286082   -1.250793
     12          6           0        2.874412   -0.272579    0.095514
     13          8           0        2.360238   -0.157043    1.181435
     14          8           0        4.205489   -0.411990   -0.095514
     15          1           0       -4.129345    0.548245   -1.490819
     16          1           0       -3.172737    1.883879   -0.827210
     17          1           0       -4.120588    0.839780    0.260414
     18          1           0       -1.707266   -0.053095   -1.403956
     19          1           0       -2.002475    0.759101    1.496090
     20          1           0       -1.170818   -1.210596    2.262061
     21          1           0        0.250336   -1.110229    1.223312
     22          1           0       -1.709061   -3.048407    0.814979
     23          1           0       -0.796259   -2.329963   -0.534768
     24          1           0       -3.139783   -1.910394   -0.925514
     25          1           0        1.198530    1.864123   -0.806259
     26          1           0        2.304056   -1.265754   -1.716959
     27          1           0        2.632410    0.458745   -1.910548
     28          1           0        4.617531   -0.408227    0.789558
 ---------------------------------------------------------------------

 SCF Done:  E(UB3LYP) =  -723.884673940     A.U. after   32 cycles

 The electronic state is 2-A.
 Alpha  occ. eigenvalues --  -19.08805 -19.07316 -19.02713 -19.00584 -14.28769
 Alpha  occ. eigenvalues --  -14.20603 -10.21699 -10.18563 -10.14915 -10.11002
 Alpha  occ. eigenvalues --  -10.09482 -10.08983 -10.07417 -10.07083  -1.02300
 Alpha  occ. eigenvalues --   -1.00809  -0.94880  -0.93157  -0.83178  -0.77553
 Alpha  occ. eigenvalues --   -0.68546  -0.66635  -0.64753  -0.58953  -0.52822
 Alpha  occ. eigenvalues --   -0.52631  -0.49633  -0.48475  -0.44465  -0.42577
 Alpha  occ. eigenvalues --   -0.41899  -0.39416  -0.39200  -0.38072  -0.36363
 Alpha  occ. eigenvalues --   -0.35578  -0.34306  -0.33472  -0.32481  -0.31818
 Alpha  occ. eigenvalues --   -0.30978  -0.29204  -0.28490  -0.28007  -0.26914
 Alpha  occ. eigenvalues --   -0.25777  -0.25245  -0.23658  -0.23428  -0.22860
 Alpha  occ. eigenvalues --   -0.19736  -0.17940  -0.14786  -0.14004   0.04096
 Alpha virt. eigenvalues --    0.06204   0.07371   0.07630   0.08151   0.08611
 Alpha virt. eigenvalues --    0.08935   0.09569   0.10514   0.10971   0.11067
 Alpha virt. eigenvalues --    0.11740   0.12508   0.13661   0.13801   0.14243

  Beta  occ. eigenvalues --  -19.08797 -19.07238 -19.02698 -19.00582 -14.28750
  Beta  occ. eigenvalues --  -14.20591 -10.21696 -10.18561 -10.14835 -10.10998
  Beta  occ. eigenvalues --  -10.09469 -10.08981 -10.07412 -10.07080  -1.02242
  Beta  occ. eigenvalues --   -1.00760  -0.94876  -0.93077  -0.83163  -0.77516
  Beta  occ. eigenvalues --   -0.68530  -0.66622  -0.64611  -0.58933  -0.52731
  Beta  occ. eigenvalues --   -0.52572  -0.49603  -0.48455  -0.44372  -0.42515
  Beta  occ. eigenvalues --   -0.41839  -0.39371  -0.39139  -0.38056  -0.36342
  Beta  occ. eigenvalues --   -0.35557  -0.34273  -0.33447  -0.32453  -0.31777
  Beta  occ. eigenvalues --   -0.30943  -0.29181  -0.28477  -0.27968  -0.26895
  Beta  occ. eigenvalues --   -0.25755  -0.25214  -0.23631  -0.23394  -0.22846
  Beta  occ. eigenvalues --   -0.19694  -0.17931  -0.14766  -0.13978
  Beta virt. eigenvalues --    0.06330   0.07486   0.07756   0.08224   0.08420
  Beta virt. eigenvalues --    0.08943   0.09424   0.10281   0.10615   0.11006
  Beta virt. eigenvalues --    0.11230   0.12105   0.12722   0.13673   0.14044

 Mulliken charges and spin densities:
               1          2
     1  C   -0.435546  -0.214470
     2  C   -0.462145  -0.009466
     3  C    0.615416   0.083089
     4  C   -0.600596   0.012284
     5  C    0.246623  -0.558629
     6  N   -0.116472   0.046666
     7  C   -0.076260  -0.291726
     8  O   -0.298751   0.011545
     9  N   -0.324792   0.047802
    10  O    0.022581   0.091329
    11  C    2.704392  -3.136762
    12  C   -0.684813   0.803567
    13  O   -0.200424  -0.040399
    14  O   -0.209991   0.082226
    15  H    0.014002   0.114312
    16  H    0.164110  -0.005819
    17  H    0.132463   0.016349
    18  H    0.002312   0.215185
    19  H    0.225935   0.028892
    20  H    0.116914   0.021609
    21  H    0.166061   0.044319
    22  H   -0.000529   0.158539
    23  H   -0.054695   0.222551
    24  H    0.102158   0.122066
    25  H    0.075472   0.231605
    26  H   -0.817655   1.056993
    27  H   -0.473416   0.708526
    28  H   -0.832357   1.137817
 Sum of Mulliken charges =  -1.00000   1.00000

 Dipole moment (field-independent basis, Debye):
    X=             -8.8270    Y=              0.4771    Z=              0.6705  Tot=              8.8652
 Quadrupole moment (field-independent basis, Debye-Ang):
   XX=           -163.0076   YY=           -120.3231   ZZ=           -117.3740
   XY=              4.4439   XZ=              1.5370   YZ=             -5.8848

 Summary of Natural Population Analysis:

                                       Natural Population
                Natural  -----------------------------------------------
    Atom  No    Charge         Core      Valence    Rydberg      Total
 -----------------------------------------------------------------------
      C    1   -0.28594      0.99964     2.28117    0.00512     3.28594
      C    2   -0.01149      0.99959     1.99896    0.01294     3.01149
      C    3   -0.15011      0.99953     2.13899    0.01159     3.15011
      C    4   -0.19177      0.99961     2.18387    0.00829     3.19177
      C    5   -0.08916      0.99964     2.07891    0.01061     3.08916
      N    6   -0.34483      0.99973     2.83427    0.01083     3.84483
      C    7    0.34764      0.99963     1.62910    0.02363     2.65236
      O    8   -0.30754      0.99988     3.30223    0.00544     4.30754
      N    9   -0.16950      0.99963     2.65705    0.01282     3.66950
      O   10   -0.21105      0.99989     3.19886    0.01230     4.21105
      C   11   -0.06333      0.99955     2.04922    0.01456     3.06333
      C   12    0.39247      0.99974     1.58270    0.02509     2.60753
      O   13   -0.30159      0.99986     3.29457    0.00715     4.30159
      O   14   -0.34081      0.99988     3.33378    0.00716     4.34081
      H   15    0.09706      0.00000     0.40214    0.00080     0.40294
      H   16    0.10269      0.00000     0.39663    0.00069     0.39731
      H   17    0.09945      0.00000     0.39950    0.00104     0.40055
      H   18    0.09069      0.00000     0.40706    0.00225     0.40931
      H   19    0.11030      0.00000     0.38827    0.00144     0.38970
      H   20    0.09668      0.00000     0.40239    0.00093     0.40332
      H   21    0.11944      0.00000     0.37884    0.00172     0.38056
      H   22    0.09153      0.00000     0.40745    0.00102     0.40847
      H   23    0.08559      0.00000     0.41229    0.00212     0.41441
      H   24    0.17496      0.00000     0.32262    0.00242     0.32504
      H   25    0.18696      0.00000     0.31038    0.00266     0.31304
      H   26    0.11981      0.00000     0.37536    0.00483     0.38019
      H   27    0.10167      0.00000     0.39484    0.00348     0.39833
      H   28    0.25017      0.00000     0.21398    0.03585     0.24983
 =======================================================================
   * Total *    0.00000     13.99581    39.77539    0.22880    54.00000

 Normal termination of Gaussian 16 at Thu Dec 10 09:45:59 2020.
