 Gaussian 16, Revision A.03,

 -----------------------------------------------------------
 # opt freq B3LYP/6-31G(d) empiricaldispersion=gd3bj scf=xqc
 -----------------------------------------------------------

 -------------------------------
 CID_116073162_JID_9712_neutraal
 -------------------------------
 Symbolic Z-matrix:
 Charge =  0 Multiplicity = 1

 SCF Done:  E(RB3LYP) =  -1688.61197092     A.U. after   15 cycles
 SCF Done:  E(RB3LYP) =  -1688.62158326     A.U. after   14 cycles
 SCF Done:  E(RB3LYP) =  -1688.61879133     A.U. after   15 cycles
 SCF Done:  E(RB3LYP) =  -1688.62057655     A.U. after   15 cycles
 SCF Done:  E(RB3LYP) =  -1688.62279628     A.U. after   10 cycles
 SCF Done:  E(RB3LYP) =  -1688.62336039     A.U. after   14 cycles
 SCF Done:  E(RB3LYP) =  -1688.62342723     A.U. after   13 cycles
 SCF Done:  E(RB3LYP) =  -1688.62352050     A.U. after   11 cycles
 SCF Done:  E(RB3LYP) =  -1688.62358012     A.U. after   13 cycles
 SCF Done:  E(RB3LYP) =  -1688.62364546     A.U. after   14 cycles
 SCF Done:  E(RB3LYP) =  -1688.62447936     A.U. after    9 cycles
 SCF Done:  E(RB3LYP) =  -1688.62447935     A.U. after    8 cycles
 SCF Done:  E(RB3LYP) =  -1688.62447929     A.U. after    9 cycles
 SCF Done:  E(RB3LYP) =  -1688.62447925     A.U. after    8 cycles
 SCF Done:  E(RB3LYP) =  -1688.62447924     A.U. after    8 cycles
 Optimization completed.
    -- Stationary point found.
 Normal termination of Gaussian 16 at Sun Dec 13 21:13:33 2020.

 --------------------------------------------------------------------
 #N Geom=AllCheck Guess=TCheck SCRF=Check GenChk RB3LYP/6-31G(d) Freq
 --------------------------------------------------------------------

 Structure from the checkpoint file:  "JID_9712.chk"
 -------------------------------
 CID_116073162_JID_9712_neutraal
 -------------------------------
 Charge =  0 Multiplicity = 1

 SCF Done:  E(RB3LYP) =  -1688.62447924     A.U. after    1 cycles

  Exact polarizability: 204.655 -13.076 165.781  17.505  19.760 138.714
 Approx polarizability: 285.161 -28.422 288.061  46.533  54.644 242.162

                      1                      2                      3
                      A                      A                      A
 Frequencies --      7.0253                25.7781                39.4426
 Red. masses --      4.1669                 6.3230                 5.4735
 Frc consts  --      0.0001                 0.0025                 0.0050
 IR Inten    --      0.5056                 1.2449                 2.6073

                      4                      5                      6
                      A                      A                      A
 Frequencies --     68.4336                94.3959               106.3356
 Red. masses --      3.3090                13.0616                 6.7156
 Frc consts  --      0.0091                 0.0686                 0.0447
 IR Inten    --      0.5046                 0.3501                 5.6135

                      7                      8                      9
                      A                      A                      A
 Frequencies --    116.2303               131.2165               146.0392
 Red. masses --      3.8192                 2.8640                 6.9916
 Frc consts  --      0.0304                 0.0291                 0.0879
 IR Inten    --      1.1893                 5.8420                13.8402

                     10                     11                     12
                      A                      A                      A
 Frequencies --    158.7529               168.4306               216.4478
 Red. masses --      2.6611                 3.0940                 1.9329
 Frc consts  --      0.0395                 0.0517                 0.0534
 IR Inten    --      1.1069                 5.5294                64.0960

                     13                     14                     15
                      A                      A                      A
 Frequencies --    227.9396               234.5189               235.3939
 Red. masses --      1.6256                 5.4440                 2.5796
 Frc consts  --      0.0498                 0.1764                 0.0842
 IR Inten    --    102.3412                 3.1947                10.9131

                     16                     17                     18
                      A                      A                      A
 Frequencies --    245.3572               264.7914               270.7477
 Red. masses --      1.3355                 1.4355                 2.7683
 Frc consts  --      0.0474                 0.0593                 0.1196
 IR Inten    --      0.5727                 2.3994                 4.1248

                     19                     20                     21
                      A                      A                      A
 Frequencies --    298.7844               312.0093               322.6207
 Red. masses --      3.5616                 5.3541                 3.4262
 Frc consts  --      0.1873                 0.3071                 0.2101
 IR Inten    --      4.9031                 4.4579                 1.6587

                     22                     23                     24
                      A                      A                      A
 Frequencies --    338.9945               344.6103               378.9302
 Red. masses --      2.7289                 3.3453                 3.2625
 Frc consts  --      0.1848                 0.2341                 0.2760
 IR Inten    --      3.4817                 7.3309                 0.2926

                     25                     26                     27
                      A                      A                      A
 Frequencies --    388.1522               409.4799               468.8761
 Red. masses --      7.0377                11.2287                 3.5773
 Frc consts  --      0.6247                 1.1093                 0.4634
 IR Inten    --      0.3989                 0.9671                 4.7638

                     28                     29                     30
                      A                      A                      A
 Frequencies --    480.6463               491.3417               529.0741
 Red. masses --      4.2523                 3.2929                 3.7200
 Frc consts  --      0.5788                 0.4684                 0.6135
 IR Inten    --      8.9806                 2.7085                40.5319

                     31                     32                     33
                      A                      A                      A
 Frequencies --    533.7066               564.0851               565.4259
 Red. masses --      8.1227                 4.0297                 1.8139
 Frc consts  --      1.3632                 0.7555                 0.3417
 IR Inten    --      3.9328                89.0244                17.6457

                     34                     35                     36
                      A                      A                      A
 Frequencies --    607.0109               621.3347               634.3544
 Red. masses --      1.6037                 3.6348                 2.5875
 Frc consts  --      0.3482                 0.8268                 0.6135
 IR Inten    --    102.9124               190.5547                 5.9424

                     37                     38                     39
                      A                      A                      A
 Frequencies --    685.7264               751.7293               759.4450
 Red. masses --      7.3078                 5.0623                 8.0574
 Frc consts  --      2.0246                 1.6855                 2.7380
 IR Inten    --     68.5227                 1.1442                 9.8567

                     40                     41                     42
                      A                      A                      A
 Frequencies --    759.8298               777.9400               878.6668
 Red. masses --     10.5073                 3.4071                 2.9404
 Frc consts  --      3.5742                 1.2149                 1.3375
 IR Inten    --     13.2953                 9.0308                32.8645

                     43                     44                     45
                      A                      A                      A
 Frequencies --    882.8049               907.7299               938.0950
 Red. masses --      1.3892                 4.2704                 1.8756
 Frc consts  --      0.6379                 2.0732                 0.9725
 IR Inten    --      6.4349                 8.5648                 3.9978

                     46                     47                     48
                      A                      A                      A
 Frequencies --    952.8874               980.4579               994.5868
 Red. masses --      1.6596                 1.9071                 3.9090
 Frc consts  --      0.8878                 1.0802                 2.2782
 IR Inten    --      7.2642                12.6584                43.8001

                     49                     50                     51
                      A                      A                      A
 Frequencies --   1010.3804              1043.1396              1067.4746
 Red. masses --      3.9006                 1.6352                 1.4661
 Frc consts  --      2.3461                 1.0484                 0.9843
 IR Inten    --    205.1918                 3.1766                 1.2191

                     52                     53                     54
                      A                      A                      A
 Frequencies --   1124.8960              1160.3094              1162.9620
 Red. masses --      9.2834                 2.6351                 4.1439
 Frc consts  --      6.9212                 2.0903                 3.3021
 IR Inten    --    242.7366                15.0675               149.3864

                     55                     56                     57
                      A                      A                      A
 Frequencies --   1186.5568              1213.2097              1214.9173
 Red. masses --      1.3539                 1.9533                 1.5491
 Frc consts  --      1.1231                 1.6939                 1.3472
 IR Inten    --      2.6204                14.1583                22.3693

                     58                     59                     60
                      A                      A                      A
 Frequencies --   1228.5979              1249.4669              1270.3723
 Red. masses --      1.8184                 2.0256                 2.4426
 Frc consts  --      1.6172                 1.8632                 2.3226
 IR Inten    --     35.6819                19.0098                16.4302

                     61                     62                     63
                      A                      A                      A
 Frequencies --   1312.5395              1321.8160              1336.9158
 Red. masses --      1.4170                 5.6575                 8.7784
 Frc consts  --      1.4382                 5.8240                 9.2443
 IR Inten    --     17.2481               150.3632               143.1993

                     64                     65                     66
                      A                      A                      A
 Frequencies --   1369.5939              1419.8172              1430.7181
 Red. masses --      8.2197                 1.3570                 1.2632
 Frc consts  --      9.0842                 1.6117                 1.5235
 IR Inten    --    126.5391                83.4290                12.1375

                     67                     68                     69
                      A                      A                      A
 Frequencies --   1431.8248              1445.9432              1460.4521
 Red. masses --      4.5421                 1.4114                 1.2610
 Frc consts  --      5.4864                 1.7387                 1.5846
 IR Inten    --    289.7873                48.4868                20.7966

                     70                     71                     72
                      A                      A                      A
 Frequencies --   1502.6858              1512.0818              1516.1219
 Red. masses --      1.1504                 1.0491                 1.0484
 Frc consts  --      1.5305                 1.4133                 1.4198
 IR Inten    --      2.5454                 0.2456                 6.6701

                     73                     74                     75
                      A                      A                      A
 Frequencies --   1517.3446              1527.0347              1528.4011
 Red. masses --      1.0640                 2.1882                 1.1411
 Frc consts  --      1.4434                 3.0063                 1.5706
 IR Inten    --      3.5267                64.6336                 5.2666

                     76                     77                     78
                      A                      A                      A
 Frequencies --   1533.3798              1537.3651              1550.9106
 Red. masses --      1.0865                 1.0736                 1.0827
 Frc consts  --      1.5052                 1.4950                 1.5343
 IR Inten    --     16.7701                 2.8870                 4.7777

                     79                     80                     81
                      A                      A                      A
 Frequencies --   1583.6120              1616.7234              1649.0138
 Red. masses --      7.0140                 7.7323                 1.8649
 Frc consts  --     10.3637                11.9078                 2.9878
 IR Inten    --     96.0550               283.8028               286.5494

                     82                     83                     84
                      A                      A                      A
 Frequencies --   2997.3788              3008.5871              3042.0454
 Red. masses --      1.0487                 1.0420                 1.1077
 Frc consts  --      5.5514                 5.5571                 6.0396
 IR Inten    --     26.7942                85.7323                45.2186

                     85                     86                     87
                      A                      A                      A
 Frequencies --   3055.4909              3065.1332              3070.9191
 Red. masses --      1.1061                 1.0399                 1.0398
 Frc consts  --      6.0840                 5.7561                 5.7775
 IR Inten    --     41.7270                11.0571                28.5162

                     88                     89                     90
                      A                      A                      A
 Frequencies --   3136.1207              3141.5639              3148.6909
 Red. masses --      1.0968                 1.0993                 1.0982
 Frc consts  --      6.3559                 6.3925                 6.4150
 IR Inten    --     15.2251                25.0486                22.7747

                     91                     92                     93
                      A                      A                      A
 Frequencies --   3162.8353              3167.1194              3267.9164
 Red. masses --      1.1031                 1.1013                 1.0942
 Frc consts  --      6.5014                 6.5086                 6.8847
 IR Inten    --      8.2914                16.1474                 8.1630

                     94                     95                     96
                      A                      A                      A
 Frequencies --   3530.1735              3534.1070              3700.2842
 Red. masses --      1.0505                 1.0745                 1.0994
 Frc consts  --      7.7131                 7.9071                 8.8691
 IR Inten    --    150.8046                68.2189                93.1556

 - Thermochemistry -
 -------------------
 Temperature   298.150 Kelvin.  Pressure   1.00000 Atm.
 Atom     1 has atomic number  6 and mass  12.00000

 Molecular mass:   309.04531 amu.
 Principal axes and moments of inertia in atomic units:
                           1         2         3
     Eigenvalues --  3828.985219270.35559**********
           X            0.99963   0.02638  -0.00647
           Y           -0.02620   0.99933   0.02563
           Z            0.00714  -0.02545   0.99965
 This molecule is an asymmetric top.
 Rotational symmetry number  1.
 Warning -- assumption of classical behavior for rotation
           may cause significant error
 Rotational temperatures (Kelvin)      0.02262     0.00934     0.00827
 Rotational constants (GHZ):           0.47134     0.19468     0.17240
 Zero-point vibrational energy     684153.6 (Joules/Mol)
                                  163.51665 (Kcal/Mol)
 Warning -- explicit consideration of  34 degrees of freedom as
           vibrations may cause significant error
 Vibrational temperatures:     10.11    37.09    56.75    98.46   135.81
          (Kelvin)            152.99   167.23   188.79   210.12   228.41
                              242.33   311.42   327.95   337.42   338.68
                              353.01   380.98   389.55   429.88   448.91
                              464.18   487.74   495.82   545.20   558.46
                              589.15   674.61   691.54   706.93   761.22
                              767.88   811.59   813.52   873.35   893.96
                              912.69   986.61  1081.57  1092.67  1093.23
                             1119.28  1264.21  1270.16  1306.02  1349.71
                             1370.99  1410.66  1430.99  1453.71  1500.85
                             1535.86  1618.47  1669.43  1673.24  1707.19
                             1745.54  1748.00  1767.68  1797.70  1827.78
                             1888.45  1901.80  1923.52  1970.54  2042.80
                             2058.48  2060.08  2080.39  2101.26  2162.03
                             2175.55  2181.36  2183.12  2197.06  2199.03
                             2206.19  2211.93  2231.41  2278.46  2326.10
                             2372.56  4312.56  4328.69  4376.82  4396.17
                             4410.04  4418.37  4512.18  4520.01  4530.26
                             4550.61  4556.78  4701.80  5079.13  5084.79
                             5323.88

 Zero-point correction=                           0.260580 (Hartree/Particle)
 Thermal correction to Energy=                    0.281131
 Thermal correction to Enthalpy=                  0.282076
 Thermal correction to Gibbs Free Energy=         0.209355
 Sum of electronic and zero-point Energies=          -1688.363899
 Sum of electronic and thermal Energies=             -1688.343348
 Sum of electronic and thermal Enthalpies=           -1688.342404
 Sum of electronic and thermal Free Energies=        -1688.415124

                     E (Thermal)             CV                S
                      KCal/Mol        Cal/Mol-Kelvin    Cal/Mol-Kelvin
 Total                  176.413             75.313            153.053
 Electronic               0.000              0.000              0.000
 Translational            0.889              2.981             43.081
 Rotational               0.889              2.981             34.273
 Vibrational            174.635             69.352             75.698
 Vibration     1          0.593              1.987              8.713
 Vibration     2          0.593              1.985              6.130
 Vibration     3          0.594              1.981              5.287
 Vibration     4          0.598              1.969              4.198
 Vibration     5          0.603              1.953              3.567
 Vibration     6          0.605              1.944              3.335
 Vibration     7          0.608              1.936              3.162
 Vibration     8          0.612              1.922              2.928
 Vibration     9          0.617              1.907              2.723
 Vibration    10          0.621              1.893              2.565
 Vibration    11          0.625              1.881              2.453
 Vibration    12          0.645              1.816              1.989
 Vibration    13          0.651              1.798              1.895
 Vibration    14          0.654              1.788              1.844
 Vibration    15          0.655              1.787              1.837
 Vibration    16          0.660              1.770              1.764
 Vibration    17          0.671              1.738              1.630
 Vibration    18          0.674              1.727              1.591
 Vibration    19          0.692              1.676              1.424
 Vibration    20          0.700              1.651              1.352
 Vibration    21          0.708              1.630              1.297
 Vibration    22          0.719              1.598              1.217
 Vibration    23          0.723              1.586              1.191
 Vibration    24          0.749              1.515              1.043
 Vibration    25          0.756              1.495              1.007
 Vibration    26          0.774              1.450              0.928
 Vibration    27          0.826              1.319              0.741
 Vibration    28          0.837              1.293              0.708
 Vibration    29          0.847              1.269              0.680
 Vibration    30          0.884              1.186              0.589
 Vibration    31          0.889              1.175              0.579
 Vibration    32          0.920              1.109              0.516
 Vibration    33          0.921              1.106              0.513
 Vibration    34          0.966              1.017              0.438

 Optimization completed.
    -- Stationary point found.
 Normal termination of Gaussian 16 at Sun Dec 13 21:31:00 2020.

 ----------------------------------------------------------------------
 # B3LYP/6-311++G(d,p) empiricaldispersion=gd3bj scf=xqc pop=npa geom=c
 heck
 ----------------------------------------------------------------------

 ---------------------------------------
 CID_116073162_JID_9712_Energie_neutraal
 ---------------------------------------
 Structure from the checkpoint file:  "JID_9712.chk"
 Charge =  0 Multiplicity = 1

 SCF Done:  E(RB3LYP) =  -1688.94800008     A.U. after   17 cycles
 Normal termination of Gaussian 16 at Sun Dec 13 21:39:55 2020.

 ----------------------------------------------------------------------
 # B3LYP/6-311++G(d,p) empiricaldispersion=gd3bj scf=xqc pop=npa geom=c
 heck
 ----------------------------------------------------------------------

 -------------------------------------
 CID_116073162_JID_9712_Energie_kation
 -------------------------------------
 Structure from the checkpoint file:  "JID_9712.chk"
 Charge =  1 Multiplicity = 2

 SCF Done:  E(UB3LYP) =  -1688.64062606     A.U. after   30 cycles
 Normal termination of Gaussian 16 at Sun Dec 13 22:02:00 2020.
 Gaussian 16:  ES64L-G16RevA.03 25-Dec-2016

 ----------------------------------------------------------------------
 # B3LYP/6-311++G(d,p) empiricaldispersion=gd3bj scf=xqc pop=npa geom=c
 heck
 ----------------------------------------------------------------------

 ------------------------------------
 CID_116073162_JID_9712_Energie_anion
 ------------------------------------
 Structure from the checkpoint file:  "JID_9712.chk"
 Charge = -1 Multiplicity = 2

                         Standard orientation:
 ---------------------------------------------------------------------
 Center     Atomic      Atomic             Coordinates (Angstroms)
 Number     Number       Type             X           Y           Z
 ---------------------------------------------------------------------
      1          6           0        1.301059    0.651057   -1.656974
      2          6           0        2.372552   -0.138541   -0.886531
      3          6           0        2.653569   -1.486919   -1.554416
      4          6           0        3.677296    0.671413   -0.841653
      5          8           0        3.433201    1.869635   -0.127625
      6          6           0        4.601798    2.638484    0.081060
      7          7           0        2.037155   -0.310687    0.548944
      8         16           0        0.836049   -1.244538    1.205290
      9          8           0        0.963269   -2.605719    0.679586
     10          8           0        0.878027   -0.936422    2.633385
     11          6           0       -0.733410   -0.690042    0.597524
     12          6           0       -1.382238    0.466319    0.888394
     13          6           0       -2.601050    0.595481    0.160880
     14          6           0       -2.875495   -0.488520   -0.685156
     15         16           0       -1.603088   -1.685722   -0.574340
     16          7           0       -3.935043   -0.645222   -1.495078
     17          7           0       -3.467053    1.712221    0.299404
     18          8           0       -3.135243    2.616051    1.068606
     19          8           0       -4.523788    1.725495   -0.368707
     20          1           0        1.653405    0.860188   -2.673201
     21          1           0        1.092166    1.604384   -1.165193
     22          1           0        0.371567    0.083384   -1.736621
     23          1           0        3.058635   -1.316541   -2.557951
     24          1           0        3.372111   -2.067748   -0.970440
     25          1           0        1.743398   -2.081553   -1.647693
     26          1           0        4.460277    0.080745   -0.342393
     27          1           0        4.007262    0.892081   -1.868980
     28          1           0        5.354804    2.077091    0.654395
     29          1           0        5.049632    2.952370   -0.873887
     30          1           0        4.305995    3.525036    0.646321
     31          1           0        2.147194    0.554984    1.073432
     32          1           0       -1.031859    1.210799    1.590592
     33          1           0       -4.109159   -1.515787   -1.972927
     34          1           0       -4.656434    0.065819   -1.424283
 ---------------------------------------------------------------------

 SCF Done:  E(UB3LYP) =  -1688.98010739     A.U. after   33 cycles
 SCF Done:  E(UB3LYP) =  -1688.98010739     a.u. after    1 cycles

 The electronic state is 2-A.
 Alpha  occ. eigenvalues --  -88.96462 -88.76788 -19.06955 -19.01153 -19.01140
 Alpha  occ. eigenvalues --  -18.93370 -18.93087 -14.30352 -14.24237 -14.21221
 Alpha  occ. eigenvalues --  -10.15676 -10.15321 -10.14888 -10.12113 -10.09694
 Alpha  occ. eigenvalues --  -10.08329 -10.07310 -10.07199 -10.07116  -8.02462
 Alpha  occ. eigenvalues --   -7.85365  -5.98758  -5.98720  -5.98582  -5.81696
 Alpha  occ. eigenvalues --   -5.81339  -5.80865  -1.01804  -1.01163  -0.98319
 Alpha  occ. eigenvalues --   -0.90834  -0.84206  -0.83791  -0.82355  -0.75405
 Alpha  occ. eigenvalues --   -0.71916  -0.65246  -0.65115  -0.62544  -0.61149
 Alpha  occ. eigenvalues --   -0.58374  -0.56628  -0.52677  -0.50164  -0.46780
 Alpha  occ. eigenvalues --   -0.44899  -0.43433  -0.42968  -0.42310  -0.40889
 Alpha  occ. eigenvalues --   -0.39842  -0.38556  -0.38196  -0.35645  -0.34988
 Alpha  occ. eigenvalues --   -0.34740  -0.34478  -0.34079  -0.33157  -0.32324
 Alpha  occ. eigenvalues --   -0.31360  -0.30734  -0.30626  -0.28565  -0.28074
 Alpha  occ. eigenvalues --   -0.27656  -0.26766  -0.26274  -0.24788  -0.23850
 Alpha  occ. eigenvalues --   -0.22543  -0.21917  -0.20934  -0.20547  -0.20118
 Alpha  occ. eigenvalues --   -0.18189  -0.14523  -0.12978  -0.11834  -0.09675
 Alpha  occ. eigenvalues --   -0.09116   0.03437
 Alpha virt. eigenvalues --    0.04717   0.06611   0.07731   0.07804   0.07841
 Alpha virt. eigenvalues --    0.08875   0.09244   0.10180   0.10829   0.11553
 Alpha virt. eigenvalues --    0.11619   0.12593   0.12802   0.13038   0.13638

  Beta  occ. eigenvalues --  -88.96461 -88.76796 -19.06954 -19.01148 -19.01143
  Beta  occ. eigenvalues --  -18.92826 -18.92465 -14.29444 -14.24240 -14.21103
  Beta  occ. eigenvalues --  -10.15672 -10.15318 -10.14888 -10.11762 -10.09759
  Beta  occ. eigenvalues --  -10.08328 -10.07406 -10.07198 -10.07029  -8.02461
  Beta  occ. eigenvalues --   -7.85372  -5.98755  -5.98718  -5.98580  -5.81707
  Beta  occ. eigenvalues --   -5.81350  -5.80872  -1.01803  -0.99776  -0.98318
  Beta  occ. eigenvalues --   -0.90832  -0.83795  -0.83274  -0.81816  -0.75313
  Beta  occ. eigenvalues --   -0.71912  -0.65227  -0.64765  -0.62386  -0.61144
  Beta  occ. eigenvalues --   -0.58338  -0.56341  -0.52035  -0.49860  -0.46760
  Beta  occ. eigenvalues --   -0.44669  -0.43421  -0.42940  -0.42275  -0.40791
  Beta  occ. eigenvalues --   -0.39613  -0.38488  -0.38122  -0.35617  -0.34876
  Beta  occ. eigenvalues --   -0.34339  -0.33753  -0.32841  -0.32404  -0.31574
  Beta  occ. eigenvalues --   -0.30920  -0.30622  -0.30406  -0.28196  -0.27483
  Beta  occ. eigenvalues --   -0.27305  -0.26437  -0.26024  -0.24672  -0.23844
  Beta  occ. eigenvalues --   -0.22366  -0.21730  -0.20917  -0.20536  -0.20047
  Beta  occ. eigenvalues --   -0.18104  -0.14182  -0.11329  -0.09109  -0.09090
  Beta  occ. eigenvalues --   -0.08238
  Beta virt. eigenvalues --    0.04678   0.06539   0.07705   0.07758   0.08394
  Beta virt. eigenvalues --    0.08960   0.09226   0.10091   0.10765   0.11498
  Beta virt. eigenvalues --    0.11634   0.11868   0.12585   0.12761   0.13020

 Mulliken charges and spin densities:
               1          2
     1  C   -0.340563  -0.031303
     2  C   -0.304529  -0.030921
     3  C   -0.567599  -0.016109
     4  C   -0.400704   0.036246
     5  O   -0.132233   0.003143
     6  C   -0.213996  -0.040907
     7  N    0.109174  -0.012393
     8  S    0.501291   0.025166
     9  O   -0.240421  -0.003369
    10  O   -0.136237  -0.003187
    11  C   -0.307844  -0.039173
    12  C    0.044218   0.078044
    13  C   -0.495566  -0.042742
    14  C   -0.175389   0.192011
    15  S    0.105928  -0.005741
    16  N   -0.311575   0.062129
    17  N   -0.288142   0.271370
    18  O   -0.228781   0.246130
    19  O   -0.265302   0.209311
    20  H    0.137027   0.007873
    21  H    0.171224  -0.001270
    22  H    0.166728   0.007210
    23  H    0.097168   0.011963
    24  H    0.171794   0.003860
    25  H    0.202375  -0.002220
    26  H    0.152873   0.008695
    27  H    0.121304   0.015608
    28  H    0.112743   0.020096
    29  H    0.086666   0.036602
    30  H    0.137977   0.011647
    31  H    0.310684  -0.004809
    32  H    0.258284  -0.006124
    33  H    0.227123  -0.001461
    34  H    0.294297  -0.005377
 Sum of Mulliken charges =  -1.00000   1.00000

 Dipole moment (field-independent basis, Debye):
    X=             12.1109    Y=             -3.6293    Z=             -5.6997  Tot=             13.8684
 Quadrupole moment (field-independent basis, Debye-Ang):
   XX=           -175.8955   YY=           -163.9070   ZZ=           -144.3467
   XY=             41.0898   XZ=              3.5064   YZ=              4.2028

 Summary of Natural Population Analysis:

                                       Natural Population
                Natural  -----------------------------------------------
    Atom  No    Charge         Core      Valence    Rydberg      Total
 -----------------------------------------------------------------------
      C    1   -0.29686      0.99962     2.29061    0.00664     3.29686
      C    2    0.04731      0.99958     1.93837    0.01474     2.95269
      C    3   -0.29153      0.99962     2.28588    0.00603     3.29153
      C    4   -0.00656      0.99952     1.99471    0.01233     3.00656
      O    5   -0.30062      0.99988     3.29241    0.00834     4.30062
      C    6   -0.09607      0.99963     2.08844    0.00800     3.09607
      N    7   -0.45877      0.99968     2.94239    0.01670     3.95877
      S    8    1.12458      4.99906     1.77109    0.10527     6.87542
      O    9   -0.47116      0.99991     3.46580    0.00546     4.47116
      O   10   -0.46344      0.99991     3.45814    0.00539     4.46344
      C   11   -0.28891      0.99937     2.27466    0.01488     3.28891
      C   12   -0.07337      0.99942     2.06051    0.01345     3.07337
      C   13   -0.03138      0.99937     2.01917    0.01284     3.03138
      C   14    0.09652      0.99951     1.88802    0.01595     2.90348
      S   15    0.17915      4.99940     2.79972    0.02174     7.82085
      N   16   -0.38005      0.99966     2.87015    0.01024     3.88005
      N   17    0.33552      0.99967     2.13879    0.02601     3.16448
      O   18   -0.18372      0.99990     3.17592    0.00791     4.18372
      O   19   -0.22643      0.99990     3.21847    0.00807     4.22643
      H   20    0.09522      0.00000     0.40397    0.00081     0.40478
      H   21    0.11111      0.00000     0.38797    0.00092     0.38889
      H   22    0.11234      0.00000     0.38608    0.00157     0.38766
      H   23    0.09547      0.00000     0.40345    0.00108     0.40453
      H   24    0.10561      0.00000     0.39347    0.00092     0.39439
      H   25    0.11685      0.00000     0.38218    0.00097     0.38315
      H   26    0.08492      0.00000     0.41313    0.00195     0.41508
      H   27    0.08196      0.00000     0.41637    0.00166     0.41804
      H   28    0.07792      0.00000     0.42034    0.00174     0.42208
      H   29    0.07671      0.00000     0.42158    0.00171     0.42329
      H   30    0.09299      0.00000     0.40608    0.00093     0.40701
      H   31    0.20728      0.00000     0.29044    0.00228     0.29272
      H   32    0.12438      0.00000     0.37415    0.00147     0.37562
      H   33    0.18384      0.00000     0.31474    0.00142     0.31616
      H   34    0.21921      0.00000     0.27867    0.00213     0.28079
 =======================================================================
   * Total *    0.00000     26.99260    53.66587    0.34152    81.00000

 Normal termination of Gaussian 16 at Sun Dec 13 22:26:29 2020.
