 Gaussian 16, Revision A.03,

 -----------------------------------------------------------
 # opt freq B3LYP/6-31G(d) empiricaldispersion=gd3bj scf=xqc
 -----------------------------------------------------------

 -------------------------------
 CID_141820451_JID_2315_neutraal
 -------------------------------
 Symbolic Z-matrix:
 Charge =  0 Multiplicity = 1

 SCF Done:  E(RB3LYP) =  -545.991032997     A.U. after   12 cycles
 SCF Done:  E(RB3LYP) =  -545.993809013     A.U. after   11 cycles
 SCF Done:  E(RB3LYP) =  -545.994349650     A.U. after   10 cycles
 SCF Done:  E(RB3LYP) =  -545.993789175     A.U. after   11 cycles
 SCF Done:  E(RB3LYP) =  -545.994418848     A.U. after   11 cycles
 SCF Done:  E(RB3LYP) =  -545.994831451     A.U. after   10 cycles
 SCF Done:  E(RB3LYP) =  -545.995137088     A.U. after   12 cycles
 SCF Done:  E(RB3LYP) =  -545.995836771     A.U. after   13 cycles
 SCF Done:  E(RB3LYP) =  -545.993872792     A.U. after   11 cycles
 SCF Done:  E(RB3LYP) =  -545.994694970     A.U. after   11 cycles
 SCF Done:  E(RB3LYP) =  -545.999839734     A.U. after    9 cycles
 SCF Done:  E(RB3LYP) =  -545.999843069     A.U. after    9 cycles
 SCF Done:  E(RB3LYP) =  -545.999842769     A.U. after    8 cycles
 SCF Done:  E(RB3LYP) =  -545.999843157     A.U. after    7 cycles
 SCF Done:  E(RB3LYP) =  -545.999843265     A.U. after    6 cycles
 SCF Done:  E(RB3LYP) =  -545.999843324     A.U. after    6 cycles
 Optimization completed.
    -- Stationary point found.
 Normal termination of Gaussian 16 at Wed Dec  9 17:45:12 2020.

 --------------------------------------------------------------------
 #N Geom=AllCheck Guess=TCheck SCRF=Check GenChk RB3LYP/6-31G(d) Freq
 --------------------------------------------------------------------

 Structure from the checkpoint file:  "JID_2315.chk"
 -------------------------------
 CID_141820451_JID_2315_neutraal
 -------------------------------
 Charge =  0 Multiplicity = 1

 SCF Done:  E(RB3LYP) =  -545.999843324     A.U. after    1 cycles

  Exact polarizability: 129.292  -2.374 114.564   0.656  -1.777 110.368
 Approx polarizability: 152.571   1.425 153.779  -0.567  -2.500 152.118

                      1                      2                      3
                      A                      A                      A
 Frequencies --     17.3133                26.2890                30.6436
 Red. masses --      3.0920                 2.4481                 2.7765
 Frc consts  --      0.0005                 0.0010                 0.0015
 IR Inten    --      0.0158                 0.1288                 0.0962

                      4                      5                      6
                      A                      A                      A
 Frequencies --     42.6351                48.1912                68.0213
 Red. masses --      2.8741                 3.1496                 3.2202
 Frc consts  --      0.0031                 0.0043                 0.0088
 IR Inten    --      0.2105                 0.3838                 0.4096

                      7                      8                      9
                      A                      A                      A
 Frequencies --     71.5337                78.6611                80.9850
 Red. masses --      3.1369                 2.7770                 3.0502
 Frc consts  --      0.0095                 0.0101                 0.0118
 IR Inten    --      0.0509                 1.4275                 0.1843

                     10                     11                     12
                      A                      A                      A
 Frequencies --    102.6287               143.9422               154.5843
 Red. masses --      1.6552                 2.7614                 2.1915
 Frc consts  --      0.0103                 0.0337                 0.0309
 IR Inten    --      0.0634                 2.9289                 4.0877

                     13                     14                     15
                      A                      A                      A
 Frequencies --    192.9548               223.2773               250.5185
 Red. masses --      1.6004                 1.3414                 1.0405
 Frc consts  --      0.0351                 0.0394                 0.0385
 IR Inten    --      0.1289                 1.2141                 0.0431

                     16                     17                     18
                      A                      A                      A
 Frequencies --    275.8354               293.0254               312.2709
 Red. masses --      1.7230                 1.1187                 1.8298
 Frc consts  --      0.0772                 0.0566                 0.1051
 IR Inten    --      1.1248                 0.3361                 2.5529

                     19                     20                     21
                      A                      A                      A
 Frequencies --    347.9339               365.1199               375.4572
 Red. masses --      2.3108                 2.0444                 2.0694
 Frc consts  --      0.1648                 0.1606                 0.1719
 IR Inten    --      4.2828                 4.1859                 1.6371

                     22                     23                     24
                      A                      A                      A
 Frequencies --    439.3799               500.4995               559.6589
 Red. masses --      2.7867                 2.6035                 2.1682
 Frc consts  --      0.3170                 0.3843                 0.4001
 IR Inten    --      2.5937                 1.0624                 5.3098

                     25                     26                     27
                      A                      A                      A
 Frequencies --    763.1794               766.7555               806.5150
 Red. masses --      1.0930                 1.3394                 1.2370
 Frc consts  --      0.3751                 0.4639                 0.4741
 IR Inten    --     10.1495                 2.1999                 5.2093

                     28                     29                     30
                      A                      A                      A
 Frequencies --    839.7004               884.2268               888.0693
 Red. masses --      1.8658                 2.5604                 2.3849
 Frc consts  --      0.7751                 1.1795                 1.1082
 IR Inten    --      3.9652                 0.4761                 9.8384

                     31                     32                     33
                      A                      A                      A
 Frequencies --    900.0161               925.7213               935.3199
 Red. masses --      2.3609                 1.1000                 1.2440
 Frc consts  --      1.1268                 0.5554                 0.6412
 IR Inten    --      2.9494                 0.4011                 4.9970

                     34                     35                     36
                      A                      A                      A
 Frequencies --    946.1450               947.7828               981.0857
 Red. masses --      1.2082                 2.1107                 1.9755
 Frc consts  --      0.6372                 1.1171                 1.1203
 IR Inten    --      2.1585                21.8238                21.7919

                     37                     38                     39
                      A                      A                      A
 Frequencies --   1059.8331              1068.4431              1076.1815
 Red. masses --      2.8244                 2.4363                 2.1671
 Frc consts  --      1.8692                 1.6387                 1.4788
 IR Inten    --     43.2951                 0.2984                 5.9668

                     40                     41                     42
                      A                      A                      A
 Frequencies --   1105.9760              1122.6999              1140.7974
 Red. masses --      2.2663                 1.9386                 2.0617
 Frc consts  --      1.6333                 1.4397                 1.5809
 IR Inten    --     25.3506                12.0903                22.4391

                     43                     44                     45
                      A                      A                      A
 Frequencies --   1164.3202              1181.7819              1194.6067
 Red. masses --      3.2597                 3.5256                 2.1536
 Frc consts  --      2.6036                 2.9010                 1.8107
 IR Inten    --    126.0590               107.8173                38.2802

                     46                     47                     48
                      A                      A                      A
 Frequencies --   1198.0364              1221.1623              1236.0894
 Red. masses --      1.7683                 1.9404                 1.6480
 Frc consts  --      1.4953                 1.7048                 1.4836
 IR Inten    --      3.4756                16.2689                 2.5761

                     49                     50                     51
                      A                      A                      A
 Frequencies --   1277.5542              1286.6556              1318.7894
 Red. masses --      1.1369                 1.1449                 1.1455
 Frc consts  --      1.0933                 1.1167                 1.1738
 IR Inten    --      3.8169                10.5573                 0.1955

                     52                     53                     54
                      A                      A                      A
 Frequencies --   1331.0969              1339.2883              1351.9465
 Red. masses --      1.1251                 1.1244                 1.1547
 Frc consts  --      1.1745                 1.1883                 1.2434
 IR Inten    --      0.1336                10.9581                26.2678

                     55                     56                     57
                      A                      A                      A
 Frequencies --   1384.7600              1394.0320              1409.9511
 Red. masses --      1.3976                 1.3367                 1.2435
 Frc consts  --      1.5790                 1.5305                 1.4565
 IR Inten    --      2.5696                12.2829                20.3076

                     58                     59                     60
                      A                      A                      A
 Frequencies --   1423.5275              1430.6500              1433.4763
 Red. masses --      1.3193                 1.2950                 1.2948
 Frc consts  --      1.5752                 1.5617                 1.5676
 IR Inten    --     15.3622                 2.5942                 9.3463

                     61                     62                     63
                      A                      A                      A
 Frequencies --   1441.8674              1443.1820              1450.9164
 Red. masses --      1.2905                 1.3195                 1.2841
 Frc consts  --      1.5808                 1.6192                 1.5927
 IR Inten    --     11.1315                14.2872                11.4895

                     64                     65                     66
                      A                      A                      A
 Frequencies --   1453.3615              1505.0676              1509.3040
 Red. masses --      1.3431                 1.0926                 1.0802
 Frc consts  --      1.6715                 1.4583                 1.4498
 IR Inten    --      0.1104                 2.5298                 2.0049

                     67                     68                     69
                      A                      A                      A
 Frequencies --   1518.6561              1519.5825              1519.8164
 Red. masses --      1.0659                 1.0404                 1.0443
 Frc consts  --      1.4484                 1.4155                 1.4212
 IR Inten    --      0.2279                 0.6710                 2.9240

                     70                     71                     72
                      A                      A                      A
 Frequencies --   1523.0786              1525.3498              1529.4928
 Red. masses --      1.0616                 1.0464                 1.0715
 Frc consts  --      1.4509                 1.4345                 1.4769
 IR Inten    --      0.8529                 5.2679                 0.8496

                     73                     74                     75
                      A                      A                      A
 Frequencies --   1537.9218              1539.6874              1541.1182
 Red. masses --      1.0522                 1.0507                 1.0581
 Frc consts  --      1.4663                 1.4675                 1.4807
 IR Inten    --      1.8215                 7.3899                 5.6344

                     76                     77                     78
                      A                      A                      A
 Frequencies --   1545.2836              1550.1513              1556.2458
 Red. masses --      1.0856                 1.0763                 1.0695
 Frc consts  --      1.5274                 1.5238                 1.5261
 IR Inten    --      4.3237                 6.5298                 3.6636

                     79                     80                     81
                      A                      A                      A
 Frequencies --   2990.1655              2999.9019              3002.4242
 Red. masses --      1.0559                 1.0668                 1.0695
 Frc consts  --      5.5624                 5.6562                 5.6803
 IR Inten    --     37.8647                22.4360                71.9430

                     82                     83                     84
                      A                      A                      A
 Frequencies --   3008.0672              3029.4702              3032.4718
 Red. masses --      1.0706                 1.0610                 1.1011
 Frc consts  --      5.7074                 5.7374                 5.9661
 IR Inten    --     30.9878                28.0411                80.6104

                     85                     86                     87
                      A                      A                      A
 Frequencies --   3039.5681              3041.1614              3042.5585
 Red. masses --      1.0372                 1.0617                 1.0427
 Frc consts  --      5.6459                 5.7855                 5.6873
 IR Inten    --     40.7681                17.1767                14.1826

                     88                     89                     90
                      A                      A                      A
 Frequencies --   3047.7149              3056.6709              3058.1439
 Red. masses --      1.0398                 1.0381                 1.0940
 Frc consts  --      5.6907                 5.7148                 6.0280
 IR Inten    --     27.6010                19.4622                41.9815

                     91                     92                     93
                      A                      A                      A
 Frequencies --   3071.3807              3078.8463              3087.8698
 Red. masses --      1.0933                 1.1012                 1.0972
 Frc consts  --      6.0768                 6.1500                 6.1641
 IR Inten    --     47.4654                28.6141                47.8606

                     94                     95                     96
                      A                      A                      A
 Frequencies --   3097.0366              3098.7308              3103.6712
 Red. masses --      1.0944                 1.1014                 1.1013
 Frc consts  --      6.1850                 6.2309                 6.2503
 IR Inten    --      9.2880                23.6469                77.8407

                     97                     98                     99
                      A                      A                      A
 Frequencies --   3110.7992              3123.7304              3126.6917
 Red. masses --      1.1009                 1.1007                 1.1012
 Frc consts  --      6.2768                 6.3281                 6.3428
 IR Inten    --     52.5478                41.6992                 8.1775

                    100                    101                    102
                      A                      A                      A
 Frequencies --   3132.7412              3135.4883              3137.2481
 Red. masses --      1.1007                 1.1034                 1.1012
 Frc consts  --      6.3644                 6.3914                 6.3856
 IR Inten    --     64.6759                17.0043                31.1649

 - Thermochemistry -
 -------------------
 Temperature   298.150 Kelvin.  Pressure   1.00000 Atm.
 Atom     1 has atomic number  6 and mass  12.00000

 Molecular mass:   176.17763 amu.
 Principal axes and moments of inertia in atomic units:
                           1         2         3
     Eigenvalues --  2138.616383725.873024890.70068
           X            0.99991  -0.01319   0.00389
           Y            0.01318   0.99991   0.00270
           Z           -0.00392  -0.00265   0.99999
 This molecule is an asymmetric top.
 Rotational symmetry number  1.
 Warning -- assumption of classical behavior for rotation
           may cause significant error
 Rotational temperatures (Kelvin)      0.04050     0.02325     0.01771
 Rotational constants (GHZ):           0.84388     0.48438     0.36901
 Zero-point vibrational energy     876863.7 (Joules/Mol)
                                  209.57546 (Kcal/Mol)
 Warning -- explicit consideration of  24 degrees of freedom as
           vibrations may cause significant error
 Vibrational temperatures:     24.91    37.82    44.09    61.34    69.34
          (Kelvin)             97.87   102.92   113.18   116.52   147.66
                              207.10   222.41   277.62   321.25   360.44
                              396.87   421.60   449.29   500.60   525.33
                              540.20   632.17   720.11   805.22  1098.04
                             1103.19  1160.40  1208.14  1272.21  1277.73
                             1294.92  1331.91  1345.72  1361.29  1363.65
                             1411.56  1524.86  1537.25  1548.39  1591.25
                             1615.31  1641.35  1675.20  1700.32  1718.77
                             1723.71  1756.98  1778.46  1838.12  1851.21
                             1897.44  1915.15  1926.94  1945.15  1992.36
                             2005.70  2028.61  2048.14  2058.39  2062.45
                             2074.53  2076.42  2087.55  2091.06  2165.46
                             2171.55  2185.01  2186.34  2186.68  2191.37
                             2194.64  2200.60  2212.73  2215.27  2217.33
                             2223.32  2230.32  2239.09  4302.18  4316.19
                             4319.82  4327.94  4358.73  4363.05  4373.26
                             4375.55  4377.56  4384.98  4397.87  4399.99
                             4419.03  4429.77  4442.76  4455.94  4458.38
                             4465.49  4475.75  4494.35  4498.61  4507.32
                             4511.27  4513.80

 Zero-point correction=                           0.333980 (Hartree/Particle)
 Thermal correction to Energy=                    0.352076
 Thermal correction to Enthalpy=                  0.353020
 Thermal correction to Gibbs Free Energy=         0.283806
 Sum of electronic and zero-point Energies=           -545.665864
 Sum of electronic and thermal Energies=              -545.647768
 Sum of electronic and thermal Enthalpies=            -545.646823
 Sum of electronic and thermal Free Energies=         -545.716037

                     E (Thermal)             CV                S
                      KCal/Mol        Cal/Mol-Kelvin    Cal/Mol-Kelvin
 Total                  220.931             60.445            145.673
 Electronic               0.000              0.000              0.000
 Translational            0.889              2.981             41.406
 Rotational               0.889              2.981             32.033
 Vibrational            219.153             54.483             72.234
 Vibration     1          0.593              1.986              6.921
 Vibration     2          0.593              1.985              6.091
 Vibration     3          0.594              1.984              5.787
 Vibration     4          0.595              1.980              5.133
 Vibration     5          0.595              1.978              4.890
 Vibration     6          0.598              1.969              4.210
 Vibration     7          0.598              1.968              4.111
 Vibration     8          0.600              1.964              3.924
 Vibration     9          0.600              1.962              3.867
 Vibration    10          0.605              1.947              3.404
 Vibration    11          0.616              1.909              2.751
 Vibration    12          0.620              1.898              2.615
 Vibration    13          0.635              1.850              2.199
 Vibration    14          0.649              1.806              1.932
 Vibration    15          0.663              1.762              1.727
 Vibration    16          0.677              1.718              1.559
 Vibration    17          0.688              1.687              1.456
 Vibration    18          0.701              1.650              1.350
 Vibration    19          0.726              1.579              1.176
 Vibration    20          0.738              1.544              1.100
 Vibration    21          0.746              1.522              1.057
 Vibration    22          0.799              1.384              0.829
 Vibration    23          0.856              1.249              0.657
 Vibration    24          0.915              1.119              0.525

                           ! Non-Optimized Parameters !
 Normal termination of Gaussian 16 at Wed Dec  9 17:55:09 2020.

 ----------------------------------------------------------------------
 # B3LYP/6-311++G(d,p) empiricaldispersion=gd3bj scf=xqc pop=npa geom=c
 heck
 ----------------------------------------------------------------------

 ---------------------------------------
 CID_141820451_JID_2315_Energie_neutraal
 ---------------------------------------
 Structure from the checkpoint file:  "JID_2315.chk"
 Charge =  0 Multiplicity = 1

 SCF Done:  E(RB3LYP) =  -546.162773371     A.U. after   12 cycles
 Normal termination of Gaussian 16 at Wed Dec  9 17:59:53 2020.

 ----------------------------------------------------------------------
 # B3LYP/6-311++G(d,p) empiricaldispersion=gd3bj scf=xqc pop=npa geom=c
 heck
 ----------------------------------------------------------------------

 -------------------------------------
 CID_141820451_JID_2315_Energie_kation
 -------------------------------------
 Structure from the checkpoint file:  "JID_2315.chk"
 Charge =  1 Multiplicity = 2

 SCF Done:  E(UB3LYP) =  -545.839907288     A.U. after   18 cycles
 Normal termination of Gaussian 16 at Wed Dec  9 18:09:17 2020.
 Gaussian 16:  ES64L-G16RevA.03 25-Dec-2016

 ----------------------------------------------------------------------
 # B3LYP/6-311++G(d,p) empiricaldispersion=gd3bj scf=xqc pop=npa geom=c
 heck
 ----------------------------------------------------------------------

 ------------------------------------
 CID_141820451_JID_2315_Energie_anion
 ------------------------------------
 Structure from the checkpoint file:  "JID_2315.chk"
 Charge = -1 Multiplicity = 2

                         Standard orientation:
 ---------------------------------------------------------------------
 Center     Atomic      Atomic             Coordinates (Angstroms)
 Number     Number       Type             X           Y           Z
 ---------------------------------------------------------------------
      1          6           0        2.089728    2.215870    1.090215
      2          6           0        0.879634    2.840145    0.390090
      3          6           0        0.839192    2.513976   -1.105178
      4          6           0       -4.246821    0.323551    0.113806
      5          6           0       -3.274651   -0.166837   -0.961118
      6          6           0       -1.831534   -0.216624   -0.478437
      7          8           0       -1.752112   -1.159238    0.587740
      8          6           0       -0.584001   -1.087144    1.376820
      9          6           0        0.642077   -1.731921    0.746721
     10          8           0        1.137091   -0.893032   -0.284483
     11          6           0        2.165229   -1.468646   -1.080664
     12          6           0        3.508738   -1.566763   -0.363502
     13          1           0        2.078571    1.128109    0.965232
     14          1           0        2.099107    2.442469    2.162901
     15          1           0        3.027338    2.592956    0.661928
     16          1           0       -0.041647    2.475765    0.865392
     17          1           0        0.886504    3.929055    0.534270
     18          1           0        0.799974    1.430371   -1.256142
     19          1           0       -0.035714    2.960395   -1.592439
     20          1           0        1.734208    2.895010   -1.613261
     21          1           0       -4.199835   -0.323675    0.994314
     22          1           0       -5.278659    0.331711   -0.254094
     23          1           0       -3.995685    1.343051    0.432563
     24          1           0       -3.564088   -1.169845   -1.300024
     25          1           0       -3.315330    0.488671   -1.841271
     26          1           0       -1.152873   -0.498786   -1.292507
     27          1           0       -1.514256    0.775680   -0.118899
     28          1           0       -0.348307   -0.042498    1.635668
     29          1           0       -0.814487   -1.624517    2.304183
     30          1           0        1.403451   -1.887368    1.527725
     31          1           0        0.366476   -2.717243    0.338128
     32          1           0        1.845114   -2.460475   -1.438630
     33          1           0        2.251921   -0.811450   -1.951576
     34          1           0        3.466172   -2.246977    0.493579
     35          1           0        4.274538   -1.945134   -1.050280
     36          1           0        3.822119   -0.580752   -0.005329
 ---------------------------------------------------------------------

 SCF Done:  E(UB3LYP) =  -546.146520322     A.U. after   27 cycles

 The electronic state is 2-A.
 Alpha  occ. eigenvalues --  -19.02816 -19.02609 -10.12116 -10.11871 -10.11845
 Alpha  occ. eigenvalues --  -10.11294 -10.07322 -10.06754 -10.06471 -10.06013
 Alpha  occ. eigenvalues --  -10.05480 -10.05441  -0.94739  -0.93214  -0.69656
 Alpha  occ. eigenvalues --   -0.68138  -0.66904  -0.63116  -0.58422  -0.58010
 Alpha  occ. eigenvalues --   -0.53429  -0.49904  -0.48774  -0.48558  -0.41258
 Alpha  occ. eigenvalues --   -0.40348  -0.39115  -0.36736  -0.35921  -0.35737
 Alpha  occ. eigenvalues --   -0.34627  -0.33859  -0.32968  -0.31641  -0.30466
 Alpha  occ. eigenvalues --   -0.29849  -0.29531  -0.28099  -0.28016  -0.26532
 Alpha  occ. eigenvalues --   -0.25832  -0.24955  -0.24785  -0.24071  -0.24036
 Alpha  occ. eigenvalues --   -0.23315  -0.22228  -0.21421  -0.17408  -0.15598
 Alpha  occ. eigenvalues --    0.04432
 Alpha virt. eigenvalues --    0.06127   0.06895   0.07011   0.08120   0.08710
 Alpha virt. eigenvalues --    0.08928   0.09099   0.09442   0.10386   0.10858
 Alpha virt. eigenvalues --    0.11315   0.11679   0.12379   0.12442   0.12889

  Beta  occ. eigenvalues --  -19.02811 -19.02604 -10.12104 -10.11850 -10.11823
  Beta  occ. eigenvalues --  -10.11288 -10.07311 -10.06743 -10.06453 -10.05969
  Beta  occ. eigenvalues --  -10.05464 -10.05423  -0.94728  -0.93204  -0.69634
  Beta  occ. eigenvalues --   -0.68115  -0.66867  -0.63073  -0.58386  -0.57972
  Beta  occ. eigenvalues --   -0.53371  -0.49830  -0.48734  -0.48508  -0.41228
  Beta  occ. eigenvalues --   -0.40313  -0.39095  -0.36709  -0.35893  -0.35717
  Beta  occ. eigenvalues --   -0.34599  -0.33824  -0.32943  -0.31588  -0.30426
  Beta  occ. eigenvalues --   -0.29824  -0.29496  -0.28047  -0.27995  -0.26503
  Beta  occ. eigenvalues --   -0.25802  -0.24932  -0.24758  -0.24043  -0.24002
  Beta  occ. eigenvalues --   -0.23295  -0.22205  -0.21392  -0.17382  -0.15578
  Beta virt. eigenvalues --    0.06303   0.07055   0.07354   0.07578   0.08600
  Beta virt. eigenvalues --    0.08983   0.09379   0.09462   0.09767   0.10712
  Beta virt. eigenvalues --    0.11186   0.11662   0.11935   0.12602   0.12688

 Mulliken charges and spin densities:
               1          2
     1  C    0.221095  -0.755972
     2  C   -0.674399   0.630082
     3  C    0.141773  -0.635509
     4  C    0.175832  -0.678374
     5  C   -0.279095  -0.174692
     6  C   -0.297514   0.219319
     7  O   -0.076616   0.013032
     8  C    0.273725  -0.653212
     9  C    0.214097  -0.391807
    10  O   -0.059548   0.013475
    11  C   -0.898342   0.836968
    12  C    1.495978  -2.010368
    13  H    0.298907  -0.107813
    14  H   -0.160699   0.278907
    15  H   -0.074929   0.186834
    16  H   -0.264506   0.371632
    17  H   -0.004767   0.143152
    18  H    0.608470  -0.475759
    19  H   -0.090875   0.210548
    20  H   -0.244168   0.375865
    21  H    0.110441   0.044573
    22  H   -0.151338   0.282818
    23  H   -0.194999   0.317093
    24  H   -0.005768   0.152800
    25  H   -0.032727   0.157070
    26  H   -0.185197   0.386991
    27  H    0.899764  -0.807895
    28  H    0.282981  -0.135534
    29  H   -0.372825   0.558360
    30  H   -0.052930   0.165660
    31  H   -0.045709   0.218654
    32  H   -0.051338   0.160638
    33  H   -0.316418   0.480623
    34  H   -0.394891   0.549809
    35  H   -0.676751   0.819433
    36  H   -0.116714   0.252599
 Sum of Mulliken charges =  -1.00000   1.00000

 Dipole moment (field-independent basis, Debye):
    X=             -3.8810    Y=              1.2862    Z=              0.2712  Tot=              4.0976
 Quadrupole moment (field-independent basis, Debye-Ang):
   XX=           -162.6616   YY=           -132.1042   ZZ=           -117.5968
   XY=             10.2109   XZ=              2.8650   YZ=              1.4197

 Summary of Natural Population Analysis:

                                       Natural Population
                Natural  -----------------------------------------------
    Atom  No    Charge         Core      Valence    Rydberg      Total
 -----------------------------------------------------------------------
      C    1   -0.28962      0.99966     2.28439    0.00557     3.28962
      C    2   -0.18953      0.99966     2.18318    0.00669     3.18953
      C    3   -0.28997      0.99966     2.28510    0.00521     3.28997
      C    4   -0.28685      0.99967     2.28278    0.00440     3.28685
      C    5   -0.19795      0.99964     2.19095    0.00737     3.19795
      C    6   -0.00830      0.99957     1.99791    0.01082     3.00830
      O    7   -0.30458      0.99988     3.29533    0.00937     4.30458
      C    8   -0.01600      0.99957     2.00287    0.01356     3.01600
      C    9   -0.02255      0.99957     2.01077    0.01221     3.02255
      O   10   -0.30869      0.99988     3.29808    0.01073     4.30869
      C   11   -0.00681      0.99960     1.99477    0.01245     3.00681
      C   12   -0.30093      0.99967     2.29640    0.00486     3.30093
      H   13    0.10404      0.00000     0.39389    0.00207     0.39596
      H   14    0.09501      0.00000     0.40405    0.00094     0.40499
      H   15    0.09349      0.00000     0.40541    0.00111     0.40651
      H   16    0.09017      0.00000     0.40808    0.00175     0.40983
      H   17    0.08822      0.00000     0.41056    0.00122     0.41178
      H   18    0.10539      0.00000     0.39272    0.00190     0.39461
      H   19    0.09516      0.00000     0.40385    0.00100     0.40484
      H   20    0.09353      0.00000     0.40546    0.00102     0.40647
      H   21    0.10233      0.00000     0.39620    0.00146     0.39767
      H   22    0.09517      0.00000     0.40372    0.00111     0.40483
      H   23    0.09472      0.00000     0.40398    0.00130     0.40528
      H   24    0.09551      0.00000     0.40294    0.00154     0.40449
      H   25    0.09604      0.00000     0.40259    0.00137     0.40396
      H   26    0.08793      0.00000     0.41018    0.00190     0.41207
      H   27    0.07668      0.00000     0.41999    0.00333     0.42332
      H   28    0.08278      0.00000     0.41525    0.00198     0.41722
      H   29    0.09045      0.00000     0.40836    0.00119     0.40955
      H   30    0.08411      0.00000     0.41409    0.00180     0.41589
      H   31    0.08261      0.00000     0.41578    0.00162     0.41739
      H   32    0.07717      0.00000     0.42129    0.00154     0.42283
      H   33    0.08851      0.00000     0.41005    0.00144     0.41149
      H   34    0.09855      0.00000     0.39978    0.00167     0.40145
      H   35    0.10330      0.00000     0.39460    0.00210     0.39670
      H   36    0.10092      0.00000     0.39761    0.00147     0.39908
 =======================================================================
   * Total *    0.00000     11.99602    37.86294    0.14104    50.00000

 Normal termination of Gaussian 16 at Wed Dec  9 18:23:04 2020.
