 Gaussian 16, Revision A.03,

 -----------------------------------------------------------
 # opt freq B3LYP/6-31G(d) empiricaldispersion=gd3bj scf=xqc
 -----------------------------------------------------------

 ------------------------------
 CID_80743163_JID_2986_neutraal
 ------------------------------
 Symbolic Z-matrix:
 Charge =  0 Multiplicity = 1

 SCF Done:  E(RB3LYP) =  -604.112207054     A.U. after   14 cycles
 SCF Done:  E(RB3LYP) =  -604.115592788     A.U. after   13 cycles
 SCF Done:  E(RB3LYP) =  -604.116095846     A.U. after   12 cycles
 SCF Done:  E(RB3LYP) =  -604.116435786     A.U. after   12 cycles
 SCF Done:  E(RB3LYP) =  -604.116636470     A.U. after   11 cycles
 SCF Done:  E(RB3LYP) =  -604.116778515     A.U. after   12 cycles
 SCF Done:  E(RB3LYP) =  -604.116897201     A.U. after   11 cycles
 SCF Done:  E(RB3LYP) =  -604.117044431     A.U. after   12 cycles
 SCF Done:  E(RB3LYP) =  -604.117149063     A.U. after   12 cycles
 SCF Done:  E(RB3LYP) =  -604.117216693     A.U. after   11 cycles
 SCF Done:  E(RB3LYP) =  -604.117258270     A.U. after    8 cycles
 SCF Done:  E(RB3LYP) =  -604.117258598     A.U. after    8 cycles
 SCF Done:  E(RB3LYP) =  -604.117258497     A.U. after   10 cycles
 SCF Done:  E(RB3LYP) =  -604.117258417     A.U. after    8 cycles
 SCF Done:  E(RB3LYP) =  -604.117258387     A.U. after    7 cycles
 Optimization completed.
    -- Stationary point found.
 Normal termination of Gaussian 16 at Wed Dec  9 18:24:05 2020.

 --------------------------------------------------------------------
 #N Geom=AllCheck Guess=TCheck SCRF=Check GenChk RB3LYP/6-31G(d) Freq
 --------------------------------------------------------------------

 Structure from the checkpoint file:  "JID_2986.chk"
 ------------------------------
 CID_80743163_JID_2986_neutraal
 ------------------------------
 Charge =  0 Multiplicity = 1

 SCF Done:  E(RB3LYP) =  -604.117258387     A.U. after    1 cycles

  Exact polarizability: 119.827   3.873  67.403  -4.885  -2.443  84.358
 Approx polarizability: 163.321   5.792  95.025 -16.014  -1.511 151.771

                      1                      2                      3
                      A                      A                      A
 Frequencies --     19.9985                32.4711                45.9214
 Red. masses --      4.4623                 5.0780                 8.3219
 Frc consts  --      0.0011                 0.0032                 0.0103
 IR Inten    --      1.6927                 1.2082                 4.8531

                      4                      5                      6
                      A                      A                      A
 Frequencies --    107.3789               140.2185               180.9832
 Red. masses --      4.7142                 4.7823                 3.3044
 Frc consts  --      0.0320                 0.0554                 0.0638
 IR Inten    --      9.9521                 0.8526                 7.0299

                      7                      8                      9
                      A                      A                      A
 Frequencies --    266.4913               278.2912               311.8469
 Red. masses --      1.1050                 4.1216                 2.8841
 Frc consts  --      0.0462                 0.1881                 0.1652
 IR Inten    --      0.1483                 2.1843                17.2834

                     10                     11                     12
                      A                      A                      A
 Frequencies --    357.8990               384.7256               403.5511
 Red. masses --      4.7743                 1.1428                 1.3000
 Frc consts  --      0.3603                 0.0997                 0.1247
 IR Inten    --      8.3499                97.3777               261.1313

                     13                     14                     15
                      A                      A                      A
 Frequencies --    409.9128               454.1531               501.2909
 Red. masses --      2.8267                 4.7758                 2.3205
 Frc consts  --      0.2798                 0.5804                 0.3436
 IR Inten    --     15.0486                23.5948                 7.6760

                     16                     17                     18
                      A                      A                      A
 Frequencies --    524.3898               585.7994               672.6317
 Red. masses --      3.1978                 2.2803                 4.8838
 Frc consts  --      0.5181                 0.4610                 1.3019
 IR Inten    --     11.5893                10.8228                 3.6915

                     19                     20                     21
                      A                      A                      A
 Frequencies --    679.8383               704.1962               739.8332
 Red. masses --      1.4615                 2.7570                 3.6656
 Frc consts  --      0.3980                 0.8055                 1.1821
 IR Inten    --      2.3639                 8.6385                 5.5357

                     22                     23                     24
                      A                      A                      A
 Frequencies --    796.9042               810.1836               874.5388
 Red. masses --      1.6774                 4.0866                 3.8664
 Frc consts  --      0.6276                 1.5805                 1.7423
 IR Inten    --     13.9682                13.1919                 5.5940

                     25                     26                     27
                      A                      A                      A
 Frequencies --    913.3059               970.6584              1026.2637
 Red. masses --      2.3184                 2.4088                 2.2402
 Frc consts  --      1.1394                 1.3372                 1.3901
 IR Inten    --     12.6573                 0.4741                16.5216

                     28                     29                     30
                      A                      A                      A
 Frequencies --   1053.9769              1068.2122              1106.3735
 Red. masses --      3.5806                 3.8153                 2.3943
 Frc consts  --      2.3435                 2.5651                 1.7268
 IR Inten    --     22.8649                63.3065                 7.2786

                     31                     32                     33
                      A                      A                      A
 Frequencies --   1117.5031              1124.5380              1170.0448
 Red. masses --      2.1695                 1.8407                 1.8277
 Frc consts  --      1.5963                 1.3715                 1.4742
 IR Inten    --     18.1063                62.7158                42.9553

                     34                     35                     36
                      A                      A                      A
 Frequencies --   1187.6021              1269.7618              1297.1778
 Red. masses --      1.6851                 2.4051                 3.0013
 Frc consts  --      1.4003                 2.2847                 2.9755
 IR Inten    --      3.9900                15.4227                17.4095

                     37                     38                     39
                      A                      A                      A
 Frequencies --   1346.8854              1363.0060              1376.3663
 Red. masses --      1.7173                 1.3197                 1.5090
 Frc consts  --      1.8355                 1.4445                 1.6843
 IR Inten    --     33.2795                 1.4129                 7.7863

                     40                     41                     42
                      A                      A                      A
 Frequencies --   1384.4588              1387.2399              1428.0957
 Red. masses --      3.4684                 4.0191                 1.2542
 Frc consts  --      3.9169                 4.5570                 1.5070
 IR Inten    --     73.0573                26.0238                 6.1506

                     43                     44                     45
                      A                      A                      A
 Frequencies --   1449.2091              1487.5396              1500.5847
 Red. masses --      1.3164                 1.1169                 3.8420
 Frc consts  --      1.6289                 1.4561                 5.0971
 IR Inten    --    106.8151                 7.0789                 6.8724

                     46                     47                     48
                      A                      A                      A
 Frequencies --   1519.6173              1522.7227              1597.8033
 Red. masses --      1.0664                 1.0993                 5.4891
 Frc consts  --      1.4509                 1.5017                 8.2565
 IR Inten    --     10.5003                 1.1471                 6.1704

                     49                     50                     51
                      A                      A                      A
 Frequencies --   1649.3582              1822.9119              3051.5861
 Red. masses --      1.2598                 9.3492                 1.0350
 Frc consts  --      2.0192                18.3044                 5.6783
 IR Inten    --    157.5539               353.7387                15.3766

                     52                     53                     54
                      A                      A                      A
 Frequencies --   3071.9991              3101.2040              3122.3174
 Red. masses --      1.0866                 1.0647                 1.1020
 Frc consts  --      6.0415                 6.0329                 6.3296
 IR Inten    --     22.6402                 8.2706                28.4958

                     55                     56                     57
                      A                      A                      A
 Frequencies --   3139.9849              3178.4400              3301.0504
 Red. masses --      1.1034                 1.1015                 1.0995
 Frc consts  --      6.4100                 6.5562                 7.0590
 IR Inten    --     29.0426                 1.0041                 0.9242

                     58                     59                     60
                      A                      A                      A
 Frequencies --   3556.3355              3694.1619              3710.0059
 Red. masses --      1.0480                 1.1035                 1.0658
 Frc consts  --      7.8091                 8.8723                 8.6432
 IR Inten    --     66.9222                97.7010                28.7787

 - Thermochemistry -
 -------------------
 Temperature   298.150 Kelvin.  Pressure   1.00000 Atm.
 Atom     1 has atomic number  6 and mass  12.00000

 Molecular mass:   170.08038 amu.
 Principal axes and moments of inertia in atomic units:
                           1         2         3
     Eigenvalues --   716.101604184.745994244.99738
           X            0.99984   0.01728   0.00484
           Y           -0.01609   0.98264  -0.18480
           Z           -0.00795   0.18469   0.98276
 This molecule is an asymmetric top.
 Rotational symmetry number  1.
 Warning -- assumption of classical behavior for rotation
           may cause significant error
 Rotational temperatures (Kelvin)      0.12095     0.02070     0.02040
 Rotational constants (GHZ):           2.52023     0.43127     0.42515
 Zero-point vibrational energy     462666.2 (Joules/Mol)
                                  110.57988 (Kcal/Mol)
 Warning -- explicit consideration of  17 degrees of freedom as
           vibrations may cause significant error
 Vibrational temperatures:     28.77    46.72    66.07   154.49   201.74
          (Kelvin)            260.39   383.42   400.40   448.68   514.94
                              553.53   580.62   589.77   653.42   721.25
                              754.48   842.83   967.77   978.14  1013.18
                             1064.45  1146.57  1165.67  1258.27  1314.04
                             1396.56  1476.56  1516.44  1536.92  1591.82
                             1607.84  1617.96  1683.43  1708.69  1826.90
                             1866.35  1937.87  1961.06  1980.28  1991.93
                             1995.93  2054.71  2085.09  2140.24  2159.01
                             2186.39  2190.86  2298.88  2373.06  2622.76
                             4390.55  4419.92  4461.94  4492.32  4517.74
                             4573.07  4749.48  5116.77  5315.08  5337.87

 Zero-point correction=                           0.176220 (Hartree/Particle)
 Thermal correction to Energy=                    0.188162
 Thermal correction to Enthalpy=                  0.189106
 Thermal correction to Gibbs Free Energy=         0.135991
 Sum of electronic and zero-point Energies=           -603.941038
 Sum of electronic and thermal Energies=              -603.929097
 Sum of electronic and thermal Enthalpies=            -603.928152
 Sum of electronic and thermal Free Energies=         -603.981268

                     E (Thermal)             CV                S
                      KCal/Mol        Cal/Mol-Kelvin    Cal/Mol-Kelvin
 Total                  118.073             43.318            111.790
 Electronic               0.000              0.000              0.000
 Translational            0.889              2.981             41.301
 Rotational               0.889              2.981             30.921
 Vibrational            116.296             37.357             39.569
 Vibration     1          0.593              1.986              6.634
 Vibration     2          0.594              1.983              5.672
 Vibration     3          0.595              1.979              4.986
 Vibration     4          0.606              1.943              3.316
 Vibration     5          0.615              1.913              2.801
 Vibration     6          0.630              1.866              2.318
 Vibration     7          0.672              1.735              1.619
 Vibration     8          0.679              1.714              1.544
 Vibration     9          0.700              1.651              1.353
 Vibration    10          0.733              1.559              1.131
 Vibration    11          0.754              1.503              1.021
 Vibration    12          0.769              1.462              0.950
 Vibration    13          0.774              1.449              0.927
 Vibration    14          0.813              1.352              0.783
 Vibration    15          0.857              1.247              0.655
 Vibration    16          0.879              1.196              0.600
 Vibration    17          0.943              1.062              0.475

 Optimization completed.
    -- Stationary point found.
 Normal termination of Gaussian 16 at Wed Dec  9 18:28:56 2020.

 ----------------------------------------------------------------------
 # B3LYP/6-311++G(d,p) empiricaldispersion=gd3bj scf=xqc pop=npa geom=c
 heck
 ----------------------------------------------------------------------

 --------------------------------------
 CID_80743163_JID_2986_Energie_neutraal
 --------------------------------------
 Structure from the checkpoint file:  "JID_2986.chk"
 Charge =  0 Multiplicity = 1

 SCF Done:  E(RB3LYP) =  -604.306490529     A.U. after   15 cycles
 Normal termination of Gaussian 16 at Wed Dec  9 18:30:39 2020.

 ----------------------------------------------------------------------
 # B3LYP/6-311++G(d,p) empiricaldispersion=gd3bj scf=xqc pop=npa geom=c
 heck
 ----------------------------------------------------------------------

 ------------------------------------
 CID_80743163_JID_2986_Energie_kation
 ------------------------------------
 Structure from the checkpoint file:  "JID_2986.chk"
 Charge =  1 Multiplicity = 2

 SCF Done:  E(UB3LYP) =  -603.966381875     A.U. after   28 cycles
 Normal termination of Gaussian 16 at Wed Dec  9 18:34:21 2020.
 Gaussian 16:  ES64L-G16RevA.03 25-Dec-2016

 ----------------------------------------------------------------------
 # B3LYP/6-311++G(d,p) empiricaldispersion=gd3bj scf=xqc pop=npa geom=c
 heck
 ----------------------------------------------------------------------

 -----------------------------------
 CID_80743163_JID_2986_Energie_anion
 -----------------------------------
 Structure from the checkpoint file:  "JID_2986.chk"
 Charge = -1 Multiplicity = 2

                         Standard orientation:
 ---------------------------------------------------------------------
 Center     Atomic      Atomic             Coordinates (Angstroms)
 Number     Number       Type             X           Y           Z
 ---------------------------------------------------------------------
      1          6           0        3.086487    1.621303    0.315742
      2          6           0        2.826854    0.125655    0.535137
      3          6           0        1.397607   -0.229583    0.220335
      4          6           0        0.287795   -0.416314    1.016951
      5          7           0       -0.712194   -0.708684    0.145888
      6          7           0       -0.254813   -0.698301   -1.126063
      7          7           0        1.018493   -0.403787   -1.077663
      8          6           0       -2.125369   -0.923951    0.410171
      9          6           0       -3.036014    0.275261    0.082145
     10          8           0       -4.056769    0.452946    0.727165
     11          7           0       -2.629213    1.043487   -0.958520
     12          8           0        3.712886   -0.668907   -0.244472
     13          1           0        2.859267    1.892438   -0.721209
     14          1           0        4.138608    1.845081    0.515387
     15          1           0        2.460101    2.233776    0.974761
     16          1           0        3.037514   -0.127726    1.580128
     17          1           0        0.133923   -0.378914    2.084134
     18          1           0       -2.453724   -1.784396   -0.180451
     19          1           0       -2.255969   -1.157215    1.466415
     20          1           0       -1.842574    0.770787   -1.535451
     21          1           0       -3.246105    1.779768   -1.271086
     22          1           0        3.339959   -0.689148   -1.142543
 ---------------------------------------------------------------------

 SCF Done:  E(UB3LYP) =  -604.297405121     A.U. after   33 cycles
 SCF Done:  E(UB3LYP) =  -604.297405121     a.u. after    1 cycles

 The electronic state is 2-A.
 Alpha  occ. eigenvalues --  -19.02529 -18.99712 -14.30165 -14.26397 -14.23862
 Alpha  occ. eigenvalues --  -14.23321 -10.18453 -10.13601 -10.12756 -10.11080
 Alpha  occ. eigenvalues --  -10.09944 -10.06942  -0.99915  -0.94725  -0.93089
 Alpha  occ. eigenvalues --   -0.82672  -0.80821  -0.71748  -0.66307  -0.64630
 Alpha  occ. eigenvalues --   -0.55508  -0.52439  -0.51087  -0.48679  -0.45194
 Alpha  occ. eigenvalues --   -0.44488  -0.40147  -0.38360  -0.37819  -0.35588
 Alpha  occ. eigenvalues --   -0.35149  -0.33633  -0.33008  -0.32035  -0.30188
 Alpha  occ. eigenvalues --   -0.28693  -0.28128  -0.25466  -0.23509  -0.20656
 Alpha  occ. eigenvalues --   -0.18711  -0.18432  -0.17927  -0.16833  -0.15416
 Alpha  occ. eigenvalues --    0.04519
 Alpha virt. eigenvalues --    0.06522   0.06949   0.08005   0.09026   0.09658
 Alpha virt. eigenvalues --    0.10076   0.10355   0.11316   0.11967   0.12934
 Alpha virt. eigenvalues --    0.13330   0.13436   0.14303   0.15340   0.16227

  Beta  occ. eigenvalues --  -19.02528 -18.99691 -14.30075 -14.26256 -14.23834
  Beta  occ. eigenvalues --  -14.23277 -10.18434 -10.13587 -10.12718 -10.10990
  Beta  occ. eigenvalues --  -10.09969 -10.06929  -0.99752  -0.94684  -0.93084
  Beta  occ. eigenvalues --   -0.82569  -0.80731  -0.71630  -0.66229  -0.64543
  Beta  occ. eigenvalues --   -0.55462  -0.52293  -0.51013  -0.48579  -0.45121
  Beta  occ. eigenvalues --   -0.44362  -0.40067  -0.38141  -0.37729  -0.35456
  Beta  occ. eigenvalues --   -0.35060  -0.33559  -0.32931  -0.31955  -0.30112
  Beta  occ. eigenvalues --   -0.28603  -0.28104  -0.25407  -0.23405  -0.20329
  Beta  occ. eigenvalues --   -0.18654  -0.18366  -0.17775  -0.16620  -0.15157
  Beta virt. eigenvalues --    0.06929   0.07628   0.07846   0.08959   0.09829
  Beta virt. eigenvalues --    0.10091   0.10256   0.10651   0.11862   0.12054
  Beta virt. eigenvalues --    0.13074   0.13394   0.14043   0.14483   0.15449

 Mulliken charges and spin densities:
               1          2
     1  C    0.166092  -0.658879
     2  C    0.814976  -1.195601
     3  C    0.863888  -0.717759
     4  C   -1.124212   0.838964
     5  N    0.210847   0.130416
     6  N   -0.038138  -0.037191
     7  N   -0.480537   0.283133
     8  C    1.777668  -2.148773
     9  C   -0.323774   0.471448
    10  O   -0.384750   0.039321
    11  N   -0.309435  -0.090436
    12  O   -0.201033   0.005797
    13  H    0.047485   0.102767
    14  H    0.061856   0.073499
    15  H    0.005190   0.136140
    16  H   -0.249249   0.456017
    17  H   -1.376446   1.567152
    18  H   -0.650246   0.870369
    19  H   -0.119418   0.341820
    20  H    0.193529   0.081263
    21  H   -0.138086   0.450319
    22  H    0.253794   0.000215
 Sum of Mulliken charges =  -1.00000   1.00000

 Dipole moment (field-independent basis, Debye):
    X=              2.9306    Y=              2.5399    Z=             -3.6421  Tot=              5.3202
 Quadrupole moment (field-independent basis, Debye-Ang):
   XX=           -138.0580   YY=           -100.0665   ZZ=           -108.6780
   XY=              1.4184   XZ=             -0.2506   YZ=              1.4620

 Summary of Natural Population Analysis:

                                       Natural Population
                Natural  -----------------------------------------------
    Atom  No    Charge         Core      Valence    Rydberg      Total
 -----------------------------------------------------------------------
      C    1   -0.29199      0.99965     2.28618    0.00617     3.29199
      C    2    0.05107      0.99954     1.93431    0.01508     2.94893
      C    3    0.02551      0.99955     1.95911    0.01583     2.97449
      C    4   -0.00080      0.99947     1.99000    0.01133     3.00080
      N    5   -0.09416      0.99967     2.57896    0.01553     3.59416
      N    6   -0.04455      0.99977     2.52810    0.01668     3.54455
      N    7   -0.15104      0.99970     2.63759    0.01375     3.65104
      C    8   -0.12800      0.99956     2.11539    0.01305     3.12800
      C    9    0.33713      0.99971     1.64173    0.02143     2.66287
      O   10   -0.31738      0.99988     3.31104    0.00647     4.31738
      N   11   -0.40300      0.99970     2.89636    0.00694     3.90300
      O   12   -0.37050      0.99990     3.36431    0.00629     4.37050
      H   13    0.10003      0.00000     0.39897    0.00100     0.39997
      H   14    0.09927      0.00000     0.39982    0.00092     0.40073
      H   15    0.10151      0.00000     0.39747    0.00103     0.39849
      H   16    0.09227      0.00000     0.40545    0.00229     0.40773
      H   17    0.11651      0.00000     0.37831    0.00518     0.38349
      H   18    0.12166      0.00000     0.37402    0.00432     0.37834
      H   19    0.11972      0.00000     0.37792    0.00236     0.38028
      H   20    0.20670      0.00000     0.29074    0.00256     0.29330
      H   21    0.19605      0.00000     0.30147    0.00248     0.30395
      H   22    0.23399      0.00000     0.26299    0.00301     0.26601
 =======================================================================
   * Total *    0.00000     11.99611    32.83022    0.17367    45.00000

 Normal termination of Gaussian 16 at Wed Dec  9 18:38:35 2020.
