 Gaussian 16, Revision A.03,

 -----------------------------------------------------------
 # opt freq B3LYP/6-31G(d) empiricaldispersion=gd3bj scf=xqc
 -----------------------------------------------------------

 ------------------------------
 CID_11128221_JID_7123_neutraal
 ------------------------------
 Symbolic Z-matrix:
 Charge =  0 Multiplicity = 1

 SCF Done:  E(RB3LYP) =  -828.034309973     A.U. after   14 cycles
 SCF Done:  E(RB3LYP) =  -828.040859131     A.U. after   13 cycles
 SCF Done:  E(RB3LYP) =  -828.041531525     A.U. after   12 cycles
 SCF Done:  E(RB3LYP) =  -828.041854531     A.U. after   11 cycles
 SCF Done:  E(RB3LYP) =  -828.041933740     A.U. after   10 cycles
 SCF Done:  E(RB3LYP) =  -828.041971439     A.U. after   11 cycles
 SCF Done:  E(RB3LYP) =  -828.041987135     A.U. after    9 cycles
 SCF Done:  E(RB3LYP) =  -828.041995430     A.U. after    9 cycles
 SCF Done:  E(RB3LYP) =  -828.041999406     A.U. after    9 cycles
 SCF Done:  E(RB3LYP) =  -828.042000098     A.U. after    8 cycles
 Optimization completed.
    -- Stationary point found.
 Normal termination of Gaussian 16 at Fri Dec 11 11:46:14 2020.

 --------------------------------------------------------------------
 #N Geom=AllCheck Guess=TCheck SCRF=Check GenChk RB3LYP/6-31G(d) Freq
 --------------------------------------------------------------------

 Structure from the checkpoint file:  "JID_7123.chk"
 ------------------------------
 CID_11128221_JID_7123_neutraal
 ------------------------------
 Charge =  0 Multiplicity = 1

 SCF Done:  E(RB3LYP) =  -828.042000098     A.U. after    1 cycles

  Exact polarizability: 213.977  -4.749 158.268  -0.040   0.007  61.688
 Approx polarizability: 295.278 -18.822 279.786   0.057   0.876  97.040

                      1                      2                      3
                      A                      A                      A
 Frequencies --     39.4198                48.4331                67.6464
 Red. masses --      3.4489                 4.9764                 5.6409
 Frc consts  --      0.0032                 0.0069                 0.0152
 IR Inten    --      2.9113                 0.4115                 2.4437

                      4                      5                      6
                      A                      A                      A
 Frequencies --     76.1015               104.8934               166.0325
 Red. masses --      7.6006                 6.6904                 3.9676
 Frc consts  --      0.0259                 0.0434                 0.0644
 IR Inten    --      0.1680                 0.0517                 3.8918

                      7                      8                      9
                      A                      A                      A
 Frequencies --    166.9373               180.2568               191.2540
 Red. masses --      5.0079                 1.1592                 1.1122
 Frc consts  --      0.0822                 0.0222                 0.0240
 IR Inten    --      3.0251                 0.1291                 1.2930

                     10                     11                     12
                      A                      A                      A
 Frequencies --    209.6859               242.8480               267.7732
 Red. masses --      4.0511                 4.5447                 1.6742
 Frc consts  --      0.1049                 0.1579                 0.0707
 IR Inten    --     20.3966                50.4006               168.4629

                     13                     14                     15
                      A                      A                      A
 Frequencies --    281.1720               288.7649               352.5551
 Red. masses --      2.7165                 4.0828                 3.7303
 Frc consts  --      0.1265                 0.2006                 0.2732
 IR Inten    --     57.9265                 5.1788                 8.9223

                     16                     17                     18
                      A                      A                      A
 Frequencies --    362.3001               369.1149               475.2866
 Red. masses --      7.7386                 7.9845                 5.4102
 Frc consts  --      0.5985                 0.6409                 0.7201
 IR Inten    --      9.1260                 2.0211                 1.2889

                     19                     20                     21
                      A                      A                      A
 Frequencies --    528.0763               547.4327               557.6777
 Red. masses --      1.1189                 4.2350                 7.4486
 Frc consts  --      0.1838                 0.7478                 1.3649
 IR Inten    --      2.9379                 8.4350                11.1643

                     22                     23                     24
                      A                      A                      A
 Frequencies --    566.7966               568.7547               576.0669
 Red. masses --      2.3067                 4.3173                 2.8318
 Frc consts  --      0.4366                 0.8228                 0.5537
 IR Inten    --      0.2594                46.4259                 1.0429

                     25                     26                     27
                      A                      A                      A
 Frequencies --    630.7864               650.7329               682.5989
 Red. masses --      4.0955                 4.4443                 7.7390
 Frc consts  --      0.9601                 1.1088                 2.1245
 IR Inten    --      6.8307                19.8076                 1.6381

                     28                     29                     30
                      A                      A                      A
 Frequencies --    718.9000               731.9358               749.3875
 Red. masses --      6.3299                 4.3441                 1.4211
 Frc consts  --      1.9274                 1.3712                 0.4702
 IR Inten    --     49.2063                 3.2251                87.0695

                     31                     32                     33
                      A                      A                      A
 Frequencies --    772.4299               795.3110               809.6950
 Red. masses --      6.4437                 3.8291                 5.2186
 Frc consts  --      2.2652                 1.4270                 2.0158
 IR Inten    --      1.1182                30.5449                 2.1824

                     34                     35                     36
                      A                      A                      A
 Frequencies --    823.7790               894.2280               964.4016
 Red. masses --      1.9238                 6.1156                 3.5036
 Frc consts  --      0.7692                 2.8813                 1.9199
 IR Inten    --      0.0792                 0.7213               112.1589

                     37                     38                     39
                      A                      A                      A
 Frequencies --    993.3991              1039.7038              1051.3247
 Red. masses --      2.5113                 2.5544                 1.8045
 Frc consts  --      1.4602                 1.6269                 1.1751
 IR Inten    --     12.8864                11.2648                33.4268

                     40                     41                     42
                      A                      A                      A
 Frequencies --   1067.6439              1074.8698              1146.3256
 Red. masses --      1.7324                 1.7238                 3.3022
 Frc consts  --      1.1635                 1.1734                 2.5566
 IR Inten    --      5.6839                 6.9744                 0.6067

                     43                     44                     45
                      A                      A                      A
 Frequencies --   1163.7888              1225.8979              1275.5892
 Red. masses --      2.3665                 3.0701                 3.6872
 Frc consts  --      1.8885                 2.7184                 3.5349
 IR Inten    --      0.0244                85.3256               158.2437

                     46                     47                     48
                      A                      A                      A
 Frequencies --   1305.7350              1324.7374              1333.6074
 Red. masses --      6.1527                 2.2973                 3.5775
 Frc consts  --      6.1805                 2.3753                 3.7487
 IR Inten    --    571.6469               217.1906               214.2157

                     49                     50                     51
                      A                      A                      A
 Frequencies --   1369.0995              1414.5125              1424.0992
 Red. masses --      4.7895                 2.2015                 1.7601
 Frc consts  --      5.2894                 2.5953                 2.1032
 IR Inten    --     42.3118                48.7005               312.6727

                     52                     53                     54
                      A                      A                      A
 Frequencies --   1428.8646              1434.9131              1480.0068
 Red. masses --      1.8720                 2.5854                 1.1097
 Frc consts  --      2.2518                 3.1364                 1.4322
 IR Inten    --     46.6765                34.1452                12.2389

                     55                     56                     57
                      A                      A                      A
 Frequencies --   1502.3176              1503.4159              1512.0459
 Red. masses --      1.0469                 1.0543                 1.0454
 Frc consts  --      1.3921                 1.4040                 1.4082
 IR Inten    --      8.0390                 4.7501                11.7312

                     58                     59                     60
                      A                      A                      A
 Frequencies --   1518.1841              1545.3833              1561.3103
 Red. masses --      3.7210                 3.5620                 4.6483
 Frc consts  --      5.0532                 5.0121                 6.6761
 IR Inten    --     16.5119               394.5317               266.4292

                     61                     62                     63
                      A                      A                      A
 Frequencies --   1631.6468              1654.0760              1686.8070
 Red. masses --      2.2720                10.2158                 2.5944
 Frc consts  --      3.5638                16.4678                 4.3493
 IR Inten    --     65.6861               275.7347               592.5171

                     64                     65                     66
                      A                      A                      A
 Frequencies --   1798.8179              1846.8691              3064.3018
 Red. masses --      8.1520                11.4508                 1.0386
 Frc consts  --     15.5414                23.0123                 5.7461
 IR Inten    --    409.6972               205.3056                 2.1045

                     67                     68                     69
                      A                      A                      A
 Frequencies --   3083.1541              3127.4833              3151.8009
 Red. masses --      1.0345                 1.1013                 1.0997
 Frc consts  --      5.7939                 6.3464                 6.4366
 IR Inten    --      2.1512                 5.5084                 5.0814

                     70                     71                     72
                      A                      A                      A
 Frequencies --   3179.7479              3185.7491              3287.8444
 Red. masses --      1.1063                 1.1009                 1.0960
 Frc consts  --      6.5903                 6.5830                 6.9807
 IR Inten    --     19.3882                 4.1732                 0.2286

                     73                     74                     75
                      A                      A                      A
 Frequencies --   3590.1939              3603.7845              3727.7622
 Red. masses --      1.0759                 1.0447                 1.1052
 Frc consts  --      8.1708                 7.9939                 9.0489
 IR Inten    --     47.7120                92.3762                49.0591

 - Thermochemistry -
 -------------------
 Temperature   298.150 Kelvin.  Pressure   1.00000 Atm.
 Atom     1 has atomic number  6 and mass  12.00000

 Molecular mass:   234.08652 amu.
 Principal axes and moments of inertia in atomic units:
                           1         2         3
     Eigenvalues --  2176.041526033.345828186.66797
           X            0.99978   0.02120  -0.00001
           Y           -0.02120   0.99977  -0.00145
           Z           -0.00002   0.00145   1.00000
 This molecule is an asymmetric top.
 Rotational symmetry number  1.
 Warning -- assumption of classical behavior for rotation
           may cause significant error
 Rotational temperatures (Kelvin)      0.03980     0.01436     0.01058
 Rotational constants (GHZ):           0.82937     0.29913     0.22045
 Zero-point vibrational energy     536981.4 (Joules/Mol)
                                  128.34164 (Kcal/Mol)
 Warning -- explicit consideration of  24 degrees of freedom as
           vibrations may cause significant error
 Vibrational temperatures:     56.72    69.68    97.33   109.49   150.92
          (Kelvin)            238.88   240.19   259.35   275.17   301.69
                              349.40   385.27   404.54   415.47   507.25
                              521.27   531.07   683.83   759.78   787.63
                              802.37   815.49   818.31   828.83   907.56
                              936.26   982.11  1034.34  1053.09  1078.20
                             1111.35  1144.28  1164.97  1185.23  1286.59
                             1387.56  1429.28  1495.90  1512.62  1536.10
                             1546.50  1649.31  1674.43  1763.79  1835.29
                             1878.66  1906.00  1918.76  1969.83  2035.17
                             2048.96  2055.82  2064.52  2129.40  2161.50
                             2163.08  2175.50  2184.33  2223.46  2246.38
                             2347.58  2379.85  2426.94  2588.10  2657.23
                             4408.85  4435.97  4499.75  4534.74  4574.95
                             4583.58  4730.47  5165.49  5185.04  5363.42

 Zero-point correction=                           0.204525 (Hartree/Particle)
 Thermal correction to Energy=                    0.219980
 Thermal correction to Enthalpy=                  0.220924
 Thermal correction to Gibbs Free Energy=         0.161044
 Sum of electronic and zero-point Energies=           -827.837475
 Sum of electronic and thermal Energies=              -827.822020
 Sum of electronic and thermal Enthalpies=            -827.821076
 Sum of electronic and thermal Free Energies=         -827.880956

                     E (Thermal)             CV                S
                      KCal/Mol        Cal/Mol-Kelvin    Cal/Mol-Kelvin
 Total                  138.040             57.378            126.030
 Electronic               0.000              0.000              0.000
 Translational            0.889              2.981             42.253
 Rotational               0.889              2.981             33.041
 Vibrational            136.262             51.416             50.735
 Vibration     1          0.594              1.981              5.288
 Vibration     2          0.595              1.978              4.880
 Vibration     3          0.598              1.970              4.221
 Vibration     4          0.599              1.965              3.989
 Vibration     5          0.605              1.945              3.361
 Vibration     6          0.624              1.884              2.480
 Vibration     7          0.624              1.883              2.470
 Vibration     8          0.629              1.867              2.326
 Vibration     9          0.634              1.852              2.216
 Vibration    10          0.642              1.826              2.046
 Vibration    11          0.659              1.775              1.782
 Vibration    12          0.673              1.732              1.611
 Vibration    13          0.681              1.708              1.527
 Vibration    14          0.685              1.695              1.481
 Vibration    15          0.729              1.570              1.155
 Vibration    16          0.736              1.550              1.112
 Vibration    17          0.741              1.536              1.083
 Vibration    18          0.832              1.305              0.723
 Vibration    19          0.883              1.188              0.592
 Vibration    20          0.903              1.145              0.550
 Vibration    21          0.913              1.123              0.528
 Vibration    22          0.923              1.103              0.510
 Vibration    23          0.925              1.099              0.507
 Vibration    24          0.932              1.083              0.493

                           ! Non-Optimized Parameters !
 Normal termination of Gaussian 16 at Fri Dec 11 11:54:17 2020.

 ----------------------------------------------------------------------
 # B3LYP/6-311++G(d,p) empiricaldispersion=gd3bj scf=xqc pop=npa geom=c
 heck
 ----------------------------------------------------------------------

 --------------------------------------
 CID_11128221_JID_7123_Energie_neutraal
 --------------------------------------
 Structure from the checkpoint file:  "JID_7123.chk"
 Charge =  0 Multiplicity = 1

 SCF Done:  E(RB3LYP) =  -828.278059699     A.U. after   15 cycles
 Normal termination of Gaussian 16 at Fri Dec 11 11:57:42 2020.

 ----------------------------------------------------------------------
 # B3LYP/6-311++G(d,p) empiricaldispersion=gd3bj scf=xqc pop=npa geom=c
 heck
 ----------------------------------------------------------------------

 ------------------------------------
 CID_11128221_JID_7123_Energie_kation
 ------------------------------------
 Structure from the checkpoint file:  "JID_7123.chk"
 Charge =  1 Multiplicity = 2

 SCF Done:  E(UB3LYP) =  -827.982060705     A.U. after   24 cycles
 Normal termination of Gaussian 16 at Fri Dec 11 12:05:49 2020.
 Gaussian 16:  ES64L-G16RevA.03 25-Dec-2016

 ----------------------------------------------------------------------
 # B3LYP/6-311++G(d,p) empiricaldispersion=gd3bj scf=xqc pop=npa geom=c
 heck
 ----------------------------------------------------------------------

 -----------------------------------
 CID_11128221_JID_7123_Energie_anion
 -----------------------------------
 Structure from the checkpoint file:  "JID_7123.chk"
 Charge = -1 Multiplicity = 2

                         Standard orientation:
 ---------------------------------------------------------------------
 Center     Atomic      Atomic             Coordinates (Angstroms)
 Number     Number       Type             X           Y           Z
 ---------------------------------------------------------------------
      1          6           0        4.304422    0.250825    0.015380
      2          6           0        3.661792   -1.115254   -0.001004
      3          8           0        4.311220   -2.148332   -0.007354
      4          7           0        2.269883   -1.218378   -0.009418
      5          6           0        1.237378   -0.292888   -0.003224
      6          7           0        1.538830    1.015482   -0.007807
      7          6           0        0.527655    1.897464    0.002307
      8          6           0       -0.797529    1.422280    0.004719
      9          6           0       -0.956730    0.033167    0.004256
     10          7           0        0.018660   -0.868574    0.002784
     11          7           0       -2.347335   -0.161699    0.001452
     12          6           0       -2.905841    1.130333   -0.002689
     13          7           0       -2.020407    2.083165   -0.001339
     14          6           0       -3.046143   -1.399363    0.001310
     15          8           0       -2.453618   -2.450632    0.002670
     16          6           0       -4.556920   -1.285148   -0.000291
     17          7           0        0.816431    3.220286    0.032750
     18          1           0        5.384802    0.099804    0.029775
     19          1           0        3.984533    0.825413    0.888224
     20          1           0        4.010223    0.832188   -0.862134
     21          1           0        1.944644   -2.179045   -0.013851
     22          1           0       -3.975487    1.277622   -0.006935
     23          1           0       -4.915293   -0.747855    0.884568
     24          1           0       -4.913522   -0.751988   -0.888393
     25          1           0       -4.965933   -2.295469    0.001550
     26          1           0        0.073521    3.885583   -0.119731
     27          1           0        1.770752    3.505008   -0.129151
 ---------------------------------------------------------------------

 SCF Done:  E(UB3LYP) =  -828.290501419     A.U. after   32 cycles

 The electronic state is 2-A.
 Alpha  occ. eigenvalues --  -18.97567 -18.95010 -14.23810 -14.22680 -14.22594
 Alpha  occ. eigenvalues --  -14.18017 -14.17575 -14.16965 -10.16091 -10.13872
 Alpha  occ. eigenvalues --  -10.13553 -10.12717 -10.10860 -10.08772 -10.06430
 Alpha  occ. eigenvalues --  -10.06083 -10.05987  -0.93156  -0.91803  -0.88818
 Alpha  occ. eigenvalues --   -0.86365  -0.83406  -0.78282  -0.75712  -0.74146
 Alpha  occ. eigenvalues --   -0.64281  -0.62986  -0.61938  -0.54470  -0.54145
 Alpha  occ. eigenvalues --   -0.50795  -0.48755  -0.45060  -0.43079  -0.41621
 Alpha  occ. eigenvalues --   -0.38226  -0.37039  -0.35531  -0.35382  -0.35066
 Alpha  occ. eigenvalues --   -0.34247  -0.32772  -0.32045  -0.31053  -0.29809
 Alpha  occ. eigenvalues --   -0.29399  -0.28645  -0.28557  -0.27740  -0.27040
 Alpha  occ. eigenvalues --   -0.24420  -0.23537  -0.20711  -0.18050  -0.16863
 Alpha  occ. eigenvalues --   -0.15797  -0.15083  -0.14208  -0.13387  -0.11735
 Alpha  occ. eigenvalues --   -0.09134   0.04325
 Alpha virt. eigenvalues --    0.07181   0.07952   0.08952   0.09701   0.10386
 Alpha virt. eigenvalues --    0.10778   0.11603   0.11812   0.12012   0.12116
 Alpha virt. eigenvalues --    0.13429   0.13884   0.14298   0.15560   0.15895

  Beta  occ. eigenvalues --  -18.97438 -18.94589 -14.23877 -14.22729 -14.22589
  Beta  occ. eigenvalues --  -14.18040 -14.17653 -14.16874 -10.15985 -10.13597
  Beta  occ. eigenvalues --  -10.13496 -10.12359 -10.10734 -10.08360 -10.06439
  Beta  occ. eigenvalues --  -10.06046 -10.06017  -0.92938  -0.91266  -0.88472
  Beta  occ. eigenvalues --   -0.86082  -0.83323  -0.78217  -0.75536  -0.74034
  Beta  occ. eigenvalues --   -0.64025  -0.62886  -0.61735  -0.54220  -0.53897
  Beta  occ. eigenvalues --   -0.50293  -0.48525  -0.44975  -0.42945  -0.41456
  Beta  occ. eigenvalues --   -0.38115  -0.36646  -0.35329  -0.34991  -0.34846
  Beta  occ. eigenvalues --   -0.33669  -0.32683  -0.31600  -0.30807  -0.29716
  Beta  occ. eigenvalues --   -0.29309  -0.28407  -0.28154  -0.27405  -0.26773
  Beta  occ. eigenvalues --   -0.23784  -0.21830  -0.20666  -0.17347  -0.16782
  Beta  occ. eigenvalues --   -0.15266  -0.14978  -0.13744  -0.13256  -0.11521
  Beta  occ. eigenvalues --   -0.08293
  Beta virt. eigenvalues --    0.07155   0.07973   0.08935   0.09433   0.10640
  Beta virt. eigenvalues --    0.10740   0.11137   0.11589   0.11992   0.12252
  Beta virt. eigenvalues --    0.13370   0.13395   0.13839   0.14223   0.15548

 Mulliken charges and spin densities:
               1          2
     1  C   -0.415349  -0.005949
     2  C    0.179959   0.061867
     3  O   -0.358478   0.043128
     4  N   -0.227145  -0.025086
     5  C   -0.196338   0.142871
     6  N   -0.279447  -0.018006
     7  C    0.085854   0.025664
     8  C   -0.315442   0.034286
     9  C    0.076084   0.079152
    10  N   -0.172131  -0.050295
    11  N   -0.003403  -0.046001
    12  C    0.104734   0.332957
    13  N   -0.210082   0.022828
    14  C    0.202085   0.184429
    15  O   -0.365295   0.154682
    16  C   -0.571310  -0.063453
    17  N   -0.403813   0.010283
    18  H    0.172403   0.000211
    19  H    0.169677   0.002018
    20  H    0.160606   0.005672
    21  H    0.337259   0.000614
    22  H    0.165067  -0.022662
    23  H    0.090281   0.063507
    24  H    0.092593   0.060755
    25  H    0.156542   0.000171
    26  H    0.270985   0.005355
    27  H    0.254106   0.001002
 Sum of Mulliken charges =  -1.00000   1.00000

 Dipole moment (field-independent basis, Debye):
    X=              0.3408    Y=              5.6995    Z=             -0.4009  Tot=              5.7237
 Quadrupole moment (field-independent basis, Debye-Ang):
   XX=           -146.8084   YY=           -127.2668   ZZ=           -105.0586
   XY=             15.4539   XZ=             -0.2534   YZ=             -1.7690

 Summary of Natural Population Analysis:

                                       Natural Population
                Natural  -----------------------------------------------
    Atom  No    Charge         Core      Valence    Rydberg      Total
 -----------------------------------------------------------------------
      C    1   -0.33245      0.99963     2.32890    0.00392     3.33245
      C    2    0.35807      0.99973     1.62128    0.02093     2.64193
      O    3   -0.31322      0.99988     3.30632    0.00702     4.31322
      N    4   -0.31664      0.99963     2.80813    0.00888     3.81664
      C    5    0.33670      0.99962     1.64678    0.01690     2.66330
      N    6   -0.31542      0.99964     2.80351    0.01227     3.81542
      C    7    0.21973      0.99952     1.76650    0.01425     2.78027
      C    8   -0.00731      0.99940     1.99446    0.01345     3.00731
      C    9    0.22278      0.99946     1.76407    0.01369     2.77722
      N   10   -0.27999      0.99964     2.77155    0.00879     3.77999
      N   11   -0.25219      0.99961     2.74193    0.01065     3.75219
      C   12    0.19323      0.99968     1.78724    0.01985     2.80677
      N   13   -0.25353      0.99970     2.74371    0.01011     3.75353
      C   14    0.39117      0.99973     1.58840    0.02071     2.60883
      O   15   -0.24726      0.99987     3.24136    0.00603     4.24726
      C   16   -0.33719      0.99964     2.33298    0.00457     3.33719
      N   17   -0.39180      0.99970     2.88382    0.00828     3.89180
      H   18    0.10128      0.00000     0.39760    0.00112     0.39872
      H   19    0.11470      0.00000     0.38438    0.00093     0.38530
      H   20    0.11402      0.00000     0.38505    0.00094     0.38598
      H   21    0.20504      0.00000     0.29300    0.00196     0.29496
      H   22    0.08449      0.00000     0.41462    0.00089     0.41551
      H   23    0.10482      0.00000     0.39360    0.00158     0.39518
      H   24    0.10522      0.00000     0.39373    0.00104     0.39478
      H   25    0.10742      0.00000     0.39181    0.00077     0.39258
      H   26    0.19795      0.00000     0.30094    0.00110     0.30205
      H   27    0.19038      0.00000     0.30820    0.00142     0.30962
 =======================================================================
   * Total *   -0.00000     16.99407    43.79387    0.21206    61.00000

 Normal termination of Gaussian 16 at Fri Dec 11 12:16:55 2020.
