 Gaussian 16, Revision A.03,

 -----------------------------------------------------------
 # opt freq B3LYP/6-31G(d) empiricaldispersion=gd3bj scf=xqc
 -----------------------------------------------------------

 ------------------------------
 CID_148683438_JID_276_neutraal
 ------------------------------
 Symbolic Z-matrix:
 Charge =  0 Multiplicity = 1

 SCF Done:  E(RB3LYP) =  -407.939448537     A.U. after   14 cycles
 SCF Done:  E(RB3LYP) =  -407.941543691     A.U. after   12 cycles
 SCF Done:  E(RB3LYP) =  -407.940283481     A.U. after   13 cycles
 SCF Done:  E(RB3LYP) =  -407.941959978     A.U. after   12 cycles
 SCF Done:  E(RB3LYP) =  -407.943018594     A.U. after   13 cycles
 SCF Done:  E(RB3LYP) =  -407.943950842     A.U. after   12 cycles
 SCF Done:  E(RB3LYP) =  -407.942420214     A.U. after   15 cycles
 SCF Done:  E(RB3LYP) =  -407.944336705     A.U. after   12 cycles
 SCF Done:  E(RB3LYP) =  -407.944590576     A.U. after   11 cycles
 SCF Done:  E(RB3LYP) =  -407.944628929     A.U. after   11 cycles
 SCF Done:  E(RB3LYP) =  -407.944651798     A.U. after    8 cycles
 SCF Done:  E(RB3LYP) =  -407.944652007     A.U. after    7 cycles
 SCF Done:  E(RB3LYP) =  -407.944652134     A.U. after    8 cycles
 SCF Done:  E(RB3LYP) =  -407.944652190     A.U. after    8 cycles
 SCF Done:  E(RB3LYP) =  -407.944652226     A.U. after    7 cycles
 Optimization completed.
    -- Stationary point found.

 1\1\GINC-NODE111\FOpt\RB3LYP\6-31G(d)\C9H17N1\VSC10255\08-Dec-2020\0\\
 # opt freq B3LYP/6-31G(d) empiricaldispersion=gd3bj scf=xqc\\CID_14868
 3438_JID_276_neutraal\\0,1\C,0.7695815339,-0.1155663459,0.0342367813\C
 ,0.1032543168,0.0489393571,-1.3343953924\C,0.9566603469,-0.4734722789,
 -2.5062318017\C,1.2306715925,-1.9871785008,-2.4078874776\C,0.387440093
 8,-0.0954873357,-3.8739480049\C,1.2259309538,0.1501531636,-4.887289560
 7\C,-1.1064663652,0.030805872,-4.1048643588\C,-1.9151556355,-1.2776784
 077,-4.2208529964\N,-2.2648208277,-1.8522083728,-2.929403135\C,-2.1731

 Normal termination of Gaussian 16 at Tue Dec  8 10:26:33 2020.

 --------------------------------------------------------------------
 #N Geom=AllCheck Guess=TCheck SCRF=Check GenChk RB3LYP/6-31G(d) Freq
 --------------------------------------------------------------------

 Structure from the checkpoint file:  "JID_276.chk"
 ------------------------------
 CID_148683438_JID_276_neutraal
 ------------------------------
 Charge =  0 Multiplicity = 1

 SCF Done:  E(RB3LYP) =  -407.944652226     A.U. after    1 cycles

  Exact polarizability:  96.500   2.080 117.020  -0.353  -0.751  89.056
 Approx polarizability: 123.552  -0.289 164.480  -0.548   0.182 136.268

                      1                      2                      3
                      A                      A                      A
 Frequencies --     27.3318                61.3096               110.8840
 Red. masses --      3.0003                 3.3351                 1.8003
 Frc consts  --      0.0013                 0.0074                 0.0130
 IR Inten    --      0.7675                 0.0954                 1.3566

                      4                      5                      6
                      A                      A                      A
 Frequencies --    114.4494               135.0043               195.3634
 Red. masses --      2.6813                 3.1376                 2.2966
 Frc consts  --      0.0207                 0.0337                 0.0516
 IR Inten    --     10.0453                 3.2359                 0.7855

                      7                      8                      9
                      A                      A                      A
 Frequencies --    198.9945               205.4656               253.6845
 Red. masses --      2.1534                 1.2266                 1.6416
 Frc consts  --      0.0502                 0.0305                 0.0622
 IR Inten    --      3.7958                 0.2229                 0.4275

                     10                     11                     12
                      A                      A                      A
 Frequencies --    288.4273               311.3377               365.2095
 Red. masses --      2.4469                 2.2059                 2.2614
 Frc consts  --      0.1199                 0.1260                 0.1777
 IR Inten    --      2.8285                 0.3731                 0.2165

                     13                     14                     15
                      A                      A                      A
 Frequencies --    388.3096               463.9977               493.4086
 Red. masses --      1.9240                 2.5578                 2.6515
 Frc consts  --      0.1709                 0.3244                 0.3803
 IR Inten    --      3.3654                 0.9626                 7.0445

                     16                     17                     18
                      A                      A                      A
 Frequencies --    508.6449               640.0409               700.4534
 Red. masses --      2.1651                 2.7664                 1.3570
 Frc consts  --      0.3300                 0.6677                 0.3923
 IR Inten    --      0.3275                 8.1747                 1.4789

                     19                     20                     21
                      A                      A                      A
 Frequencies --    739.1545               747.3059               806.8835
 Red. masses --      1.3588                 1.4098                 1.2548
 Frc consts  --      0.4374                 0.4639                 0.4813
 IR Inten    --      1.7485                 0.7253                 1.5521

                     22                     23                     24
                      A                      A                      A
 Frequencies --    846.4754               892.6827               925.0064
 Red. masses --      1.9924                 2.1606                 1.3784
 Frc consts  --      0.8411                 1.0144                 0.6949
 IR Inten    --      0.7202                 1.7753                35.1772

                     25                     26                     27
                      A                      A                      A
 Frequencies --    934.0708               988.7141               994.8805
 Red. masses --      1.7961                 1.2559                 1.7114
 Frc consts  --      0.9233                 0.7233                 0.9981
 IR Inten    --      0.6728                 2.7592                 0.2774

                     28                     29                     30
                      A                      A                      A
 Frequencies --   1014.3002              1051.6549              1057.1513
 Red. masses --      1.8539                 2.4799                 1.8717
 Frc consts  --      1.1238                 1.6160                 1.2324
 IR Inten    --      5.6339                 3.5416                 8.5766

                     31                     32                     33
                      A                      A                      A
 Frequencies --   1061.2144              1076.7311              1111.0550
 Red. masses --      1.5645                 2.2930                 1.6594
 Frc consts  --      1.0381                 1.5663                 1.2069
 IR Inten    --     11.4544                 0.8035                 8.6536

                     34                     35                     36
                      A                      A                      A
 Frequencies --   1152.3810              1206.0565              1212.2986
 Red. masses --      2.1052                 1.8768                 1.3088
 Frc consts  --      1.6472                 1.6085                 1.1333
 IR Inten    --      0.7121                 0.4662                 7.4360

                     37                     38                     39
                      A                      A                      A
 Frequencies --   1262.0879              1280.1538              1317.7946
 Red. masses --      1.7437                 1.3382                 1.2717
 Frc consts  --      1.6365                 1.2921                 1.3011
 IR Inten    --      8.6687                 6.0520                 1.2534

                     40                     41                     42
                      A                      A                      A
 Frequencies --   1331.7380              1348.5548              1375.0130
 Red. masses --      1.3668                 1.3280                 1.2806
 Frc consts  --      1.4282                 1.4229                 1.4266
 IR Inten    --      0.4181                 2.6026                 1.2963

                     43                     44                     45
                      A                      A                      A
 Frequencies --   1386.1199              1397.4321              1411.1641
 Red. masses --      1.4155                 1.3091                 1.3679
 Frc consts  --      1.6024                 1.5063                 1.6050
 IR Inten    --      2.5378                15.9645                 1.6243

                     46                     47                     48
                      A                      A                      A
 Frequencies --   1433.5108              1441.4789              1477.1369
 Red. masses --      1.2653                 1.2298                 1.1807
 Frc consts  --      1.5320                 1.5056                 1.5179
 IR Inten    --      3.0034                 1.9365                 3.1476

                     49                     50                     51
                      A                      A                      A
 Frequencies --   1503.6940              1512.1451              1522.1805
 Red. masses --      1.0865                 1.1119                 1.1610
 Frc consts  --      1.4474                 1.4980                 1.5849
 IR Inten    --      3.1931                14.1935                11.6025

                     52                     53                     54
                      A                      A                      A
 Frequencies --   1523.9292              1527.0791              1536.9120
 Red. masses --      1.0532                 1.0514                 1.0501
 Frc consts  --      1.4410                 1.4445                 1.4615
 IR Inten    --      3.2701                 3.1465                 1.9283

                     55                     56                     57
                      A                      A                      A
 Frequencies --   1541.3713              1543.5529              1717.6834
 Red. masses --      1.0529                 1.0758                 4.8019
 Frc consts  --      1.4739                 1.5101                 8.3474
 IR Inten    --      1.5477                 2.0552                10.5626

                     58                     59                     60
                      A                      A                      A
 Frequencies --   1752.4790              2985.4984              3015.4453
 Red. masses --      6.0379                 1.0654                 1.0832
 Frc consts  --     10.9255                 5.5949                 5.8031
 IR Inten    --     24.4911                33.1779                25.9637

                     61                     62                     63
                      A                      A                      A
 Frequencies --   3017.9361              3034.3005              3043.4121
 Red. masses --      1.0655                 1.0656                 1.0379
 Frc consts  --      5.7177                 5.7806                 5.6639
 IR Inten    --     51.2816                25.6872                29.7260

                     64                     65                     66
                      A                      A                      A
 Frequencies --   3049.3003              3062.2967              3064.4968
 Red. masses --      1.0828                 1.0375                 1.0728
 Frc consts  --      5.9321                 5.7324                 5.9360
 IR Inten    --      7.8237                34.1151                40.4295

                     67                     68                     69
                      A                      A                      A
 Frequencies --   3085.4579              3100.0180              3109.3138
 Red. masses --      1.0965                 1.1024                 1.1004
 Frc consts  --      6.1505                 6.2418                 6.2679
 IR Inten    --      2.7695                17.3697                40.7049

                     70                     71                     72
                      A                      A                      A
 Frequencies --   3116.7818              3125.6450              3149.7586
 Red. masses --      1.1022                 1.1016                 1.0703
 Frc consts  --      6.3085                 6.3411                 6.2560
 IR Inten    --     53.1490                29.6305                 5.3605

                     73                     74                     75
                      A                      A                      A
 Frequencies --   3150.6584              3157.0102              3224.4447
 Red. masses --      1.0883                 1.1039                 1.1156
 Frc consts  --      6.3652                 6.4821                 6.8340
 IR Inten    --     28.0056                33.0038                23.1829

 - Thermochemistry -
 -------------------
 Temperature   298.150 Kelvin.  Pressure   1.00000 Atm.
 Atom     1 has atomic number  6 and mass  12.00000

 Molecular mass:   139.13610 amu.
 Principal axes and moments of inertia in atomic units:
                           1         2         3
     Eigenvalues --  1321.321701730.528572352.00510
           X            0.99689   0.07863   0.00595
           Y           -0.07857   0.99687  -0.00887
           Z           -0.00662   0.00837   0.99994
 This molecule is an asymmetric top.
 Rotational symmetry number  1.
 Warning -- assumption of classical behavior for rotation
           may cause significant error
 Rotational temperatures (Kelvin)      0.06555     0.05005     0.03683
 Rotational constants (GHZ):           1.36586     1.04288     0.76732
 Zero-point vibrational energy     645477.0 (Joules/Mol)
                                  154.27269 (Kcal/Mol)
 Warning -- explicit consideration of  16 degrees of freedom as
           vibrations may cause significant error
 Vibrational temperatures:     39.32    88.21   159.54   164.67   194.24
          (Kelvin)            281.08   286.31   295.62   365.00   414.98
                              447.95   525.46   558.69   667.59   709.90
                              731.83   920.88  1007.80  1063.48  1075.21
                             1160.93  1217.89  1284.37  1330.88  1343.92
                             1422.54  1431.41  1459.35  1513.10  1521.00
                             1526.85  1549.18  1598.56  1658.02  1735.25
                             1744.23  1815.86  1841.86  1896.01  1916.07
                             1940.27  1978.34  1994.32  2010.59  2030.35
                             2062.50  2073.97  2125.27  2163.48  2175.64
                             2190.08  2192.59  2197.13  2211.27  2217.69
                             2220.83  2471.36  2521.43  4295.47  4338.55
                             4342.14  4365.68  4378.79  4387.26  4405.96
                             4409.13  4439.29  4460.23  4473.61  4484.35
                             4497.11  4531.80  4533.09  4542.23  4639.26

 Zero-point correction=                           0.245849 (Hartree/Particle)
 Thermal correction to Energy=                    0.258022
 Thermal correction to Enthalpy=                  0.258966
 Thermal correction to Gibbs Free Energy=         0.207312
 Sum of electronic and zero-point Energies=           -407.698803
 Sum of electronic and thermal Energies=              -407.686630
 Sum of electronic and thermal Enthalpies=            -407.685686
 Sum of electronic and thermal Free Energies=         -407.737341

                     E (Thermal)             CV                S
                      KCal/Mol        Cal/Mol-Kelvin    Cal/Mol-Kelvin
 Total                  161.911             44.465            108.716
 Electronic               0.000              0.000              0.000
 Translational            0.889              2.981             40.703
 Rotational               0.889              2.981             30.065
 Vibrational            160.134             38.504             37.948
 Vibration     1          0.593              1.984              6.014
 Vibration     2          0.597              1.973              4.415
 Vibration     3          0.607              1.940              3.253
 Vibration     4          0.607              1.937              3.192
 Vibration     5          0.613              1.918              2.873
 Vibration     6          0.636              1.846              2.176
 Vibration     7          0.637              1.841              2.142
 Vibration     8          0.640              1.832              2.084
 Vibration     9          0.665              1.757              1.705
 Vibration    10          0.685              1.695              1.483
 Vibration    11          0.700              1.652              1.355
 Vibration    12          0.738              1.544              1.100
 Vibration    13          0.756              1.495              1.007
 Vibration    14          0.822              1.330              0.755
 Vibration    15          0.849              1.265              0.675
 Vibration    16          0.864              1.231              0.637

 Optimization completed.
    -- Stationary point found.

 1\1\GINC-NODE111\Freq\RB3LYP\6-31G(d)\C9H17N1\VSC10255\08-Dec-2020\0\\
 #N Geom=AllCheck Guess=TCheck SCRF=Check GenChk RB3LYP/6-31G(d) Freq\\
 CID_148683438_JID_276_neutraal\\0,1\C,0.7695815339,-0.1155663459,0.034
 2367813\C,0.1032543168,0.0489393571,-1.3343953924\C,0.9566603469,-0.47
 34722789,-2.5062318017\C,1.2306715925,-1.9871785008,-2.4078874776\C,0.
 3874400938,-0.0954873357,-3.8739480049\C,1.2259309538,0.1501531636,-4.
 8872895607\C,-1.1064663652,0.030805872,-4.1048643588\C,-1.9151556355,-
 1.2776784077,-4.2208529964\N,-2.2648208277,-1.8522083728,-2.929403135\

 Normal termination of Gaussian 16 at Tue Dec  8 10:32:23 2020.

 ----------------------------------------------------------------------
 # B3LYP/6-311++G(d,p) empiricaldispersion=gd3bj scf=xqc pop=npa geom=c
 heck
 ----------------------------------------------------------------------

 --------------------------------------
 CID_148683438_JID_276_Energie_neutraal
 --------------------------------------
 Structure from the checkpoint file:  "JID_276.chk"
 Charge =  0 Multiplicity = 1

 SCF Done:  E(RB3LYP) =  -408.059022489     A.U. after   13 cycles
 Normal termination of Gaussian 16 at Tue Dec  8 10:37:01 2020.

 ----------------------------------------------------------------------
 # B3LYP/6-311++G(d,p) empiricaldispersion=gd3bj scf=xqc pop=npa geom=c
 heck
 ----------------------------------------------------------------------

 ------------------------------------
 CID_148683438_JID_276_Energie_kation
 ------------------------------------
 Structure from the checkpoint file:  "JID_276.chk"
 Charge =  1 Multiplicity = 2

 SCF Done:  E(UB3LYP) =  -407.737967608     A.U. after   26 cycles
 Normal termination of Gaussian 16 at Tue Dec  8 10:45:00 2020.
 Gaussian 16:  ES64L-G16RevA.03 25-Dec-2016

 -----------------------------------
 CID_148683438_JID_276_Energie_anion
 -----------------------------------
 Structure from the checkpoint file:  "JID_276.chk"
 Charge = -1 Multiplicity = 2

                         Standard orientation:
 ---------------------------------------------------------------------
 Center     Atomic      Atomic             Coordinates (Angstroms)
 Number     Number       Type             X           Y           Z
 ---------------------------------------------------------------------
      1          6           0       -2.773229   -1.385461   -0.592873
      2          6           0       -1.519072   -0.542522   -0.839349
      3          6           0       -1.206813    0.451046    0.296316
      4          6           0       -0.920271   -0.255202    1.636154
      5          6           0       -0.097339    1.439435   -0.063804
      6          6           0       -0.146241    2.684889    0.422735
      7          6           0        1.047302    1.049124   -0.979491
      8          6           0        2.151940    0.151848   -0.384316
      9          7           0        1.803587   -1.261956   -0.382684
     10          6           0        2.103236   -1.946393    0.640603
     11          1           0       -2.651555   -2.058439    0.262545
     12          1           0       -3.002989   -2.005280   -1.466670
     13          1           0       -3.646536   -0.750889   -0.395371
     14          1           0       -0.655938   -1.199886   -0.996665
     15          1           0       -1.652785    0.025135   -1.770363
     16          1           0       -2.111159    1.056339    0.453163
     17          1           0       -0.071522   -0.938863    1.554151
     18          1           0       -0.691057    0.481388    2.412880
     19          1           0       -1.787890   -0.835586    1.967206
     20          1           0        0.622009    3.421429    0.199304
     21          1           0       -0.957755    3.014472    1.067962
     22          1           0        0.671997    0.551416   -1.880790
     23          1           0        1.534592    1.973029   -1.310606
     24          1           0        3.027780    0.244585   -1.040676
     25          1           0        2.446734    0.516923    0.614010
     26          1           0        2.588368   -1.528712    1.536496
     27          1           0        1.875525   -3.013954    0.656352
 ---------------------------------------------------------------------

 SCF Done:  E(UB3LYP) =  -408.042462179     A.U. after   33 cycles
 SCF Done:  E(UB3LYP) =  -408.042462179     a.u. after    1 cycles

 The electronic state is 2-A.
 Alpha  occ. eigenvalues --  -14.18893 -10.08428 -10.08008 -10.06871 -10.06667
 Alpha  occ. eigenvalues --  -10.05689 -10.05298 -10.05174 -10.04937 -10.04571
 Alpha  occ. eigenvalues --   -0.80435  -0.71840  -0.66619  -0.62703  -0.60309
 Alpha  occ. eigenvalues --   -0.54172  -0.52979  -0.47226  -0.46100  -0.41298
 Alpha  occ. eigenvalues --   -0.37120  -0.36142  -0.35435  -0.34104  -0.32613
 Alpha  occ. eigenvalues --   -0.31487  -0.30869  -0.29589  -0.28008  -0.26556
 Alpha  occ. eigenvalues --   -0.25428  -0.24843  -0.24611  -0.22280  -0.21196
 Alpha  occ. eigenvalues --   -0.20522  -0.18662  -0.14125  -0.13948   0.05010
 Alpha virt. eigenvalues --    0.06714   0.07801   0.08325   0.08609   0.09618
 Alpha virt. eigenvalues --    0.09796   0.10208   0.10711   0.10926   0.11225
 Alpha virt. eigenvalues --    0.12898   0.13026   0.13337   0.13840   0.14325

  Beta  occ. eigenvalues --  -14.18734 -10.08321 -10.07998 -10.06859 -10.06659
  Beta  occ. eigenvalues --  -10.05671 -10.05273 -10.05164 -10.04928 -10.04546
  Beta  occ. eigenvalues --   -0.80156  -0.71801  -0.66578  -0.62642  -0.60264
  Beta  occ. eigenvalues --   -0.54116  -0.52842  -0.47161  -0.45845  -0.41235
  Beta  occ. eigenvalues --   -0.37048  -0.36060  -0.35372  -0.33996  -0.32546
  Beta  occ. eigenvalues --   -0.31369  -0.30828  -0.29539  -0.27970  -0.26479
  Beta  occ. eigenvalues --   -0.25367  -0.24785  -0.24547  -0.22245  -0.21157
  Beta  occ. eigenvalues --   -0.20459  -0.18068  -0.13932  -0.13848
  Beta virt. eigenvalues --    0.07097   0.08131   0.08474   0.08545   0.09466
  Beta virt. eigenvalues --    0.09889   0.10212   0.10501   0.10956   0.11564
  Beta virt. eigenvalues --    0.11661   0.13186   0.13285   0.13742   0.14069

 Mulliken charges and spin densities:
               1          2
     1  C    1.483006  -2.122751
     2  C   -1.811787   1.287445
     3  C    1.337893  -1.040401
     4  C   -0.152139  -0.538781
     5  C   -0.774626   1.474638
     6  C    1.271743  -1.796329
     7  C   -1.427071   1.068080
     8  C    1.020846  -1.613058
     9  N   -0.181293   0.225964
    10  C    0.020683  -0.126791
    11  H   -0.010019   0.141542
    12  H   -0.124169   0.257632
    13  H   -0.274835   0.410253
    14  H    0.155256   0.015481
    15  H   -0.096652   0.215598
    16  H   -0.087119   0.271844
    17  H    0.170978   0.017541
    18  H    0.118988   0.012783
    19  H   -0.038217   0.149746
    20  H   -0.073091   0.187102
    21  H   -0.171572   0.298645
    22  H    0.156373   0.018173
    23  H   -0.657506   0.839899
    24  H   -0.675365   0.879191
    25  H    0.085001   0.008380
    26  H   -0.075910   0.122801
    27  H   -0.189394   0.335373
 Sum of Mulliken charges =  -1.00000   1.00000

 Dipole moment (field-independent basis, Debye):
    X=             -2.4686    Y=             -0.6283    Z=              2.4069  Tot=              3.5046
 Quadrupole moment (field-independent basis, Debye-Ang):
   XX=           -128.8639   YY=           -107.7105   ZZ=            -91.2856
   XY=             -1.2813   XZ=              5.0257   YZ=              1.9559

 Summary of Natural Population Analysis:

                                       Natural Population
                Natural  -----------------------------------------------
    Atom  No    Charge         Core      Valence    Rydberg      Total
 -----------------------------------------------------------------------
      C    1   -0.28394      0.99967     2.27939    0.00488     3.28394
      C    2   -0.19586      0.99962     2.18740    0.00884     3.19586
      C    3   -0.12309      0.99955     2.11157    0.01197     3.12309
      C    4   -0.28357      0.99964     2.27819    0.00574     3.28357
      C    5    0.01473      0.99949     1.97356    0.01222     2.98527
      C    6   -0.19944      0.99948     2.19195    0.00802     3.19944
      C    7   -0.21050      0.99957     2.19963    0.01130     3.21050
      C    8   -0.09939      0.99959     2.08629    0.01351     3.09939
      N    9   -0.20628      0.99969     2.69396    0.01263     3.70628
      C   10   -0.01157      0.99963     1.99944    0.01250     3.01157
      H   11    0.09506      0.00000     0.40400    0.00094     0.40494
      H   12    0.09763      0.00000     0.40159    0.00078     0.40237
      H   13    0.09491      0.00000     0.40391    0.00118     0.40509
      H   14    0.10924      0.00000     0.38905    0.00171     0.39076
      H   15    0.09396      0.00000     0.40487    0.00116     0.40604
      H   16    0.09555      0.00000     0.40228    0.00217     0.40445
      H   17    0.10196      0.00000     0.39673    0.00131     0.39804
      H   18    0.09793      0.00000     0.40120    0.00087     0.40207
      H   19    0.09602      0.00000     0.40319    0.00079     0.40398
      H   20    0.09254      0.00000     0.40638    0.00107     0.40746
      H   21    0.08988      0.00000     0.40907    0.00105     0.41012
      H   22    0.10539      0.00000     0.39266    0.00195     0.39461
      H   23    0.10411      0.00000     0.39383    0.00206     0.39589
      H   24    0.10460      0.00000     0.39068    0.00472     0.39540
      H   25    0.07869      0.00000     0.41905    0.00226     0.42131
      H   26    0.06380      0.00000     0.43440    0.00180     0.43620
      H   27    0.07763      0.00000     0.42107    0.00130     0.42237
 =======================================================================
   * Total *   -0.00000      9.99592    28.87536    0.12873    39.00000

 Normal termination of Gaussian 16 at Tue Dec  8 10:56:05 2020.
