 Gaussian 16, Revision A.03,

 -----------------------------------------------------------
 # opt freq B3LYP/6-31G(d) empiricaldispersion=gd3bj scf=xqc
 -----------------------------------------------------------

 -------------------------------
 CID_116812195_JID_8818_neutraal
 -------------------------------
 Symbolic Z-matrix:
 Charge =  0 Multiplicity = 1

 SCF Done:  E(RB3LYP) =  -1177.96035220     A.U. after   17 cycles
 SCF Done:  E(RB3LYP) =  -1177.96653942     A.U. after   14 cycles
 SCF Done:  E(RB3LYP) =  -1177.96697791     A.U. after   14 cycles
 SCF Done:  E(RB3LYP) =  -1177.96893035     A.U. after   16 cycles
 SCF Done:  E(RB3LYP) =  -1177.97089599     A.U. after   14 cycles
 SCF Done:  E(RB3LYP) =  -1177.97180007     A.U. after   15 cycles
 SCF Done:  E(RB3LYP) =  -1177.97206567     A.U. after   14 cycles
 SCF Done:  E(RB3LYP) =  -1177.97211864     A.U. after   12 cycles
 SCF Done:  E(RB3LYP) =  -1177.97213083     A.U. after   11 cycles
 SCF Done:  E(RB3LYP) =  -1177.97213562     A.U. after   10 cycles
 SCF Done:  E(RB3LYP) =  -1177.97213981     A.U. after   10 cycles
 SCF Done:  E(RB3LYP) =  -1177.97214110     A.U. after    8 cycles
 SCF Done:  E(RB3LYP) =  -1177.97214151     A.U. after    8 cycles
 SCF Done:  E(RB3LYP) =  -1177.97214172     A.U. after    8 cycles
 SCF Done:  E(RB3LYP) =  -1177.97214177     A.U. after    8 cycles
 Optimization completed.
    -- Stationary point found.
 Normal termination of Gaussian 16 at Fri Dec 11 22:13:14 2020.

 --------------------------------------------------------------------
 #N Geom=AllCheck Guess=TCheck SCRF=Check GenChk RB3LYP/6-31G(d) Freq
 --------------------------------------------------------------------

 Structure from the checkpoint file:  "JID_8818.chk"
 -------------------------------
 CID_116812195_JID_8818_neutraal
 -------------------------------
 Charge =  0 Multiplicity = 1

 SCF Done:  E(RB3LYP) =  -1177.97214177     A.U. after    1 cycles

  Exact polarizability: 297.458  -5.099 169.489  11.966 -12.945  86.580
 Approx polarizability: 434.077  -2.160 311.358  25.455 -36.105 136.183

                      1                      2                      3
                      A                      A                      A
 Frequencies --     23.2110                30.6973                48.8202
 Red. masses --      5.1989                 4.1048                 8.3180
 Frc consts  --      0.0017                 0.0023                 0.0117
 IR Inten    --      0.9367                 0.7543                 0.1432

                      4                      5                      6
                      A                      A                      A
 Frequencies --     52.3369                71.1642                78.5698
 Red. masses --      5.9327                 4.6299                 6.0050
 Frc consts  --      0.0096                 0.0138                 0.0218
 IR Inten    --      1.0344                 0.7832                 1.0908

                      7                      8                      9
                      A                      A                      A
 Frequencies --    118.0740               157.8096               173.9842
 Red. masses --      2.3354                 5.8953                 4.3086
 Frc consts  --      0.0192                 0.0865                 0.0768
 IR Inten    --      2.3073                 1.2772                 1.7097

                     10                     11                     12
                      A                      A                      A
 Frequencies --    196.5701               237.0969               250.6015
 Red. masses --      2.4269                 4.7879                 1.6205
 Frc consts  --      0.0553                 0.1586                 0.0600
 IR Inten    --      0.7542                 1.4257                 1.4793

                     13                     14                     15
                      A                      A                      A
 Frequencies --    286.7328               309.2960               330.2720
 Red. masses --      5.8650                 3.1074                 5.3194
 Frc consts  --      0.2841                 0.1751                 0.3419
 IR Inten    --      2.8968                 1.7183                 2.3307

                     16                     17                     18
                      A                      A                      A
 Frequencies --    361.8928               385.6901               432.4540
 Red. masses --      2.3969                 2.9211                 5.2132
 Frc consts  --      0.1850                 0.2560                 0.5744
 IR Inten    --     39.7413                40.7671                 2.8752

                     19                     20                     21
                      A                      A                      A
 Frequencies --    437.0449               437.3628               499.0809
 Red. masses --      4.2075                 2.0708                 3.2808
 Frc consts  --      0.4735                 0.2334                 0.4815
 IR Inten    --      1.3504                83.7662                21.7692

                     22                     23                     24
                      A                      A                      A
 Frequencies --    523.8734               545.7864               579.5882
 Red. masses --      3.2528                 7.0657                 4.4415
 Frc consts  --      0.5260                 1.2401                 0.8791
 IR Inten    --      3.6643                 3.3212                 0.4613

                     25                     26                     27
                      A                      A                      A
 Frequencies --    596.2791               634.0332               669.8749
 Red. masses --      7.5888                 7.6950                 6.7925
 Frc consts  --      1.5897                 1.8226                 1.7958
 IR Inten    --     12.8969                 5.4578                 3.4651

                     28                     29                     30
                      A                      A                      A
 Frequencies --    690.9553               739.1945               747.8311
 Red. masses --      2.3252                 4.5170                 7.4743
 Frc consts  --      0.6540                 1.4542                 2.4628
 IR Inten    --     11.7108                 5.5281                44.1674

                     31                     32                     33
                      A                      A                      A
 Frequencies --    750.8221               764.5916               804.1164
 Red. masses --      5.0580                 2.1574                 1.8264
 Frc consts  --      1.6800                 0.7431                 0.6958
 IR Inten    --     30.8848                11.9918                 6.5506

                     34                     35                     36
                      A                      A                      A
 Frequencies --    819.5777               872.0975               874.3708
 Red. masses --      1.5923                 2.6381                 1.4505
 Frc consts  --      0.6302                 1.1821                 0.6534
 IR Inten    --     13.1728                 6.3262                 9.8575

                     37                     38                     39
                      A                      A                      A
 Frequencies --    879.4374               917.4514               927.4042
 Red. masses --      9.0418                 1.5216                 1.4811
 Frc consts  --      4.1202                 0.7546                 0.7505
 IR Inten    --     22.5711                 7.5425                 1.0220

                     40                     41                     42
                      A                      A                      A
 Frequencies --    941.1882               988.3342              1000.2989
 Red. masses --      1.4220                 1.3022                 1.9368
 Frc consts  --      0.7422                 0.7494                 1.1418
 IR Inten    --      3.4776                 0.4870                10.3668

                     43                     44                     45
                      A                      A                      A
 Frequencies --   1017.0808              1020.0159              1083.0274
 Red. masses --      4.2764                 6.2952                 3.0246
 Frc consts  --      2.6064                 3.8590                 2.0903
 IR Inten    --      1.8120                 1.3463                 3.0804

                     46                     47                     48
                      A                      A                      A
 Frequencies --   1119.7383              1121.8511              1132.7617
 Red. masses --      1.8757                 1.5977                 2.2043
 Frc consts  --      1.3856                 1.1847                 1.6665
 IR Inten    --      2.7187                15.6374                34.4697

                     49                     50                     51
                      A                      A                      A
 Frequencies --   1156.7805              1203.4667              1211.5740
 Red. masses --      1.7579                 1.4872                 1.5792
 Frc consts  --      1.3860                 1.2691                 1.3658
 IR Inten    --     74.9648                43.1005                58.3574

                     52                     53                     54
                      A                      A                      A
 Frequencies --   1265.7398              1288.1013              1302.1904
 Red. masses --      3.1176                 2.2225                 1.2508
 Frc consts  --      2.9428                 2.1727                 1.2496
 IR Inten    --      6.9849                18.6171                27.8048

                     55                     56                     57
                      A                      A                      A
 Frequencies --   1324.1635              1334.1353              1341.1259
 Red. masses --      1.2875                 1.5507                 3.0881
 Frc consts  --      1.3301                 1.6262                 3.2725
 IR Inten    --     38.3637                26.2313                28.4616

                     58                     59                     60
                      A                      A                      A
 Frequencies --   1377.8915              1396.7770              1400.9408
 Red. masses --      4.3261                 1.3726                11.2566
 Frc consts  --      4.8392                 1.5778                13.0166
 IR Inten    --      2.7937                16.0026               343.8682

                     61                     62                     63
                      A                      A                      A
 Frequencies --   1410.0747              1444.2900              1475.0636
 Red. masses --      1.3412                 1.2701                 3.1427
 Frc consts  --      1.5712                 1.5610                 4.0288
 IR Inten    --     48.1945                28.8958                13.8752

                     64                     65                     66
                      A                      A                      A
 Frequencies --   1501.1400              1517.4445              1524.0192
 Red. masses --      1.1288                 1.0929                 1.9616
 Frc consts  --      1.4986                 1.4827                 2.6843
 IR Inten    --     42.0696                 3.4437                 9.2042

                     67                     68                     69
                      A                      A                      A
 Frequencies --   1531.0050              1534.5811              1539.2217
 Red. masses --      1.3349                 1.4274                 1.0619
 Frc consts  --      1.8435                 1.9805                 1.4823
 IR Inten    --      8.8790                13.9760                 7.9668

                     70                     71                     72
                      A                      A                      A
 Frequencies --   1585.2915              1608.7619              1621.7057
 Red. masses --      3.8676                 6.4109                 6.7554
 Frc consts  --      5.7268                 9.7758                10.4676
 IR Inten    --    693.8711               401.3957                31.6463

                     73                     74                     75
                      A                      A                      A
 Frequencies --   1637.9400              1681.3000              3042.1268
 Red. masses --      7.9761                 7.8802                 1.0384
 Frc consts  --     12.6077                13.1243                 5.6623
 IR Inten    --    128.2993                15.0535                22.7041

                     76                     77                     78
                      A                      A                      A
 Frequencies --   3051.3921              3070.4221              3093.4017
 Red. masses --      1.0658                 1.0662                 1.0964
 Frc consts  --      5.8471                 5.9224                 6.1815
 IR Inten    --     27.5809                49.0643                 0.4226

                     79                     80                     81
                      A                      A                      A
 Frequencies --   3114.7687              3121.6388              3134.8944
 Red. masses --      1.1002                 1.1001                 1.1023
 Frc consts  --      6.2891                 6.3158                 6.3828
 IR Inten    --     77.6178                32.7418                13.0864

                     82                     83                     84
                      A                      A                      A
 Frequencies --   3203.1121              3218.2205              3226.5977
 Red. masses --      1.0877                 1.0940                 1.0923
 Frc consts  --      6.5749                 6.6758                 6.7001
 IR Inten    --     10.5606                 5.2493                15.8433

                     85                     86                     87
                      A                      A                      A
 Frequencies --   3244.6818              3260.3182              3628.4695
 Red. masses --      1.0906                 1.0927                 1.0768
 Frc consts  --      6.7647                 6.8433                 8.3530
 IR Inten    --      5.4411                 3.6030                45.1903

 - Thermochemistry -
 -------------------
 Temperature   298.150 Kelvin.  Pressure   1.00000 Atm.
 Atom     1 has atomic number  6 and mass  12.00000

 Molecular mass:   263.07285 amu.
 Principal axes and moments of inertia in atomic units:
                           1         2         3
     Eigenvalues --  1908.80040********************
           X            0.99985  -0.01572  -0.00677
           Y            0.01576   0.99985   0.00650
           Z            0.00667  -0.00661   0.99996
 This molecule is an asymmetric top.
 Rotational symmetry number  1.
 Warning -- assumption of classical behavior for rotation
           may cause significant error
 Rotational temperatures (Kelvin)      0.04538     0.00737     0.00668
 Rotational constants (GHZ):           0.94548     0.15367     0.13916
 Zero-point vibrational energy     635845.8 (Joules/Mol)
                                  151.97079 (Kcal/Mol)
 Warning -- explicit consideration of  25 degrees of freedom as
           vibrations may cause significant error
 Vibrational temperatures:     33.40    44.17    70.24    75.30   102.39
          (Kelvin)            113.04   169.88   227.05   250.32   282.82
                              341.13   360.56   412.54   445.01   475.19
                              520.68   554.92   622.20   628.81   629.27
                              718.07   753.74   785.26   833.90   857.91
                              912.23   963.80   994.13  1063.54  1075.96
                             1080.27  1100.08  1156.94  1179.19  1254.75
                             1258.02  1265.31  1320.01  1334.33  1354.16
                             1421.99  1439.21  1463.35  1467.58  1558.23
                             1611.05  1614.09  1629.79  1664.35  1731.52
                             1743.18  1821.12  1853.29  1873.56  1905.18
                             1919.52  1929.58  1982.48  2009.65  2015.64
                             2028.78  2078.01  2122.29  2159.81  2183.26
                             2192.72  2202.77  2207.92  2214.60  2280.88
                             2314.65  2333.27  2356.63  2419.02  4376.94
                             4390.27  4417.65  4450.72  4481.46  4491.34
                             4510.41  4608.56  4630.30  4642.35  4668.37
                             4690.87  5220.56

 Zero-point correction=                           0.242181 (Hartree/Particle)
 Thermal correction to Energy=                    0.258866
 Thermal correction to Enthalpy=                  0.259811
 Thermal correction to Gibbs Free Energy=         0.195137
 Sum of electronic and zero-point Energies=          -1177.729961
 Sum of electronic and thermal Energies=             -1177.713275
 Sum of electronic and thermal Enthalpies=           -1177.712331
 Sum of electronic and thermal Free Energies=        -1177.777005

                     E (Thermal)             CV                S
                      KCal/Mol        Cal/Mol-Kelvin    Cal/Mol-Kelvin
 Total                  162.441             62.022            136.117
 Electronic               0.000              0.000              0.000
 Translational            0.889              2.981             42.601
 Rotational               0.889              2.981             34.030
 Vibrational            160.664             56.061             59.486
 Vibration     1          0.593              1.985              6.339
 Vibration     2          0.594              1.984              5.784
 Vibration     3          0.595              1.978              4.865
 Vibration     4          0.596              1.977              4.727
 Vibration     5          0.598              1.968              4.121
 Vibration     6          0.600              1.964              3.926
 Vibration     7          0.608              1.934              3.132
 Vibration     8          0.621              1.894              2.576
 Vibration     9          0.627              1.874              2.392
 Vibration    10          0.636              1.845              2.165
 Vibration    11          0.656              1.784              1.825
 Vibration    12          0.663              1.762              1.726
 Vibration    13          0.684              1.698              1.493
 Vibration    14          0.699              1.656              1.366
 Vibration    15          0.713              1.615              1.259
 Vibration    16          0.736              1.551              1.114
 Vibration    17          0.754              1.501              1.017
 Vibration    18          0.793              1.400              0.851
 Vibration    19          0.797              1.389              0.836
 Vibration    20          0.798              1.389              0.835
 Vibration    21          0.855              1.252              0.660
 Vibration    22          0.879              1.197              0.601
 Vibration    23          0.901              1.149              0.553
 Vibration    24          0.936              1.075              0.486
 Vibration    25          0.954              1.040              0.456

 Optimization completed.
    -- Stationary point found.
 Normal termination of Gaussian 16 at Fri Dec 11 22:22:03 2020.

 ----------------------------------------------------------------------
 # B3LYP/6-311++G(d,p) empiricaldispersion=gd3bj scf=xqc pop=npa geom=c
 heck
 ----------------------------------------------------------------------

 ---------------------------------------
 CID_116812195_JID_8818_Energie_neutraal
 ---------------------------------------
 Structure from the checkpoint file:  "JID_8818.chk"
 Charge =  0 Multiplicity = 1

 SCF Done:  E(RB3LYP) =  -1178.21290774     A.U. after   18 cycles
 Normal termination of Gaussian 16 at Fri Dec 11 22:26:41 2020.

 ----------------------------------------------------------------------
 # B3LYP/6-311++G(d,p) empiricaldispersion=gd3bj scf=xqc pop=npa geom=c
 heck
 ----------------------------------------------------------------------

 -------------------------------------
 CID_116812195_JID_8818_Energie_kation
 -------------------------------------
 Structure from the checkpoint file:  "JID_8818.chk"
 Charge =  1 Multiplicity = 2

 SCF Done:  E(UB3LYP) =  -1177.93847643     A.U. after   25 cycles
 Normal termination of Gaussian 16 at Fri Dec 11 22:35:25 2020.
 Gaussian 16:  ES64L-G16RevA.03 25-Dec-2016

 ----------------------------------------------------------------------
 # B3LYP/6-311++G(d,p) empiricaldispersion=gd3bj scf=xqc pop=npa geom=c
 heck
 ----------------------------------------------------------------------

 ------------------------------------
 CID_116812195_JID_8818_Energie_anion
 ------------------------------------
 Structure from the checkpoint file:  "JID_8818.chk"
 Charge = -1 Multiplicity = 2

                         Standard orientation:
 ---------------------------------------------------------------------
 Center     Atomic      Atomic             Coordinates (Angstroms)
 Number     Number       Type             X           Y           Z
 ---------------------------------------------------------------------
      1          6           0       -5.318752    1.500391    1.401236
      2          6           0       -5.267340    0.046134    0.928847
      3          6           0       -4.938223   -0.097832   -0.562341
      4          7           0       -3.648663    0.477841   -0.948310
      5          6           0       -2.486472   -0.123623   -0.577045
      6          7           0       -2.407985   -1.331404   -0.074313
      7          6           0       -1.099047   -1.674848    0.145787
      8          6           0       -0.132550   -0.756085   -0.169199
      9         16           0       -0.928755    0.688130   -0.814777
     10          6           0        1.314308   -0.848393   -0.021880
     11          6           0        2.124298    0.297568   -0.020073
     12          6           0        3.499364    0.165769    0.132075
     13          6           0        4.124509   -1.066763    0.293805
     14          6           0        3.320273   -2.205609    0.291003
     15          6           0        1.942385   -2.102376    0.126626
     16          7           0        4.324876    1.384469    0.128432
     17          8           0        3.752804    2.464209   -0.018624
     18          8           0        5.539742    1.251536    0.272481
     19          1           0       -4.346190    1.992355    1.282421
     20          1           0       -5.586341    1.562136    2.461015
     21          1           0       -6.060958    2.078924    0.836198
     22          1           0       -4.521019   -0.514027    1.502410
     23          1           0       -6.235452   -0.440222    1.106572
     24          1           0       -4.917160   -1.153762   -0.842740
     25          1           0       -5.698658    0.399177   -1.175007
     26          1           0       -3.616555    1.477032   -1.090717
     27          1           0       -0.890732   -2.644059    0.585228
     28          1           0        1.703288    1.289903   -0.122558
     29          1           0        5.199103   -1.116360    0.409409
     30          1           0        3.775363   -3.184645    0.404087
     31          1           0        1.340904   -3.004855    0.095542
 ---------------------------------------------------------------------

 SCF Done:  E(UB3LYP) =  -1178.25252270     A.U. after   25 cycles

 The electronic state is 2-A.
 Alpha  occ. eigenvalues --  -88.77652 -18.95029 -18.94936 -14.32829 -14.25948
 Alpha  occ. eigenvalues --  -14.20577 -10.17116 -10.13718 -10.10186 -10.10110
 Alpha  occ. eigenvalues --  -10.09783 -10.09113 -10.06531 -10.06340 -10.04776
 Alpha  occ. eigenvalues --  -10.04532 -10.03763 -10.03298  -7.86293  -5.82599
 Alpha  occ. eigenvalues --   -5.82256  -5.81826  -1.03007  -0.89543  -0.85875
 Alpha  occ. eigenvalues --   -0.83031  -0.74072  -0.71680  -0.69845  -0.65540
 Alpha  occ. eigenvalues --   -0.63646  -0.62075  -0.60250  -0.54045  -0.53211
 Alpha  occ. eigenvalues --   -0.52081  -0.47707  -0.46569  -0.43642  -0.42771
 Alpha  occ. eigenvalues --   -0.39669  -0.39239  -0.37624  -0.36581  -0.35198
 Alpha  occ. eigenvalues --   -0.35178  -0.34618  -0.33964  -0.33588  -0.32456
 Alpha  occ. eigenvalues --   -0.31578  -0.30730  -0.29508  -0.29367  -0.28612
 Alpha  occ. eigenvalues --   -0.27629  -0.26429  -0.25070  -0.23872  -0.22341
 Alpha  occ. eigenvalues --   -0.21546  -0.18498  -0.18144  -0.15000  -0.13981
 Alpha  occ. eigenvalues --   -0.13194  -0.12677  -0.10664  -0.09278   0.02291
 Alpha virt. eigenvalues --    0.04528   0.06388   0.06533   0.07114   0.08126
 Alpha virt. eigenvalues --    0.08997   0.09442   0.10335   0.10575   0.10817
 Alpha virt. eigenvalues --    0.11481   0.11842   0.12042   0.12571   0.13101

  Beta  occ. eigenvalues --  -88.77647 -18.94619 -18.94464 -14.32269 -14.25947
  Beta  occ. eigenvalues --  -14.20587 -10.17096 -10.13717 -10.10186 -10.10109
  Beta  occ. eigenvalues --  -10.09759 -10.09091 -10.06563 -10.06248 -10.04867
  Beta  occ. eigenvalues --  -10.04478 -10.03435 -10.03063  -7.86289  -5.82597
  Beta  occ. eigenvalues --   -5.82254  -5.81808  -1.02055  -0.89529  -0.85042
  Beta  occ. eigenvalues --   -0.83023  -0.73827  -0.71677  -0.69723  -0.65353
  Beta  occ. eigenvalues --   -0.63240  -0.61951  -0.60138  -0.53789  -0.52542
  Beta  occ. eigenvalues --   -0.51899  -0.47634  -0.46438  -0.43473  -0.42717
  Beta  occ. eigenvalues --   -0.39325  -0.39073  -0.37598  -0.36516  -0.35038
  Beta  occ. eigenvalues --   -0.34251  -0.33839  -0.33381  -0.32442  -0.32295
  Beta  occ. eigenvalues --   -0.31475  -0.30355  -0.29450  -0.29326  -0.28605
  Beta  occ. eigenvalues --   -0.27623  -0.26340  -0.24510  -0.23694  -0.22220
  Beta  occ. eigenvalues --   -0.21233  -0.18396  -0.18104  -0.14388  -0.12283
  Beta  occ. eigenvalues --   -0.12227  -0.10853  -0.10223  -0.08570
  Beta virt. eigenvalues --    0.04521   0.06395   0.06687   0.07182   0.08087
  Beta virt. eigenvalues --    0.08873   0.09164   0.09486   0.10307   0.10558
  Beta virt. eigenvalues --    0.10824   0.11475   0.11877   0.12117   0.13082

 Mulliken charges and spin densities:
               1          2
     1  C   -0.652127  -0.002541
     2  C    0.055906  -0.002988
     3  C   -0.340577   0.001974
     4  N    0.027032   0.001437
     5  C   -0.179189   0.004151
     6  N   -0.034551  -0.005724
     7  C    0.183445   0.022478
     8  C   -0.021125   0.016551
     9  S   -0.298642   0.011693
    10  C    1.388525  -0.011993
    11  C   -1.275837   0.041737
    12  C   -0.232226  -0.010439
    13  C    0.328945   0.239812
    14  C   -0.511422  -0.060276
    15  C   -0.817926   0.253192
    16  N   -0.255532   0.186921
    17  O   -0.182366   0.179403
    18  O   -0.173388   0.158686
    19  H    0.161413   0.001863
    20  H    0.126528   0.001558
    21  H    0.122582   0.001031
    22  H    0.163814   0.001150
    23  H    0.129323   0.001064
    24  H    0.191392   0.000416
    25  H    0.153352  -0.000043
    26  H    0.255009   0.000798
    27  H    0.137838   0.001310
    28  H    0.158939  -0.004756
    29  H    0.196785  -0.014127
    30  H    0.133875   0.004459
    31  H    0.060206  -0.018798
 Sum of Mulliken charges =  -1.00000   1.00000

 Dipole moment (field-independent basis, Debye):
    X=            -16.4458    Y=             -2.8183    Z=             -0.3819  Tot=             16.6899
 Quadrupole moment (field-independent basis, Debye-Ang):
   XX=           -198.1153   YY=           -135.5352   ZZ=           -122.1054
   XY=            -32.1950   XZ=             -1.5233   YZ=             -2.4302

 Summary of Natural Population Analysis:

                                       Natural Population
                Natural  -----------------------------------------------
    Atom  No    Charge         Core      Valence    Rydberg      Total
 -----------------------------------------------------------------------
      C    1   -0.29089      0.99967     2.28624    0.00497     3.29089
      C    2   -0.20135      0.99964     2.19527    0.00644     3.20135
      C    3   -0.08581      0.99963     2.07508    0.01110     3.08581
      N    4   -0.32140      0.99965     2.81065    0.01110     3.82140
      C    5    0.13480      0.99962     1.84563    0.01995     2.86520
      N    6   -0.28420      0.99964     2.77295    0.01161     3.78420
      C    7   -0.01489      0.99949     2.00147    0.01393     3.01489
      C    8   -0.09509      0.99945     2.08472    0.01092     3.09509
      S    9    0.16199      4.99946     2.82015    0.01840     7.83801
      C   10   -0.05456      0.99936     2.04552    0.00967     3.05456
      C   11   -0.08441      0.99951     2.07517    0.00973     3.08441
      C   12    0.05695      0.99940     1.93213    0.01153     2.94305
      C   13   -0.05257      0.99953     2.04289    0.01015     3.05257
      C   14   -0.12553      0.99958     2.11705    0.00890     3.12553
      C   15   -0.03047      0.99956     2.02238    0.00853     3.03047
      N   16    0.29859      0.99973     2.17429    0.02739     3.20141
      O   17   -0.19225      0.99990     3.18436    0.00799     4.19225
      O   18   -0.19934      0.99990     3.19149    0.00795     4.19934
      H   19    0.09946      0.00000     0.39946    0.00108     0.40054
      H   20    0.09964      0.00000     0.39956    0.00080     0.40036
      H   21    0.09123      0.00000     0.40776    0.00101     0.40877
      H   22    0.10810      0.00000     0.39044    0.00146     0.39190
      H   23    0.09203      0.00000     0.40675    0.00122     0.40797
      H   24    0.10643      0.00000     0.39230    0.00127     0.39357
      H   25    0.08898      0.00000     0.41004    0.00098     0.41102
      H   26    0.18934      0.00000     0.30904    0.00162     0.31066
      H   27    0.09848      0.00000     0.40038    0.00114     0.40152
      H   28    0.11444      0.00000     0.38402    0.00155     0.38556
      H   29    0.11118      0.00000     0.38760    0.00122     0.38882
      H   30    0.09259      0.00000     0.40634    0.00107     0.40741
      H   31    0.08850      0.00000     0.40997    0.00153     0.41150
 =======================================================================
   * Total *    0.00000     21.99271    46.78109    0.22620    69.00000

 Normal termination of Gaussian 16 at Fri Dec 11 22:44:10 2020.
