 Gaussian 16, Revision A.03,

 ----------------------------------------------------------------------
 # opt=(cartesian,calcfc) freq B3LYP/6-31G(d) empiricaldispersion=gd3bj
  scf=xqc
 ----------------------------------------------------------------------

 ----------------------------
 CID_643890_JID_2151_neutraal
 ----------------------------
 Symbolic Z-matrix:
 Charge =  0 Multiplicity = 1

 SCF Done:  E(RB3LYP) =  -537.530357130     A.U. after   15 cycles
 SCF Done:  E(RB3LYP) =  -537.532030691     A.U. after   12 cycles
 SCF Done:  E(RB3LYP) =  -537.533153228     A.U. after   12 cycles
 SCF Done:  E(RB3LYP) =  -537.533191241     A.U. after   12 cycles
 SCF Done:  E(RB3LYP) =  -537.533197818     A.U. after   12 cycles
 SCF Done:  E(RB3LYP) =  -537.533223375     A.U. after   12 cycles
 SCF Done:  E(RB3LYP) =  -537.533307475     A.U. after   12 cycles
 SCF Done:  E(RB3LYP) =  -537.532673241     A.U. after   13 cycles
 SCF Done:  E(RB3LYP) =  -537.533145176     A.U. after   13 cycles
 SCF Done:  E(RB3LYP) =  -537.530089539     A.U. after   12 cycles
 SCF Done:  E(RB3LYP) =  -537.534022467     A.U. after    7 cycles
 SCF Done:  E(RB3LYP) =  -537.534020086     A.U. after    9 cycles
 SCF Done:  E(RB3LYP) =  -537.534022517     A.U. after    7 cycles
 SCF Done:  E(RB3LYP) =  -537.534019500     A.U. after    9 cycles
 SCF Done:  E(RB3LYP) =  -537.534022526     A.U. after    6 cycles
 Optimization completed.
    -- Stationary point found.
 Normal termination of Gaussian 16 at Thu Dec 17 20:15:35 2020.

 --------------------------------------------------------------------
 #N Geom=AllCheck Guess=TCheck SCRF=Check GenChk RB3LYP/6-31G(d) Freq
 --------------------------------------------------------------------

 Structure from the checkpoint file:  "JID_2151.chk"
 ----------------------------
 CID_643890_JID_2151_neutraal
 ----------------------------
 Charge =  0 Multiplicity = 1

 SCF Done:  E(RB3LYP) =  -537.534022526     A.U. after    1 cycles

  Exact polarizability: 137.582  -0.528 110.434   5.053 -12.835  74.637
 Approx polarizability: 213.159 -17.193 185.913  10.756 -33.361 124.606

                      1                      2                      3
                      A                      A                      A
 Frequencies --     45.5274                79.3439                98.6002
 Red. masses --      4.6018                 4.4310                 3.1725
 Frc consts  --      0.0056                 0.0164                 0.0182
 IR Inten    --      0.3188                 0.5143                 1.5815

                      4                      5                      6
                      A                      A                      A
 Frequencies --    132.5067               185.2838               204.9858
 Red. masses --      5.8319                 5.0138                 1.7465
 Frc consts  --      0.0603                 0.1014                 0.0432
 IR Inten    --      3.9384                 7.3536                 4.3987

                      7                      8                      9
                      A                      A                      A
 Frequencies --    230.4535               280.2525               298.1451
 Red. masses --      1.5509                 3.5038                 3.7738
 Frc consts  --      0.0485                 0.1621                 0.1976
 IR Inten    --      5.6036                 2.1285                 2.4996

                     10                     11                     12
                      A                      A                      A
 Frequencies --    392.5454               419.7680               470.8600
 Red. masses --      3.0723                 3.0119                 4.6481
 Frc consts  --      0.2789                 0.3127                 0.6072
 IR Inten    --      3.2238                 0.1373                 7.1028

                     13                     14                     15
                      A                      A                      A
 Frequencies --    490.1445               547.3956               585.9147
 Red. masses --      5.4934                 4.9847                 4.2037
 Frc consts  --      0.7776                 0.8800                 0.8503
 IR Inten    --      4.2087                 3.5945                11.4357

                     16                     17                     18
                      A                      A                      A
 Frequencies --    638.3956               710.9499               739.2568
 Red. masses --      6.2064                 2.4412                 2.0383
 Frc consts  --      1.4903                 0.7270                 0.6563
 IR Inten    --      0.9551                 4.6059                77.7424

                     19                     20                     21
                      A                      A                      A
 Frequencies --    758.7868               817.8483               858.9270
 Red. masses --      3.7552                 3.3749                 1.2483
 Frc consts  --      1.2739                 1.3300                 0.5426
 IR Inten    --      7.0139                19.9723                 0.3422

                     22                     23                     24
                      A                      A                      A
 Frequencies --    926.2217               932.3143               957.8054
 Red. masses --      1.4352                 1.4269                 4.2993
 Frc consts  --      0.7254                 0.7307                 2.3238
 IR Inten    --      1.4755                11.8110                33.6189

                     25                     26                     27
                      A                      A                      A
 Frequencies --    967.6456               993.7695              1014.1246
 Red. masses --      1.3724                 1.2474                 1.7421
 Frc consts  --      0.7571                 0.7258                 1.0556
 IR Inten    --      1.2613                 0.0949                 0.1809

                     28                     29                     30
                      A                      A                      A
 Frequencies --   1022.8569              1058.3943              1110.7633
 Red. masses --      5.9760                 2.5218                 1.6599
 Frc consts  --      3.6838                 1.6644                 1.2066
 IR Inten    --      1.1537                 2.5490                 4.8819

                     31                     32                     33
                      A                      A                      A
 Frequencies --   1135.0737              1179.9736              1191.6223
 Red. masses --      3.0365                 1.2984                 2.0209
 Frc consts  --      2.3050                 1.0652                 1.6907
 IR Inten    --     40.0502                 2.9930                 7.6762

                     34                     35                     36
                      A                      A                      A
 Frequencies --   1194.5004              1216.6513              1247.9904
 Red. masses --      1.1066                 1.1345                 2.0747
 Frc consts  --      0.9303                 0.9894                 1.9038
 IR Inten    --      0.2012                 0.3103                 1.7636

                     37                     38                     39
                      A                      A                      A
 Frequencies --   1328.9787              1340.6515              1367.7643
 Red. masses --      3.7138                 3.4079                 1.7202
 Frc consts  --      3.8646                 3.6089                 1.8961
 IR Inten    --    342.9284                31.3864                 0.7821

                     40                     41                     42
                      A                      A                      A
 Frequencies --   1434.3933              1477.0493              1492.1202
 Red. masses --      1.4346                 1.2055                 2.1866
 Frc consts  --      1.7391                 1.5495                 2.8683
 IR Inten    --      5.2474                 3.0885                 6.0414

                     43                     44                     45
                      A                      A                      A
 Frequencies --   1501.3048              1515.7881              1525.3931
 Red. masses --      1.2084                 1.0519                 1.0601
 Frc consts  --      1.6047                 1.4239                 1.4534
 IR Inten    --      3.4628                14.5203                23.8526

                     46                     47                     48
                      A                      A                      A
 Frequencies --   1548.7907              1637.1095              1664.0640
 Red. masses --      2.2496                 5.3617                 5.4731
 Frc consts  --      3.1794                 8.4666                 8.9295
 IR Inten    --     20.6182                 3.7263                18.2273

                     49                     50                     51
                      A                      A                      A
 Frequencies --   1689.8291              1788.4478              2885.9697
 Red. masses --      6.1625                10.1663                 1.0827
 Frc consts  --     10.3679                19.1588                 5.3129
 IR Inten    --    297.6683               184.6342               157.5348

                     52                     53                     54
                      A                      A                      A
 Frequencies --   3075.9852              3158.9244              3172.6974
 Red. masses --      1.0287                 1.1071                 1.1073
 Frc consts  --      5.7349                 6.5088                 6.5669
 IR Inten    --     34.0456                13.7612                21.1998

                     55                     56                     57
                      A                      A                      A
 Frequencies --   3176.3457              3181.3215              3189.5477
 Red. masses --      1.0894                 1.0855                 1.0881
 Frc consts  --      6.4757                 6.4728                 6.5218
 IR Inten    --     16.1502                 1.8741                 2.3438

                     58                     59                     60
                      A                      A                      A
 Frequencies --   3198.9821              3209.8722              3224.8404
 Red. masses --      1.0924                 1.0964                 1.0941
 Frc consts  --      6.5866                 6.6555                 6.7041
 IR Inten    --     27.3880                27.0477                 6.3981

 - Thermochemistry -
 -------------------
 Temperature   298.150 Kelvin.  Pressure   1.00000 Atm.
 Atom     1 has atomic number  6 and mass  12.00000

 Molecular mass:   162.06808 amu.
 Principal axes and moments of inertia in atomic units:
                           1         2         3
     Eigenvalues --  1510.752842164.689743184.92663
           X            0.99998   0.00605   0.00089
           Y           -0.00604   0.99997  -0.00565
           Z           -0.00092   0.00564   0.99998
 This molecule is an asymmetric top.
 Rotational symmetry number  1.
 Warning -- assumption of classical behavior for rotation
           may cause significant error
 Rotational temperatures (Kelvin)      0.05733     0.04001     0.02719
 Rotational constants (GHZ):           1.19460     0.83372     0.56665
 Zero-point vibrational energy     466075.7 (Joules/Mol)
                                  111.39476 (Kcal/Mol)
 Warning -- explicit consideration of  15 degrees of freedom as
           vibrations may cause significant error
 Vibrational temperatures:     65.50   114.16   141.86   190.65   266.58
          (Kelvin)            294.93   331.57   403.22   428.96   564.79
                              603.95   677.46   705.21   787.58   843.00
                              918.51  1022.90  1063.63  1091.73  1176.70
                             1235.80  1332.63  1341.39  1378.07  1392.23
                             1429.81  1459.10  1471.66  1522.79  1598.14
                             1633.12  1697.72  1714.48  1718.62  1750.49
                             1795.58  1912.10  1928.90  1967.91  2063.77
                             2125.14  2146.83  2160.04  2180.88  2194.70
                             2228.36  2355.44  2394.22  2431.29  2573.18
                             4152.27  4425.66  4544.99  4564.80  4570.05
                             4577.21  4589.05  4602.62  4618.29  4639.83

 Zero-point correction=                           0.177519 (Hartree/Particle)
 Thermal correction to Energy=                    0.188437
 Thermal correction to Enthalpy=                  0.189381
 Thermal correction to Gibbs Free Energy=         0.140183
 Sum of electronic and zero-point Energies=           -537.356504
 Sum of electronic and thermal Energies=              -537.345586
 Sum of electronic and thermal Enthalpies=            -537.344641
 Sum of electronic and thermal Free Energies=         -537.393840

                     E (Thermal)             CV                S
                      KCal/Mol        Cal/Mol-Kelvin    Cal/Mol-Kelvin
 Total                  118.246             40.546            103.547
 Electronic               0.000              0.000              0.000
 Translational            0.889              2.981             41.157
 Rotational               0.889              2.981             30.722
 Vibrational            116.468             34.585             31.667
 Vibration     1          0.595              1.979              5.003
 Vibration     2          0.600              1.963              3.907
 Vibration     3          0.604              1.950              3.482
 Vibration     4          0.613              1.921              2.909
 Vibration     5          0.631              1.860              2.275
 Vibration     6          0.640              1.833              2.088
 Vibration     7          0.652              1.794              1.875
 Vibration     8          0.680              1.710              1.532
 Vibration     9          0.691              1.677              1.427
 Vibration    10          0.760              1.486              0.990
 Vibration    11          0.782              1.427              0.893
 Vibration    12          0.828              1.315              0.735
 Vibration    13          0.846              1.272              0.683
 Vibration    14          0.903              1.145              0.550
 Vibration    15          0.943              1.062              0.475

 Optimization completed.
    -- Stationary point found.
 Normal termination of Gaussian 16 at Thu Dec 17 20:20:12 2020.

 ----------------------------------------------------------------------
 # B3LYP/6-311++G(d,p) empiricaldispersion=gd3bj scf=xqc pop=npa geom=c
 heck
 ----------------------------------------------------------------------

 ------------------------------------
 CID_643890_JID_2151_Energie_neutraal
 ------------------------------------
 Structure from the checkpoint file:  "JID_2151.chk"
 Charge =  0 Multiplicity = 1

 SCF Done:  E(RB3LYP) =  -537.684585568     A.U. after   17 cycles
 Normal termination of Gaussian 16 at Thu Dec 17 20:21:56 2020.

 ----------------------------------------------------------------------
 # B3LYP/6-311++G(d,p) empiricaldispersion=gd3bj scf=xqc pop=npa geom=c
 heck
 ----------------------------------------------------------------------

 ----------------------------------
 CID_643890_JID_2151_Energie_kation
 ----------------------------------
 Structure from the checkpoint file:  "JID_2151.chk"
 Charge =  1 Multiplicity = 2

 SCF Done:  E(UB3LYP) =  -537.374345023     A.U. after   29 cycles
 Normal termination of Gaussian 16 at Thu Dec 17 20:25:58 2020.
 Gaussian 16:  ES64L-G16RevA.03 25-Dec-2016

 ----------------------------------------------------------------------
 # B3LYP/6-311++G(d,p) empiricaldispersion=gd3bj scf=xqc pop=npa geom=c
 heck
 ----------------------------------------------------------------------

 ---------------------------------
 CID_643890_JID_2151_Energie_anion
 ---------------------------------
 Structure from the checkpoint file:  "JID_2151.chk"
 Charge = -1 Multiplicity = 2

                         Standard orientation:
 ---------------------------------------------------------------------
 Center     Atomic      Atomic             Coordinates (Angstroms)
 Number     Number       Type             X           Y           Z
 ---------------------------------------------------------------------
      1          6           0        1.220821   -2.346786   -0.692994
      2          8           0        2.306138   -1.628160   -0.092733
      3          6           0        2.219177   -0.312061    0.126749
      4          6           0        1.164897    0.544484    0.131019
      5          6           0        1.545948    1.963702    0.246228
      6          8           0        0.779972    2.907549    0.175807
      7          6           0       -0.277794    0.207276    0.076503
      8          6           0       -1.112219    0.775730   -0.896566
      9          6           0       -2.471975    0.473056   -0.924998
     10          6           0       -3.022549   -0.389114    0.025441
     11          6           0       -2.206321   -0.939017    1.014245
     12          6           0       -0.845490   -0.635841    1.043180
     13          1           0        1.664621   -3.267261   -1.075350
     14          1           0        0.781407   -1.768148   -1.509650
     15          1           0        0.444746   -2.577830    0.039579
     16          1           0        3.216535    0.085183    0.308561
     17          1           0        2.636548    2.133388    0.397256
     18          1           0       -0.689251    1.456092   -1.627300
     19          1           0       -3.104805    0.914678   -1.689627
     20          1           0       -4.083386   -0.621797    0.001703
     21          1           0       -2.629042   -1.596201    1.769104
     22          1           0       -0.213227   -1.041799    1.828290
 ---------------------------------------------------------------------

 SCF Done:  E(UB3LYP) =  -537.679058414     A.U. after   33 cycles
 SCF Done:  E(UB3LYP) =  -537.679058414     a.u. after    1 cycles

 The electronic state is 2-A.
 Alpha  occ. eigenvalues --  -19.03015 -18.94800 -10.09585 -10.09175 -10.08711
 Alpha  occ. eigenvalues --  -10.05676 -10.05550 -10.05543 -10.05261 -10.05241
 Alpha  occ. eigenvalues --  -10.04641 -10.03370  -0.94554  -0.88344  -0.73733
 Alpha  occ. eigenvalues --   -0.66926  -0.62669  -0.62375  -0.58451  -0.49245
 Alpha  occ. eigenvalues --   -0.48722  -0.46704  -0.42805  -0.39503  -0.36911
 Alpha  occ. eigenvalues --   -0.36372  -0.34642  -0.33642  -0.32518  -0.30347
 Alpha  occ. eigenvalues --   -0.29801  -0.27933  -0.27384  -0.25582  -0.24635
 Alpha  occ. eigenvalues --   -0.23004  -0.22684  -0.22462  -0.20657  -0.14018
 Alpha  occ. eigenvalues --   -0.13707  -0.10440  -0.10203   0.05293
 Alpha virt. eigenvalues --    0.07588   0.08155   0.09204   0.09763   0.09926
 Alpha virt. eigenvalues --    0.10344   0.10707   0.11816   0.12649   0.12829
 Alpha virt. eigenvalues --    0.13271   0.14034   0.15516   0.16088   0.16846

  Beta  occ. eigenvalues --  -19.02871 -18.94537 -10.09537 -10.08982 -10.08247
  Beta  occ. eigenvalues --  -10.05613 -10.05561 -10.05525 -10.05269 -10.05157
  Beta  occ. eigenvalues --  -10.04596 -10.03428  -0.94189  -0.87862  -0.73637
  Beta  occ. eigenvalues --   -0.66613  -0.62599  -0.62060  -0.58281  -0.49047
  Beta  occ. eigenvalues --   -0.48585  -0.46160  -0.42658  -0.39340  -0.36667
  Beta  occ. eigenvalues --   -0.36204  -0.34221  -0.33551  -0.32413  -0.30321
  Beta  occ. eigenvalues --   -0.29698  -0.27731  -0.27109  -0.25024  -0.23908
  Beta  occ. eigenvalues --   -0.22615  -0.22509  -0.21945  -0.20175  -0.13568
  Beta  occ. eigenvalues --   -0.13462  -0.10206  -0.09136
  Beta virt. eigenvalues --    0.07600   0.08733   0.09197   0.09861   0.10178
  Beta virt. eigenvalues --    0.10368   0.10661   0.11771   0.12028   0.12824
  Beta virt. eigenvalues --    0.13100   0.13425   0.14229   0.15547   0.16155

 Mulliken charges and spin densities:
               1          2
     1  C    0.777974  -1.160976
     2  O   -0.176008   0.058744
     3  C   -1.008304   0.674617
     4  C    0.792183  -0.634606
     5  C   -0.188192  -0.120798
     6  O   -0.351733   0.081828
     7  C    1.022259   0.290652
     8  C   -0.403269   0.123170
     9  C   -0.211760  -0.129774
    10  C   -0.043878  -0.169925
    11  C   -0.208859  -0.172108
    12  C   -0.527037   0.258001
    13  H   -0.520037   0.687909
    14  H   -0.249843   0.409962
    15  H   -0.066180   0.233838
    16  H    0.014976   0.115737
    17  H    0.035957  -0.014312
    18  H    0.111221   0.087516
    19  H    0.043603   0.090837
    20  H    0.019199   0.097887
    21  H   -0.027949   0.169267
    22  H    0.165677   0.022535
 Sum of Mulliken charges =  -1.00000   1.00000

 Dipole moment (field-independent basis, Debye):
    X=             -1.8136    Y=             -0.1313    Z=              1.4174  Tot=              2.3055
 Quadrupole moment (field-independent basis, Debye-Ang):
   XX=            -97.4992   YY=           -118.8119   ZZ=            -86.3434
   XY=              4.9164   XZ=              3.5494   YZ=             -8.3322

 Summary of Natural Population Analysis:

                                       Natural Population
                Natural  -----------------------------------------------
    Atom  No    Charge         Core      Valence    Rydberg      Total
 -----------------------------------------------------------------------
      C    1   -0.10005      0.99959     2.09146    0.00899     3.10005
      O    2   -0.25925      0.99986     3.24877    0.01062     4.25925
      C    3    0.21196      0.99942     1.77352    0.01510     2.78804
      C    4   -0.15658      0.99945     2.14588    0.01126     3.15658
      C    5    0.22574      0.99968     1.75368    0.02090     2.77426
      O    6   -0.28038      0.99988     3.27367    0.00682     4.28038
      C    7   -0.01040      0.99949     1.99922    0.01168     3.01040
      C    8   -0.07926      0.99952     2.06939    0.01034     3.07926
      C    9   -0.10923      0.99956     2.10026    0.00941     3.10923
      C   10   -0.09893      0.99956     2.08984    0.00953     3.09893
      C   11   -0.10642      0.99956     2.09646    0.01040     3.10642
      C   12   -0.10338      0.99952     2.09450    0.00935     3.10338
      H   13    0.08873      0.00000     0.40933    0.00194     0.41127
      H   14    0.09261      0.00000     0.40544    0.00195     0.40739
      H   15    0.08774      0.00000     0.41095    0.00131     0.41226
      H   16    0.07511      0.00000     0.42331    0.00159     0.42489
      H   17    0.03352      0.00000     0.46369    0.00279     0.46648
      H   18    0.10481      0.00000     0.39386    0.00133     0.39519
      H   19    0.09539      0.00000     0.40381    0.00079     0.40461
      H   20    0.09347      0.00000     0.40578    0.00075     0.40653
      H   21    0.09526      0.00000     0.40396    0.00078     0.40474
      H   22    0.09952      0.00000     0.39917    0.00131     0.40048
 =======================================================================
   * Total *    0.00000     11.99510    30.85595    0.14895    43.00000

 Normal termination of Gaussian 16 at Thu Dec 17 20:30:26 2020.
