 Gaussian 16, Revision A.03,

 -----------------------------------------------------------
 # opt freq B3LYP/6-31G(d) empiricaldispersion=gd3bj scf=xqc
 -----------------------------------------------------------

 ----------------------------
 CID_541501_JID_3987_neutraal
 ----------------------------
 Symbolic Z-matrix:
 Charge =  0 Multiplicity = 1

 SCF Done:  E(RB3LYP) =  -577.878566239     A.U. after   13 cycles
 SCF Done:  E(RB3LYP) =  -577.880686893     A.U. after   10 cycles
 SCF Done:  E(RB3LYP) =  -577.880926947     A.U. after   10 cycles
 SCF Done:  E(RB3LYP) =  -577.880946701     A.U. after    9 cycles
 SCF Done:  E(RB3LYP) =  -577.880954313     A.U. after    8 cycles
 SCF Done:  E(RB3LYP) =  -577.880954654     A.U. after    6 cycles
 Optimization completed.
    -- Stationary point found.
 Normal termination of Gaussian 16 at Sun Dec 13 12:20:45 2020.

 --------------------------------------------------------------------
 #N Geom=AllCheck Guess=TCheck SCRF=Check GenChk RB3LYP/6-31G(d) Freq
 --------------------------------------------------------------------

 Structure from the checkpoint file:  "JID_3987.chk"
 ----------------------------
 CID_541501_JID_3987_neutraal
 ----------------------------
 Charge =  0 Multiplicity = 1

 SCF Done:  E(RB3LYP) =  -577.880954654     A.U. after    1 cycles

  Exact polarizability: 122.877   0.000 118.317  -0.000  -2.061 107.112
 Approx polarizability: 165.779   0.000 167.067  -0.000   0.126 165.298

                      1                      2                      3
                      A                      A                      A
 Frequencies --    127.8589               170.5022               179.8839
 Red. masses --      3.4309                 2.1473                 3.3807
 Frc consts  --      0.0330                 0.0368                 0.0645
 IR Inten    --      1.3659                 1.6218                 0.6174

                      4                      5                      6
                      A                      A                      A
 Frequencies --    210.9076               212.4315               253.8237
 Red. masses --      1.0189                 1.0460                 1.3671
 Frc consts  --      0.0267                 0.0278                 0.0519
 IR Inten    --      0.7880                 0.0135                 1.0195

                      7                      8                      9
                      A                      A                      A
 Frequencies --    257.6314               259.7194               271.7696
 Red. masses --      2.5698                 1.2027                 1.6138
 Frc consts  --      0.1005                 0.0478                 0.0702
 IR Inten    --      0.4617                47.7935                34.5864

                     10                     11                     12
                      A                      A                      A
 Frequencies --    303.5689               307.5695               322.0546
 Red. masses --      2.2949                 3.1788                 2.6608
 Frc consts  --      0.1246                 0.1772                 0.1626
 IR Inten    --      8.8690                 4.5437                 3.1868

                     13                     14                     15
                      A                      A                      A
 Frequencies --    324.5322               364.1981               367.1178
 Red. masses --      2.9547                 2.8021                 2.4953
 Frc consts  --      0.1833                 0.2190                 0.1981
 IR Inten    --      0.6575                 0.0066                 1.0767

                     16                     17                     18
                      A                      A                      A
 Frequencies --    409.7973               449.0919               463.0300
 Red. masses --      1.9926                 3.6017                 2.6581
 Frc consts  --      0.1972                 0.4280                 0.3358
 IR Inten    --      1.0829                 2.5067                 2.9712

                     19                     20                     21
                      A                      A                      A
 Frequencies --    491.2135               499.4964               557.7671
 Red. masses --      3.1135                 3.3062                 3.2385
 Frc consts  --      0.4426                 0.4860                 0.5936
 IR Inten    --      8.0412                 0.3088                 1.1159

                     22                     23                     24
                      A                      A                      A
 Frequencies --    560.2561               660.1374               818.2464
 Red. masses --      3.8739                 2.5852                 1.9173
 Frc consts  --      0.7164                 0.6638                 0.7563
 IR Inten    --      1.6545                 0.3552                47.2456

                     25                     26                     27
                      A                      A                      A
 Frequencies --    825.2068               842.2668               892.9609
 Red. masses --      3.0057                 2.6403                 3.3171
 Frc consts  --      1.2059                 1.1036                 1.5584
 IR Inten    --      0.9225                80.7044                 0.8094

                     28                     29                     30
                      A                      A                      A
 Frequencies --    913.4716               926.1838               927.3715
 Red. masses --      1.7622                 2.4220                 1.8967
 Frc consts  --      0.8664                 1.2241                 0.9611
 IR Inten    --      5.2812                87.1935                 0.6569

                     31                     32                     33
                      A                      A                      A
 Frequencies --    948.3620               973.4221               991.6074
 Red. masses --      1.9547                 1.7536                 1.8391
 Frc consts  --      1.0358                 0.9790                 1.0655
 IR Inten    --     22.3128                 1.8172                 3.1453

                     34                     35                     36
                      A                      A                      A
 Frequencies --   1020.8396              1029.5174              1073.0582
 Red. masses --      1.4034                 1.6610                 1.9326
 Frc consts  --      0.8617                 1.0373                 1.3111
 IR Inten    --      2.9298                 8.4969                12.9500

                     37                     38                     39
                      A                      A                      A
 Frequencies --   1074.7007              1110.4013              1119.5776
 Red. masses --      2.7766                 2.5703                 1.8780
 Frc consts  --      1.8895                 1.8672                 1.3869
 IR Inten    --     30.1621                 0.1244                62.6006

                     40                     41                     42
                      A                      A                      A
 Frequencies --   1147.0331              1153.5398              1159.5403
 Red. masses --      2.8816                 2.1393                 1.4283
 Frc consts  --      2.2338                 1.6772                 1.1314
 IR Inten    --     40.6219                22.9828                 1.7200

                     43                     44                     45
                      A                      A                      A
 Frequencies --   1184.1650              1205.9632              1214.1949
 Red. masses --      2.0337                 1.9904                 1.7547
 Frc consts  --      1.6802                 1.7055                 1.5241
 IR Inten    --     10.5199                 4.4897                51.4821

                     46                     47                     48
                      A                      A                      A
 Frequencies --   1223.8868              1236.5757              1279.6665
 Red. masses --      3.9160                 1.5274                 2.5877
 Frc consts  --      3.4560                 1.3761                 2.4966
 IR Inten    --     11.2971                 0.3571                 2.1988

                     49                     50                     51
                      A                      A                      A
 Frequencies --   1306.0510              1311.9318              1339.2359
 Red. masses --      2.1939                 1.9039                 1.5899
 Frc consts  --      2.2049                 1.9307                 1.6801
 IR Inten    --     28.6905                 5.2919                 0.9703

                     52                     53                     54
                      A                      A                      A
 Frequencies --   1341.7316              1342.1020              1365.7554
 Red. masses --      1.3693                 1.4455                 1.3492
 Frc consts  --      1.4524                 1.5340                 1.4828
 IR Inten    --     18.3648                 0.0389                 4.0954

                     55                     56                     57
                      A                      A                      A
 Frequencies --   1388.1690              1396.7006              1420.2669
 Red. masses --      1.2571                 1.4137                 1.5112
 Frc consts  --      1.4272                 1.6249                 1.7960
 IR Inten    --      5.4482                 7.3820                 2.7802

                     58                     59                     60
                      A                      A                      A
 Frequencies --   1430.8054              1437.0626              1439.2293
 Red. masses --      1.4267                 1.2226                 1.2482
 Frc consts  --      1.7208                 1.4876                 1.5233
 IR Inten    --      4.6525                30.4662                14.0189

                     61                     62                     63
                      A                      A                      A
 Frequencies --   1457.2482              1486.2389              1502.6581
 Red. masses --      1.2607                 1.2121                 1.0760
 Frc consts  --      1.5774                 1.5775                 1.4315
 IR Inten    --     12.1574                 0.1695                 3.1256

                     64                     65                     66
                      A                      A                      A
 Frequencies --   1511.6969              1516.7553              1522.6303
 Red. masses --      1.0856                 1.0522                 1.0609
 Frc consts  --      1.4617                 1.4263                 1.4492
 IR Inten    --      2.4833                14.2854                 0.0034

                     67                     68                     69
                      A                      A                      A
 Frequencies --   1523.4395              1527.7870              1529.9653
 Red. masses --      1.0617                 1.0676                 1.0541
 Frc consts  --      1.4517                 1.4682                 1.4537
 IR Inten    --     11.4191                 2.2797                 2.4547

                     70                     71                     72
                      A                      A                      A
 Frequencies --   1532.3870              1538.3802              1547.7672
 Red. masses --      1.0562                 1.0628                 1.0942
 Frc consts  --      1.4613                 1.4820                 1.5444
 IR Inten    --     14.1862                 2.9009                12.5043

                     73                     74                     75
                      A                      A                      A
 Frequencies --   1565.7857              2863.2644              2873.3912
 Red. masses --      1.1431                 1.0743                 1.0730
 Frc consts  --      1.6511                 5.1890                 5.2197
 IR Inten    --      4.9588                30.7191               128.8789

                     76                     77                     78
                      A                      A                      A
 Frequencies --   2935.2994              3016.5832              3019.9517
 Red. masses --      1.0618                 1.0635                 1.0654
 Frc consts  --      5.3902                 5.7016                 5.7249
 IR Inten    --    119.8773                31.0960                48.4832

                     79                     80                     81
                      A                      A                      A
 Frequencies --   3045.7301              3046.5731              3051.6035
 Red. masses --      1.0485                 1.0391                 1.0756
 Frc consts  --      5.7305                 5.6824                 5.9016
 IR Inten    --      1.8549                46.5830                59.5306

                     82                     83                     84
                      A                      A                      A
 Frequencies --   3057.7724              3061.0926              3073.5933
 Red. masses --      1.0839                 1.0843                 1.0995
 Frc consts  --      5.9708                 5.9864                 6.1196
 IR Inten    --     48.7995                 3.5740                47.8054

                     85                     86                     87
                      A                      A                      A
 Frequencies --   3075.0055              3079.9936              3107.5030
 Red. masses --      1.0993                 1.0697                 1.1017
 Frc consts  --      6.1245                 5.9790                 6.2681
 IR Inten    --     27.5758                47.4190                14.8140

                     88                     89                     90
                      A                      A                      A
 Frequencies --   3107.9544              3124.7407              3136.0784
 Red. masses --      1.1014                 1.1045                 1.1000
 Frc consts  --      6.2685                 6.3539                 6.3739
 IR Inten    --     55.8923                28.1379                 0.5429

                     91                     92                     93
                      A                      A                      A
 Frequencies --   3136.4621              3499.5557              3740.2754
 Red. masses --      1.0999                 1.0726                 1.0652
 Frc consts  --      6.3749                 7.7395                 8.7796
 IR Inten    --     37.4859                12.8647                 8.4526

 - Thermochemistry -
 -------------------
 Temperature   298.150 Kelvin.  Pressure   1.00000 Atm.
 Atom     1 has atomic number  6 and mass  12.00000

 Molecular mass:   184.15756 amu.
 Principal axes and moments of inertia in atomic units:
                           1         2         3
     Eigenvalues --  2059.505462073.551372403.08753
           X            1.00000  -0.00002  -0.00000
           Y            0.00002   0.99788  -0.06503
           Z            0.00000   0.06503   0.99788
 This molecule is an asymmetric top.
 Rotational symmetry number  1.
 Warning -- assumption of classical behavior for rotation
           may cause significant error
 Rotational temperatures (Kelvin)      0.04206     0.04177     0.03604
 Rotational constants (GHZ):           0.87630     0.87036     0.75101
 Zero-point vibrational energy     793425.1 (Joules/Mol)
                                  189.63316 (Kcal/Mol)
 Warning -- explicit consideration of  22 degrees of freedom as
           vibrations may cause significant error
 Vibrational temperatures:    183.96   245.31   258.81   303.45   305.64
          (Kelvin)            365.20   370.67   373.68   391.02   436.77
                              442.52   463.36   466.93   524.00   528.20
                              589.61   646.14   666.20   706.75   718.66
                              802.50   806.08   949.79  1177.27  1187.29
                             1211.83  1284.77  1314.28  1332.57  1334.28
                             1364.48  1400.54  1426.70  1468.76  1481.25
                             1543.89  1546.25  1597.62  1610.82  1650.32
                             1659.69  1668.32  1703.75  1735.11  1746.96
                             1760.90  1779.16  1841.15  1879.12  1887.58
                             1926.86  1930.45  1930.99  1965.02  1997.27
                             2009.54  2043.45  2058.61  2067.61  2070.73
                             2096.66  2138.37  2161.99  2174.99  2182.27
                             2190.73  2191.89  2198.14  2201.28  2204.76
                             2213.39  2226.89  2252.82  4119.60  4134.17
                             4223.24  4340.19  4345.04  4382.13  4383.34
                             4390.58  4399.45  4404.23  4422.22  4424.25
                             4431.42  4471.00  4471.65  4495.80  4512.12
                             4512.67  5035.08  5381.42

 Zero-point correction=                           0.302200 (Hartree/Particle)
 Thermal correction to Energy=                    0.314978
 Thermal correction to Enthalpy=                  0.315922
 Thermal correction to Gibbs Free Energy=         0.265538
 Sum of electronic and zero-point Energies=           -577.578755
 Sum of electronic and thermal Energies=              -577.565977
 Sum of electronic and thermal Enthalpies=            -577.565033
 Sum of electronic and thermal Free Energies=         -577.615417

                     E (Thermal)             CV                S
                      KCal/Mol        Cal/Mol-Kelvin    Cal/Mol-Kelvin
 Total                  197.652             52.706            106.043
 Electronic               0.000              0.000              0.000
 Translational            0.889              2.981             41.538
 Rotational               0.889              2.981             30.707
 Vibrational            195.874             46.745             33.798
 Vibration     1          0.611              1.925              2.978
 Vibration     2          0.626              1.879              2.430
 Vibration     3          0.629              1.867              2.330
 Vibration     4          0.643              1.824              2.036
 Vibration     5          0.643              1.822              2.023
 Vibration     6          0.665              1.756              1.704
 Vibration     7          0.667              1.750              1.678
 Vibration     8          0.668              1.746              1.664
 Vibration     9          0.675              1.725              1.585
 Vibration    10          0.695              1.667              1.397
 Vibration    11          0.697              1.659              1.375
 Vibration    12          0.707              1.631              1.300
 Vibration    13          0.709              1.626              1.287
 Vibration    14          0.738              1.546              1.104
 Vibration    15          0.740              1.540              1.092
 Vibration    16          0.774              1.449              0.927
 Vibration    17          0.808              1.363              0.799
 Vibration    18          0.821              1.332              0.757
 Vibration    19          0.847              1.270              0.680
 Vibration    20          0.855              1.251              0.659
 Vibration    21          0.913              1.123              0.528
 Vibration    22          0.916              1.117              0.523

 Optimization completed.
    -- Stationary point found.
 Normal termination of Gaussian 16 at Sun Dec 13 12:31:52 2020.

 ----------------------------------------------------------------------
 # B3LYP/6-311++G(d,p) empiricaldispersion=gd3bj scf=xqc pop=npa geom=c
 heck
 ----------------------------------------------------------------------

 ------------------------------------
 CID_541501_JID_3987_Energie_neutraal
 ------------------------------------
 Structure from the checkpoint file:  "JID_3987.chk"
 Charge =  0 Multiplicity = 1

 SCF Done:  E(RB3LYP) =  -578.050429145     A.U. after   13 cycles
 Normal termination of Gaussian 16 at Sun Dec 13 12:36:27 2020.

 ----------------------------------------------------------------------
 # B3LYP/6-311++G(d,p) empiricaldispersion=gd3bj scf=xqc pop=npa geom=c
 heck
 ----------------------------------------------------------------------

 ----------------------------------
 CID_541501_JID_3987_Energie_kation
 ----------------------------------
 Structure from the checkpoint file:  "JID_3987.chk"
 Charge =  1 Multiplicity = 2

 SCF Done:  E(UB3LYP) =  -577.774025547     A.U. after   18 cycles
 Normal termination of Gaussian 16 at Sun Dec 13 12:45:26 2020.
 Gaussian 16:  ES64L-G16RevA.03 25-Dec-2016

 ----------------------------------------------------------------------
 # B3LYP/6-311++G(d,p) empiricaldispersion=gd3bj scf=xqc pop=npa geom=c
 heck
 ----------------------------------------------------------------------

 ---------------------------------
 CID_541501_JID_3987_Energie_anion
 ---------------------------------
 Structure from the checkpoint file:  "JID_3987.chk"
 Charge = -1 Multiplicity = 2

                         Standard orientation:
 ---------------------------------------------------------------------
 Center     Atomic      Atomic             Coordinates (Angstroms)
 Number     Number       Type             X           Y           Z
 ---------------------------------------------------------------------
      1          6           0        2.533126   -1.111096   -0.553448
      2          6           0        1.252354   -0.477491   -0.003503
      3          6           0        1.206989   -0.660881    1.538726
      4          7           0       -0.000005   -0.178264    2.204806
      5          6           0       -1.207007   -0.660860    1.538723
      6          6           0       -1.252364   -0.477468   -0.003505
      7          6           0       -0.000011   -1.168071   -0.584085
      8          8           0       -0.000013   -1.228342   -2.010844
      9          6           0       -1.215053    1.013355   -0.389973
     10          7           0        0.000015    1.693987    0.058079
     11          6           0        1.215071    1.013334   -0.389967
     12          6           0        0.000028    3.092080   -0.334988
     13          6           0       -2.533145   -1.111051   -0.553457
     14          1           0        3.422708   -0.606998   -0.156434
     15          1           0        2.560574   -1.060855   -1.645277
     16          1           0        2.590906   -2.168165   -0.269211
     17          1           0        2.073999   -0.163806    1.991224
     18          1           0        1.311469   -1.735408    1.750149
     19          1           0        0.000004    0.836108    2.119171
     20          1           0       -1.311506   -1.735385    1.750146
     21          1           0       -2.074009   -0.163770    1.991220
     22          1           0       -0.000020   -2.221353   -0.275487
     23          1           0        0.000075   -0.319508   -2.349279
     24          1           0       -2.077016    1.527786    0.053309
     25          1           0       -1.338219    1.108665   -1.492056
     26          1           0        2.077043    1.527747    0.053322
     27          1           0        1.338250    1.108651   -1.492049
     28          1           0        0.000032    3.227371   -1.435035
     29          1           0       -0.887881    3.590181    0.068323
     30          1           0        0.887944    3.590165    0.068327
     31          1           0       -2.560584   -1.060806   -1.645285
     32          1           0       -2.590945   -2.168119   -0.269220
     33          1           0       -3.422720   -0.606937   -0.156445
 ---------------------------------------------------------------------

 SCF Done:  E(UB3LYP) =  -578.037135667     A.U. after   28 cycles

 The electronic state is 2-A.
 Alpha  occ. eigenvalues --  -19.02064 -14.20605 -14.18737 -10.11764 -10.09134
 Alpha  occ. eigenvalues --  -10.09133 -10.08963 -10.08962 -10.08032 -10.08031
 Alpha  occ. eigenvalues --  -10.07987 -10.05961 -10.05961  -0.92529  -0.83690
 Alpha  occ. eigenvalues --   -0.80191  -0.70575  -0.70496  -0.59993  -0.59728
 Alpha  occ. eigenvalues --   -0.58767  -0.58455  -0.52700  -0.50608  -0.47138
 Alpha  occ. eigenvalues --   -0.44648  -0.42132  -0.37767  -0.37443  -0.36857
 Alpha  occ. eigenvalues --   -0.36320  -0.35022  -0.33481  -0.32852  -0.30840
 Alpha  occ. eigenvalues --   -0.29839  -0.29743  -0.29108  -0.27924  -0.27666
 Alpha  occ. eigenvalues --   -0.27642  -0.26164  -0.25317  -0.25251  -0.24645
 Alpha  occ. eigenvalues --   -0.23580  -0.22927  -0.20534  -0.16711  -0.14070
 Alpha  occ. eigenvalues --   -0.10472   0.04519
 Alpha virt. eigenvalues --    0.07151   0.07362   0.07910   0.08938   0.09210
 Alpha virt. eigenvalues --    0.09862   0.10338   0.10962   0.11554   0.11609
 Alpha virt. eigenvalues --    0.12350   0.12504   0.13272   0.13704   0.13962

  Beta  occ. eigenvalues --  -19.02041 -14.20593 -14.18734 -10.11755 -10.09100
  Beta  occ. eigenvalues --  -10.09099 -10.08952 -10.08951 -10.08031 -10.08029
  Beta  occ. eigenvalues --  -10.07938 -10.05941 -10.05941  -0.92485  -0.83665
  Beta  occ. eigenvalues --   -0.80175  -0.70554  -0.70474  -0.59930  -0.59673
  Beta  occ. eigenvalues --   -0.58733  -0.58407  -0.52666  -0.50525  -0.47097
  Beta  occ. eigenvalues --   -0.44580  -0.42103  -0.37745  -0.37383  -0.36836
  Beta  occ. eigenvalues --   -0.36273  -0.34973  -0.33434  -0.32805  -0.30803
  Beta  occ. eigenvalues --   -0.29811  -0.29706  -0.29083  -0.27894  -0.27625
  Beta  occ. eigenvalues --   -0.27610  -0.26134  -0.25289  -0.25234  -0.24622
  Beta  occ. eigenvalues --   -0.23552  -0.22899  -0.20504  -0.16688  -0.14030
  Beta  occ. eigenvalues --   -0.10420
  Beta virt. eigenvalues --    0.06781   0.07864   0.08046   0.08564   0.09424
  Beta virt. eigenvalues --    0.09859   0.10212   0.10674   0.11225   0.11984
  Beta virt. eigenvalues --    0.12172   0.12722   0.12876   0.13520   0.13892

 Mulliken charges and spin densities:
               1          2
     1  C    0.529477  -0.797290
     2  C   -2.050659   2.565040
     3  C   -0.095955  -0.507539
     4  N   -0.014404   0.028161
     5  C   -0.096024  -0.507465
     6  C   -2.050398   2.564894
     7  C    2.249243  -3.428440
     8  O   -0.197403   0.059152
     9  C    0.443467  -1.041930
    10  N   -0.255151   0.310753
    11  C    0.443668  -1.042063
    12  C    1.412094  -1.662372
    13  C    0.529384  -0.797242
    14  H   -0.232257   0.381300
    15  H   -0.015323   0.180597
    16  H    0.038502   0.094592
    17  H   -0.014411   0.197710
    18  H    0.033627   0.114830
    19  H    0.163495   0.098010
    20  H    0.033638   0.114819
    21  H   -0.014403   0.197701
    22  H    0.225548  -0.004634
    23  H   -0.063671   0.326910
    24  H   -0.217559   0.429901
    25  H   -0.063968   0.202071
    26  H   -0.217519   0.429862
    27  H   -0.064044   0.202137
    28  H   -0.413924   0.533896
    29  H   -0.408009   0.550089
    30  H   -0.408037   0.550119
    31  H   -0.015306   0.180584
    32  H    0.038507   0.094585
    33  H   -0.232221   0.381263
 Sum of Mulliken charges =  -1.00000   1.00000

 Dipole moment (field-independent basis, Debye):
    X=             -0.0003    Y=             -5.0403    Z=              1.3107  Tot=              5.2080
 Quadrupole moment (field-independent basis, Debye-Ang):
   XX=           -131.0489   YY=           -135.9549   ZZ=           -126.3961
   XY=             -0.0003   XZ=              0.0002   YZ=              0.7079

 Summary of Natural Population Analysis:

                                       Natural Population
                Natural  -----------------------------------------------
    Atom  No    Charge         Core      Valence    Rydberg      Total
 -----------------------------------------------------------------------
      C    1   -0.28489      0.99963     2.27746    0.00780     3.28489
      C    2   -0.06382      0.99952     2.05092    0.01338     3.06382
      C    3   -0.08425      0.99958     2.07125    0.01342     3.08425
      N    4   -0.34108      0.99976     2.82883    0.01249     3.84108
      C    5   -0.08425      0.99958     2.07125    0.01342     3.08425
      C    6   -0.06382      0.99952     2.05092    0.01338     3.06382
      C    7    0.07324      0.99941     1.91102    0.01633     2.92676
      O    8   -0.37572      0.99990     3.36922    0.00660     4.37572
      C    9   -0.08739      0.99956     2.07361    0.01423     3.08739
      N   10   -0.28777      0.99972     2.77462    0.01343     3.78777
      C   11   -0.08739      0.99956     2.07361    0.01423     3.08739
      C   12   -0.17437      0.99964     2.16571    0.00901     3.17437
      C   13   -0.28489      0.99963     2.27746    0.00780     3.28489
      H   14    0.10018      0.00000     0.39878    0.00104     0.39982
      H   15    0.10841      0.00000     0.39053    0.00106     0.39159
      H   16    0.09934      0.00000     0.39987    0.00079     0.40066
      H   17    0.09791      0.00000     0.40104    0.00105     0.40209
      H   18    0.08930      0.00000     0.40957    0.00113     0.41070
      H   19    0.18295      0.00000     0.31282    0.00423     0.31705
      H   20    0.08930      0.00000     0.40957    0.00113     0.41070
      H   21    0.09791      0.00000     0.40104    0.00105     0.40209
      H   22    0.08973      0.00000     0.40870    0.00157     0.41027
      H   23    0.23077      0.00000     0.26554    0.00369     0.26923
      H   24    0.10396      0.00000     0.39410    0.00194     0.39604
      H   25    0.08269      0.00000     0.41503    0.00228     0.41731
      H   26    0.10397      0.00000     0.39410    0.00194     0.39603
      H   27    0.08269      0.00000     0.41503    0.00228     0.41731
      H   28    0.08331      0.00000     0.41442    0.00227     0.41669
      H   29    0.09803      0.00000     0.40022    0.00175     0.40197
      H   30    0.09803      0.00000     0.40022    0.00175     0.40197
      H   31    0.10841      0.00000     0.39053    0.00106     0.39159
      H   32    0.09934      0.00000     0.39987    0.00079     0.40066
      H   33    0.10018      0.00000     0.39878    0.00104     0.39982
 =======================================================================
   * Total *    0.00000     12.99499    37.81566    0.18935    51.00000

 Normal termination of Gaussian 16 at Sun Dec 13 12:59:19 2020.
