 Gaussian 16, Revision A.03,

 -----------------------------------------------------------
 # opt freq B3LYP/6-31G(d) empiricaldispersion=gd3bj scf=xqc
 -----------------------------------------------------------

 --------------------------------
 CID_111064996_JID_10653_neutraal
 --------------------------------
 Symbolic Z-matrix:
 Charge =  0 Multiplicity = 1

 SCF Done:  E(RB3LYP) =  -1220.75067336     A.U. after   15 cycles
 SCF Done:  E(RB3LYP) =  -1220.75769432     A.U. after   12 cycles
 SCF Done:  E(RB3LYP) =  -1220.75932959     A.U. after   12 cycles
 SCF Done:  E(RB3LYP) =  -1220.75986870     A.U. after   13 cycles
 SCF Done:  E(RB3LYP) =  -1220.76005721     A.U. after   12 cycles
 SCF Done:  E(RB3LYP) =  -1220.76025623     A.U. after   11 cycles
 SCF Done:  E(RB3LYP) =  -1220.76030686     A.U. after   10 cycles
 SCF Done:  E(RB3LYP) =  -1220.76032733     A.U. after   10 cycles
 SCF Done:  E(RB3LYP) =  -1220.76034588     A.U. after   10 cycles
 SCF Done:  E(RB3LYP) =  -1220.76035166     A.U. after    9 cycles
 SCF Done:  E(RB3LYP) =  -1220.76035550     A.U. after    7 cycles
 SCF Done:  E(RB3LYP) =  -1220.76035581     A.U. after    8 cycles
 SCF Done:  E(RB3LYP) =  -1220.76035595     A.U. after    7 cycles
 SCF Done:  E(RB3LYP) =  -1220.76035603     A.U. after    7 cycles
 SCF Done:  E(RB3LYP) =  -1220.76035605     A.U. after    7 cycles
 Optimization completed.
    -- Stationary point found.
 Normal termination of Gaussian 16 at Sun Dec 13 16:51:49 2020.

 --------------------------------------------------------------------
 #N Geom=AllCheck Guess=TCheck SCRF=Check GenChk RB3LYP/6-31G(d) Freq
 --------------------------------------------------------------------

 Structure from the checkpoint file:  "JID_10653.chk"
 --------------------------------
 CID_111064996_JID_10653_neutraal
 --------------------------------
 Charge =  0 Multiplicity = 1

 SCF Done:  E(RB3LYP) =  -1220.76035605     A.U. after    1 cycles

  Exact polarizability: 281.819  25.009 169.112  -1.241   9.922 155.928
 Approx polarizability: 366.802  51.367 273.667 -10.032  22.606 263.722

                      1                      2                      3
                      A                      A                      A
 Frequencies --     14.6694                22.7553                32.6609
 Red. masses --      5.4106                 3.5182                 2.7641
 Frc consts  --      0.0007                 0.0011                 0.0017
 IR Inten    --      0.1675                 0.1671                 0.2197

                      4                      5                      6
                      A                      A                      A
 Frequencies --     42.3032                62.3732                68.7430
 Red. masses --      5.2724                 3.8224                 3.6062
 Frc consts  --      0.0056                 0.0088                 0.0100
 IR Inten    --      0.3506                 0.0397                 7.5130

                      7                      8                      9
                      A                      A                      A
 Frequencies --     90.5808                98.2006               135.7783
 Red. masses --      4.8410                 4.1017                 3.2854
 Frc consts  --      0.0234                 0.0233                 0.0357
 IR Inten    --      3.7939                 1.2002                 6.6881

                     10                     11                     12
                      A                      A                      A
 Frequencies --    162.9954               176.1155               215.5524
 Red. masses --      4.4259                 3.8307                 3.3628
 Frc consts  --      0.0693                 0.0700                 0.0921
 IR Inten    --      4.0870                 2.8134                 4.1018

                     13                     14                     15
                      A                      A                      A
 Frequencies --    233.1492               253.9708               264.9869
 Red. masses --      3.1293                 1.6378                 1.2722
 Frc consts  --      0.1002                 0.0622                 0.0526
 IR Inten    --      8.9129                 0.5033                 0.2363

                     16                     17                     18
                      A                      A                      A
 Frequencies --    282.2840               294.7096               309.3343
 Red. masses --      2.1897                 3.4665                 2.1540
 Frc consts  --      0.1028                 0.1774                 0.1214
 IR Inten    --     17.5192                 2.3602                 1.6491

                     19                     20                     21
                      A                      A                      A
 Frequencies --    332.7270               373.1242               380.4409
 Red. masses --      2.4623                 3.6220                 2.1668
 Frc consts  --      0.1606                 0.2971                 0.1848
 IR Inten    --      9.9300                 3.4145                17.1490

                     22                     23                     24
                      A                      A                      A
 Frequencies --    384.5730               417.7007               425.2046
 Red. masses --      4.6217                 4.1529                 3.1644
 Frc consts  --      0.4027                 0.4269                 0.3371
 IR Inten    --      1.7295                 0.7131                 1.6755

                     25                     26                     27
                      A                      A                      A
 Frequencies --    441.9645               488.8931               496.0084
 Red. masses --      1.2185                 4.1036                 4.5917
 Frc consts  --      0.1402                 0.5779                 0.6656
 IR Inten    --     48.7899                 1.1633                 6.2541

                     28                     29                     30
                      A                      A                      A
 Frequencies --    531.6238               560.3974               578.2035
 Red. masses --      2.3539                 3.9300                 3.5988
 Frc consts  --      0.3920                 0.7272                 0.7089
 IR Inten    --      5.9725                 9.0866                11.6673

                     31                     32                     33
                      A                      A                      A
 Frequencies --    600.2811               647.4546               654.4307
 Red. masses --      4.6652                 3.3031                 3.8085
 Frc consts  --      0.9904                 0.8158                 0.9610
 IR Inten    --      7.3830                80.9941                31.5679

                     34                     35                     36
                      A                      A                      A
 Frequencies --    661.9885               704.9113               713.9302
 Red. masses --      5.0020                 4.1731                 4.2955
 Frc consts  --      1.2915                 1.2217                 1.2900
 IR Inten    --      6.8497                 2.8025                 0.0433

                     37                     38                     39
                      A                      A                      A
 Frequencies --    727.3087               763.2316               777.1168
 Red. masses --      5.1847                 4.9220                 2.3079
 Frc consts  --      1.6159                 1.6893                 0.8212
 IR Inten    --      3.5739                13.4225                90.1518

                     40                     41                     42
                      A                      A                      A
 Frequencies --    787.1875               799.1603               816.1621
 Red. masses --      1.2800                 3.2048                 1.2998
 Frc consts  --      0.4673                 1.2059                 0.5101
 IR Inten    --     16.7469               104.4221                 5.4016

                     43                     44                     45
                      A                      A                      A
 Frequencies --    822.3022               840.3852               858.1809
 Red. masses --      1.2800                 1.6198                 4.5345
 Frc consts  --      0.5099                 0.6740                 1.9676
 IR Inten    --     47.4178                51.4193                 6.6307

                     46                     47                     48
                      A                      A                      A
 Frequencies --    880.4495               928.9286               934.9917
 Red. masses --      1.4247                 1.2983                 3.6147
 Frc consts  --      0.6507                 0.6600                 1.8618
 IR Inten    --      0.5217                 0.4283                 8.6809

                     49                     50                     51
                      A                      A                      A
 Frequencies --    957.4308               982.4985              1014.1877
 Red. masses --      1.2866                 2.4850                 2.0509
 Frc consts  --      0.6949                 1.4133                 1.2429
 IR Inten    --      0.9403                 1.1415                 5.7167

                     52                     53                     54
                      A                      A                      A
 Frequencies --   1034.0464              1051.2705              1086.6713
 Red. masses --      2.7164                 1.5670                 5.6656
 Frc consts  --      1.7113                 1.0203                 3.9418
 IR Inten    --      0.2656                 9.5387                59.3341

                     55                     56                     57
                      A                      A                      A
 Frequencies --   1095.9758              1108.2042              1120.3859
 Red. masses --      1.6394                 2.4102                 1.4788
 Frc consts  --      1.1602                 1.7440                 1.0937
 IR Inten    --      2.4765                 5.1696                 0.3769

                     58                     59                     60
                      A                      A                      A
 Frequencies --   1142.9918              1150.6286              1161.7666
 Red. masses --      2.8786                 1.3458                 2.6070
 Frc consts  --      2.2158                 1.0498                 2.0731
 IR Inten    --      6.4001                19.5505                31.2455

                     61                     62                     63
                      A                      A                      A
 Frequencies --   1183.4640              1187.6144              1209.8885
 Red. masses --      3.9288                 1.2721                 1.1531
 Frc consts  --      3.2421                 1.0571                 0.9945
 IR Inten    --     38.5668                 0.7581                11.4910

                     64                     65                     66
                      A                      A                      A
 Frequencies --   1221.0601              1241.5281              1279.7556
 Red. masses --      1.3765                 1.2989                 1.4526
 Frc consts  --      1.2092                 1.1796                 1.4017
 IR Inten    --     12.3122                23.6058               141.8135

                     67                     68                     69
                      A                      A                      A
 Frequencies --   1289.0272              1299.2820              1306.8149
 Red. masses --      2.0815                 5.0969                 1.1470
 Frc consts  --      2.0378                 5.0695                 1.1541
 IR Inten    --    144.5651               152.7185                 0.1458

                     70                     71                     72
                      A                      A                      A
 Frequencies --   1335.5138              1348.3711              1360.0741
 Red. masses --      1.8907                 1.5060                 2.6368
 Frc consts  --      1.9869                 1.6132                 2.8738
 IR Inten    --     35.3206                 5.9848                39.0679

                     73                     74                     75
                      A                      A                      A
 Frequencies --   1382.5053              1398.9937              1401.6868
 Red. masses --      1.7780                 1.6887                 2.3982
 Frc consts  --      2.0022                 1.9473                 2.7761
 IR Inten    --     19.0299                52.0769               106.8350

                     76                     77                     78
                      A                      A                      A
 Frequencies --   1439.7206              1464.2331              1500.6826
 Red. masses --      1.2639                 3.1856                 1.1997
 Frc consts  --      1.5435                 4.0241                 1.5918
 IR Inten    --      4.7916                52.0270                44.8984

                     79                     80                     81
                      A                      A                      A
 Frequencies --   1513.2908              1519.7289              1524.4229
 Red. masses --      1.1309                 1.0479                 1.1001
 Frc consts  --      1.5259                 1.4260                 1.5062
 IR Inten    --      4.2395                 4.9353                14.9325

                     82                     83                     84
                      A                      A                      A
 Frequencies --   1528.0527              1537.1825              1539.6211
 Red. masses --      1.0401                 1.0704                 1.0696
 Frc consts  --      1.4309                 1.4901                 1.4939
 IR Inten    --      6.5523                54.6706                 1.7080

                     85                     86                     87
                      A                      A                      A
 Frequencies --   1552.3457              1567.6362              1588.7565
 Red. masses --      5.1729                 2.3341                 2.5255
 Frc consts  --      7.3445                 3.3796                 3.7560
 IR Inten    --     15.0321               170.7397               667.7274

                     88                     89                     90
                      A                      A                      A
 Frequencies --   1618.7947              1652.7748              1684.1315
 Red. masses --      5.3382                 4.2177                 5.5733
 Frc consts  --      8.2420                 6.7882                 9.3135
 IR Inten    --      2.6581                57.8589                24.2703

                     91                     92                     93
                      A                      A                      A
 Frequencies --   1703.2031              1737.9815              2986.1888
 Red. masses --      1.3484                 3.1318                 1.0715
 Frc consts  --      2.3046                 5.5737                 5.6294
 IR Inten    --     97.0059               318.8020                62.9854

                     94                     95                     96
                      A                      A                      A
 Frequencies --   3019.5640              3029.9851              3052.8626
 Red. masses --      1.0350                 1.0597                 1.1022
 Frc consts  --      5.5603                 5.7323                 6.0521
 IR Inten    --     60.5157                24.2016                13.0419

                     97                     98                     99
                      A                      A                      A
 Frequencies --   3056.3480              3058.1457              3075.3223
 Red. masses --      1.0352                 1.0905                 1.1063
 Frc consts  --      5.6976                 6.0089                 6.1646
 IR Inten    --     26.0578                24.7457                47.8228

                    100                    101                    102
                      A                      A                      A
 Frequencies --   3124.6467              3128.5059              3153.3308
 Red. masses --      1.1031                 1.1026                 1.0992
 Frc consts  --      6.3455                 6.3586                 6.4399
 IR Inten    --     31.9065                32.8486                34.8175

                    103                    104                    105
                      A                      A                      A
 Frequencies --   3164.1041              3202.6589              3215.4318
 Red. masses --      1.0889                 1.0903                 1.0925
 Frc consts  --      6.4232                 6.5893                 6.6552
 IR Inten    --     22.9309                11.6055                10.4252

                    106                    107                    108
                      A                      A                      A
 Frequencies --   3222.4150              3227.9169              3272.4281
 Red. masses --      1.0892                 1.0945                 1.0918
 Frc consts  --      6.6637                 6.7189                 6.8887
 IR Inten    --     12.7616                12.7330                 9.4058

                    109                    110                    111
                      A                      A                      A
 Frequencies --   3523.8652              3611.3453              3615.0150
 Red. masses --      1.0491                 1.0854                 1.0867
 Frc consts  --      7.6755                 8.3399                 8.3672
 IR Inten    --     75.7093                 8.8436                59.7129

 - Thermochemistry -
 -------------------
 Temperature   298.150 Kelvin.  Pressure   1.00000 Atm.
 Atom     1 has atomic number  6 and mass  12.00000

 Molecular mass:   289.12488 amu.
 Principal axes and moments of inertia in atomic units:
                           1         2         3
     Eigenvalues --  2669.89472********************
           X            0.99996   0.00037   0.00860
           Y           -0.00044   0.99997   0.00773
           Z           -0.00860  -0.00773   0.99993
 This molecule is an asymmetric top.
 Rotational symmetry number  1.
 Warning -- assumption of classical behavior for rotation
           may cause significant error
 Rotational temperatures (Kelvin)      0.03244     0.00550     0.00520
 Rotational constants (GHZ):           0.67596     0.11463     0.10841
 Zero-point vibrational energy     848479.5 (Joules/Mol)
                                  202.79148 (Kcal/Mol)
 Warning -- explicit consideration of  31 degrees of freedom as
           vibrations may cause significant error
 Vibrational temperatures:     21.11    32.74    46.99    60.86    89.74
          (Kelvin)             98.91   130.33   141.29   195.35   234.51
                              253.39   310.13   335.45   365.41   381.26
                              406.14   424.02   445.06   478.72   536.84
                              547.37   553.31   600.98   611.77   635.89
                              703.41   713.65   764.89   806.29   831.91
                              863.67   931.54   941.58   952.45  1014.21
                             1027.19  1046.43  1098.12  1118.10  1132.59
                             1149.81  1174.28  1183.11  1209.13  1234.73
                             1266.77  1336.52  1345.24  1377.53  1413.60
                             1459.19  1487.76  1512.54  1563.48  1576.86
                             1594.46  1611.99  1644.51  1655.50  1671.52
                             1702.74  1708.71  1740.76  1756.83  1786.28
                             1841.28  1854.62  1869.38  1880.22  1921.51
                             1940.01  1956.84  1989.12  2012.84  2016.71
                             2071.44  2106.70  2159.15  2177.29  2186.55
                             2193.30  2198.53  2211.66  2215.17  2233.48
                             2255.48  2285.87  2329.08  2377.97  2423.09
                             2450.53  2500.57  4296.46  4344.48  4359.47
                             4392.39  4397.40  4399.99  4424.70  4495.67
                             4501.22  4536.94  4552.44  4607.91  4626.29
                             4636.34  4644.25  4708.29  5070.06  5195.92
                             5201.20

 Zero-point correction=                           0.323169 (Hartree/Particle)
 Thermal correction to Energy=                    0.343249
 Thermal correction to Enthalpy=                  0.344193
 Thermal correction to Gibbs Free Energy=         0.271508
 Sum of electronic and zero-point Energies=          -1220.437187
 Sum of electronic and thermal Energies=             -1220.417107
 Sum of electronic and thermal Enthalpies=           -1220.416163
 Sum of electronic and thermal Free Energies=        -1220.488848

                     E (Thermal)             CV                S
                      KCal/Mol        Cal/Mol-Kelvin    Cal/Mol-Kelvin
 Total                  215.392             75.619            152.979
 Electronic               0.000              0.000              0.000
 Translational            0.889              2.981             42.883
 Rotational               0.889              2.981             34.902
 Vibrational            213.615             69.658             75.194
 Vibration     1          0.593              1.986              7.250
 Vibration     2          0.593              1.985              6.378
 Vibration     3          0.594              1.983              5.661
 Vibration     4          0.595              1.980              5.148
 Vibration     5          0.597              1.972              4.381
 Vibration     6          0.598              1.969              4.189
 Vibration     7          0.602              1.956              3.647
 Vibration     8          0.604              1.950              3.490
 Vibration     9          0.614              1.918              2.863
 Vibration    10          0.623              1.888              2.515
 Vibration    11          0.628              1.872              2.369
 Vibration    12          0.645              1.817              1.996
 Vibration    13          0.654              1.790              1.855
 Vibration    14          0.665              1.756              1.703
 Vibration    15          0.671              1.737              1.629
 Vibration    16          0.681              1.706              1.520
 Vibration    17          0.689              1.684              1.447
 Vibration    18          0.699              1.656              1.366
 Vibration    19          0.715              1.610              1.247
 Vibration    20          0.745              1.527              1.067
 Vibration    21          0.750              1.512              1.037
 Vibration    22          0.754              1.503              1.021
 Vibration    23          0.781              1.432              0.900
 Vibration    24          0.787              1.415              0.874
 Vibration    25          0.802              1.379              0.820
 Vibration    26          0.845              1.275              0.686
 Vibration    27          0.852              1.259              0.668
 Vibration    28          0.887              1.180              0.584
 Vibration    29          0.916              1.117              0.523
 Vibration    30          0.935              1.078              0.489
 Vibration    31          0.958              1.031              0.449

                           ! Non-Optimized Parameters !
 Normal termination of Gaussian 16 at Sun Dec 13 17:07:20 2020.

 ----------------------------------------------------------------------
 # B3LYP/6-311++G(d,p) empiricaldispersion=gd3bj scf=xqc pop=npa geom=c
 heck
 ----------------------------------------------------------------------

 ----------------------------------------
 CID_111064996_JID_10653_Energie_neutraal
 ----------------------------------------
 Structure from the checkpoint file:  "JID_10653.chk"
 Charge =  0 Multiplicity = 1

 SCF Done:  E(RB3LYP) =  -1221.01759807     A.U. after   15 cycles
 Normal termination of Gaussian 16 at Sun Dec 13 17:13:54 2020.

 ----------------------------------------------------------------------
 # B3LYP/6-311++G(d,p) empiricaldispersion=gd3bj scf=xqc pop=npa geom=c
 heck
 ----------------------------------------------------------------------

 --------------------------------------
 CID_111064996_JID_10653_Energie_kation
 --------------------------------------
 Structure from the checkpoint file:  "JID_10653.chk"
 Charge =  1 Multiplicity = 2

 SCF Done:  E(UB3LYP) =  -1220.76468558     A.U. after   24 cycles
 Normal termination of Gaussian 16 at Sun Dec 13 17:27:44 2020.
 Gaussian 16:  ES64L-G16RevA.03 25-Dec-2016

 ----------------------------------------------------------------------
 # B3LYP/6-311++G(d,p) empiricaldispersion=gd3bj scf=xqc pop=npa geom=c
 heck
 ----------------------------------------------------------------------

 -------------------------------------
 CID_111064996_JID_10653_Energie_anion
 -------------------------------------
 Structure from the checkpoint file:  "JID_10653.chk"
 Charge = -1 Multiplicity = 2

                         Standard orientation:
 ---------------------------------------------------------------------
 Center     Atomic      Atomic             Coordinates (Angstroms)
 Number     Number       Type             X           Y           Z
 ---------------------------------------------------------------------
      1          6           0       -6.242556    1.834758   -1.206418
      2          6           0       -4.758526    2.031419   -0.886674
      3          6           0       -4.153557    0.885184   -0.122523
      4          6           0       -4.742009   -0.267714    0.321156
      5          6           0       -3.837930   -1.139905    1.008788
      6          6           0       -2.563620   -0.647155    1.096186
      7         16           0       -2.453307    0.909935    0.305492
      8          6           0       -1.352040   -1.257481    1.758986
      9          7           0       -0.102881   -1.079662    1.034306
     10          6           0        0.003834   -1.610934   -0.132208
     11          7           0       -0.951187   -2.418820   -0.765733
     12          7           0        1.147810   -1.469117   -0.898701
     13          6           0        2.345917   -0.788647   -0.605697
     14          6           0        3.428279   -0.996886   -1.478624
     15          6           0        4.636454   -0.344490   -1.290379
     16          6           0        4.798538    0.541150   -0.217785
     17          6           0        3.728610    0.753924    0.653639
     18          6           0        2.509815    0.096429    0.464484
     19          8           0        6.027897    1.136432   -0.113660
     20          6           0        6.229230    2.036273    0.959965
     21          1           0       -6.400518    0.938834   -1.816443
     22          1           0       -6.630650    2.694731   -1.761301
     23          1           0       -6.833516    1.728927   -0.290400
     24          1           0       -4.201448    2.182153   -1.821701
     25          1           0       -4.630592    2.959823   -0.313239
     26          1           0       -5.788479   -0.500152    0.159899
     27          1           0       -4.127641   -2.096266    1.433803
     28          1           0       -1.213805   -0.800241    2.746202
     29          1           0       -1.577179   -2.321357    1.943054
     30          1           0       -0.946068   -2.344327   -1.777487
     31          1           0       -1.890252   -2.260332   -0.414913
     32          1           0        1.228586   -2.131769   -1.656876
     33          1           0        3.318391   -1.679791   -2.319195
     34          1           0        5.470992   -0.507942   -1.964403
     35          1           0        3.822848    1.430461    1.495076
     36          1           0        1.687786    0.249185    1.148169
     37          1           0        5.540263    2.890361    0.906886
     38          1           0        6.106233    1.540051    1.932340
     39          1           0        7.255960    2.394886    0.865456
 ---------------------------------------------------------------------

 SCF Done:  E(UB3LYP) =  -1221.00873996     A.U. after   33 cycles
 SCF Done:  E(UB3LYP) =  -1221.00873996     a.u. after    1 cycles

 The electronic state is 2-A.
 Alpha  occ. eigenvalues --  -88.78137 -19.07131 -14.25188 -14.23083 -14.18446
 Alpha  occ. eigenvalues --  -10.18338 -10.14685 -10.14313 -10.12688 -10.11977
 Alpha  occ. eigenvalues --  -10.11667 -10.11591 -10.09960 -10.08934 -10.08867
 Alpha  occ. eigenvalues --  -10.08681 -10.08652 -10.08572 -10.08235 -10.07761
 Alpha  occ. eigenvalues --   -7.86759  -5.83046  -5.82680  -5.82350  -0.98684
 Alpha  occ. eigenvalues --   -0.90155  -0.82251  -0.79605  -0.77684  -0.75774
 Alpha  occ. eigenvalues --   -0.70667  -0.67183  -0.66546  -0.64969  -0.64517
 Alpha  occ. eigenvalues --   -0.61580  -0.59052  -0.55035  -0.53843  -0.52520
 Alpha  occ. eigenvalues --   -0.48450  -0.46434  -0.45131  -0.44943  -0.44653
 Alpha  occ. eigenvalues --   -0.43673  -0.41141  -0.39362  -0.39187  -0.39157
 Alpha  occ. eigenvalues --   -0.37443  -0.36624  -0.36232  -0.34926  -0.34371
 Alpha  occ. eigenvalues --   -0.33554  -0.32927  -0.32408  -0.32218  -0.31289
 Alpha  occ. eigenvalues --   -0.31012  -0.29283  -0.28876  -0.28040  -0.27511
 Alpha  occ. eigenvalues --   -0.26911  -0.26265  -0.25122  -0.24860  -0.24723
 Alpha  occ. eigenvalues --   -0.19846  -0.17113  -0.16713  -0.16402  -0.15377
 Alpha  occ. eigenvalues --   -0.14017  -0.11032   0.03642
 Alpha virt. eigenvalues --    0.04765   0.05324   0.05916   0.06529   0.07179
 Alpha virt. eigenvalues --    0.07309   0.07720   0.07919   0.08531   0.08826
 Alpha virt. eigenvalues --    0.08960   0.09119   0.09258   0.09885   0.10696

  Beta  occ. eigenvalues --  -88.78135 -19.07127 -14.25157 -14.23027 -14.18443
  Beta  occ. eigenvalues --  -10.18337 -10.14664 -10.14313 -10.12689 -10.11972
  Beta  occ. eigenvalues --  -10.11669 -10.11591 -10.09945 -10.08928 -10.08851
  Beta  occ. eigenvalues --  -10.08677 -10.08651 -10.08561 -10.08205 -10.07757
  Beta  occ. eigenvalues --   -7.86756  -5.83043  -5.82678  -5.82348  -0.98674
  Beta  occ. eigenvalues --   -0.90117  -0.82216  -0.79583  -0.77641  -0.75753
  Beta  occ. eigenvalues --   -0.70643  -0.67163  -0.66530  -0.64947  -0.64501
  Beta  occ. eigenvalues --   -0.61552  -0.59021  -0.54985  -0.53820  -0.52485
  Beta  occ. eigenvalues --   -0.48415  -0.46411  -0.45102  -0.44890  -0.44626
  Beta  occ. eigenvalues --   -0.43612  -0.41109  -0.39336  -0.39165  -0.39126
  Beta  occ. eigenvalues --   -0.37419  -0.36586  -0.36204  -0.34904  -0.34358
  Beta  occ. eigenvalues --   -0.33540  -0.32905  -0.32379  -0.32187  -0.31270
  Beta  occ. eigenvalues --   -0.30993  -0.29268  -0.28855  -0.28017  -0.27477
  Beta  occ. eigenvalues --   -0.26887  -0.26245  -0.25107  -0.24844  -0.24708
  Beta  occ. eigenvalues --   -0.19818  -0.17104  -0.16704  -0.16394  -0.15355
  Beta  occ. eigenvalues --   -0.14006  -0.11020
  Beta virt. eigenvalues --    0.05174   0.05601   0.05951   0.06586   0.06951
  Beta virt. eigenvalues --    0.07184   0.07436   0.07896   0.08414   0.08605
  Beta virt. eigenvalues --    0.08940   0.09161   0.09280   0.09324   0.10127

 Mulliken charges and spin densities:
               1          2
     1  C    0.415424  -0.954196
     2  C   -0.649849   0.193332
     3  C    0.424123   0.009052
     4  C   -0.432871   0.097138
     5  C   -0.031126  -0.210581
     6  C    0.428833   0.177127
     7  S   -0.057757  -0.240818
     8  C   -0.047077  -0.720620
     9  N   -0.027742  -0.086072
    10  C    0.155118  -0.297066
    11  N   -0.248294  -0.065077
    12  N   -0.114323   0.063147
    13  C    0.360890  -0.507850
    14  C   -0.072178  -0.227414
    15  C   -0.488296   0.111679
    16  C   -0.412004  -0.229155
    17  C    0.275421  -0.091182
    18  C    0.481858  -0.029116
    19  O   -0.190099   0.017542
    20  C    0.154017  -0.502339
    21  H   -0.119193   0.271690
    22  H   -0.335643   0.488448
    23  H   -0.008149   0.148383
    24  H   -0.009915   0.173754
    25  H    0.036970   0.118784
    26  H   -0.177362   0.328209
    27  H   -0.060001   0.217894
    28  H    0.157748   0.034115
    29  H    0.121177   0.049399
    30  H   -0.433692   0.686667
    31  H    0.209672   0.120323
    32  H   -0.106709   0.392275
    33  H   -0.565332   0.719686
    34  H    0.131091   0.046299
    35  H    0.098725   0.109382
    36  H    0.253777   0.017586
    37  H    0.034389   0.109956
    38  H    0.035379   0.106654
    39  H   -0.187001   0.352966
 Sum of Mulliken charges =  -1.00000   1.00000

 Dipole moment (field-independent basis, Debye):
    X=              1.5879    Y=              1.3730    Z=              5.1016  Tot=              5.5166
 Quadrupole moment (field-independent basis, Debye-Ang):
   XX=           -246.9837   YY=           -169.8341   ZZ=           -167.8685
   XY=              6.1839   XZ=             -9.2252   YZ=             -7.1020

 Summary of Natural Population Analysis:

                                       Natural Population
                Natural  -----------------------------------------------
    Atom  No    Charge         Core      Valence    Rydberg      Total
 -----------------------------------------------------------------------
      C    1   -0.28224      0.99967     2.27808    0.00449     3.28224
      C    2   -0.20433      0.99958     2.19700    0.00775     3.20433
      C    3   -0.09102      0.99950     2.07739    0.01413     3.09102
      C    4   -0.13604      0.99945     2.12535    0.01124     3.13604
      C    5   -0.13410      0.99945     2.12372    0.01092     3.13410
      C    6   -0.11163      0.99949     2.09900    0.01314     3.11163
      S    7    0.21365      4.99936     2.76729    0.01970     7.78635
      C    8   -0.11119      0.99954     2.09911    0.01253     3.11119
      N    9   -0.31347      0.99965     2.80347    0.01036     3.81347
      C   10    0.31647      0.99960     1.66691    0.01702     2.68353
      N   11   -0.41223      0.99972     2.90268    0.00983     3.91223
      N   12   -0.30041      0.99963     2.78991    0.01086     3.80041
      C   13    0.07400      0.99947     1.91479    0.01174     2.92600
      C   14   -0.10674      0.99954     2.09733    0.00987     3.10674
      C   15   -0.11613      0.99953     2.10720    0.00940     3.11613
      C   16    0.14480      0.99937     1.84387    0.01196     2.85520
      C   17   -0.13865      0.99953     2.13163    0.00749     3.13865
      C   18   -0.10903      0.99953     2.10111    0.00838     3.10903
      O   19   -0.27572      0.99986     3.26681    0.00905     4.27572
      C   20   -0.09941      0.99961     2.09165    0.00815     3.09941
      H   21    0.10047      0.00000     0.39806    0.00147     0.39953
      H   22    0.10125      0.00000     0.39764    0.00111     0.39875
      H   23    0.09732      0.00000     0.40135    0.00132     0.40268
      H   24    0.10587      0.00000     0.39267    0.00145     0.39413
      H   25    0.10227      0.00000     0.39636    0.00137     0.39773
      H   26    0.10790      0.00000     0.39099    0.00111     0.39210
      H   27    0.10559      0.00000     0.39331    0.00110     0.39441
      H   28    0.10111      0.00000     0.39769    0.00119     0.39889
      H   29    0.09418      0.00000     0.40397    0.00185     0.40582
      H   30    0.19368      0.00000     0.29898    0.00734     0.30632
      H   31    0.19658      0.00000     0.30089    0.00253     0.30342
      H   32    0.19528      0.00000     0.30011    0.00461     0.30472
      H   33    0.10234      0.00000     0.39632    0.00133     0.39766
      H   34    0.10525      0.00000     0.39356    0.00119     0.39475
      H   35    0.10262      0.00000     0.39623    0.00115     0.39738
      H   36    0.12521      0.00000     0.37346    0.00133     0.37479
      H   37    0.08248      0.00000     0.41550    0.00202     0.41752
      H   38    0.08205      0.00000     0.41592    0.00203     0.41795
      H   39    0.09197      0.00000     0.40675    0.00128     0.40803
 =======================================================================
   * Total *    0.00000     23.99108    52.75409    0.25482    77.00000

 Normal termination of Gaussian 16 at Sun Dec 13 17:47:09 2020.
