 Gaussian 16, Revision A.03,

 -----------------------------------------------------------
 # opt freq B3LYP/6-31G(d) empiricaldispersion=gd3bj scf=xqc
 -----------------------------------------------------------

 ------------------------------
 CID_15681300_JID_3430_neutraal
 ------------------------------
 Symbolic Z-matrix:
 Charge =  0 Multiplicity = 1

 SCF Done:  E(RB3LYP) =  -574.082486778     A.U. after   15 cycles
 SCF Done:  E(RB3LYP) =  -574.104156875     A.U. after   13 cycles
 SCF Done:  E(RB3LYP) =  -574.105455890     A.U. after   12 cycles
 SCF Done:  E(RB3LYP) =  -574.105320405     A.U. after   12 cycles
 SCF Done:  E(RB3LYP) =  -574.105410227     A.U. after   12 cycles
 SCF Done:  E(RB3LYP) =  -574.105687180     A.U. after   11 cycles
 SCF Done:  E(RB3LYP) =  -574.105668018     A.U. after   11 cycles
 SCF Done:  E(RB3LYP) =  -574.105711288     A.U. after   11 cycles
 SCF Done:  E(RB3LYP) =  -574.105747817     A.U. after   11 cycles
 SCF Done:  E(RB3LYP) =  -574.105748364     A.U. after    8 cycles
 SCF Done:  E(RB3LYP) =  -574.105748450     A.U. after    7 cycles
 SCF Done:  E(RB3LYP) =  -574.105748540     A.U. after    7 cycles
 Optimization completed.
    -- Stationary point found.
 Normal termination of Gaussian 16 at Wed Dec  9 23:14:25 2020.

 --------------------------------------------------------------------
 #N Geom=AllCheck Guess=TCheck SCRF=Check GenChk RB3LYP/6-31G(d) Freq
 --------------------------------------------------------------------

 Structure from the checkpoint file:  "JID_3430.chk"
 ------------------------------
 CID_15681300_JID_3430_neutraal
 ------------------------------
 Charge =  0 Multiplicity = 1

 SCF Done:  E(RB3LYP) =  -574.105748540     A.U. after    1 cycles

  Exact polarizability: 146.943  -6.190 108.152   1.818   6.662  91.651
 Approx polarizability: 183.309  -9.673 163.762  -0.326  16.670 141.426

                      1                      2                      3
                      A                      A                      A
 Frequencies --     25.2456                53.6721                94.3202
 Red. masses --      4.5650                 3.6361                 3.8006
 Frc consts  --      0.0017                 0.0062                 0.0199
 IR Inten    --      0.2394                 0.2387                 0.6754

                      4                      5                      6
                      A                      A                      A
 Frequencies --    111.7022               167.6036               209.4961
 Red. masses --      3.7392                 3.6890                 2.5345
 Frc consts  --      0.0275                 0.0611                 0.0655
 IR Inten    --      0.5828                 2.0348                 1.1312

                      7                      8                      9
                      A                      A                      A
 Frequencies --    217.5906               237.2358               276.8251
 Red. masses --      2.1625                 1.4271                 3.0041
 Frc consts  --      0.0603                 0.0473                 0.1356
 IR Inten    --      0.5543                 0.9868                 0.9359

                     10                     11                     12
                      A                      A                      A
 Frequencies --    356.0725               407.5488               426.0295
 Red. masses --      4.2711                 3.5900                 4.0079
 Frc consts  --      0.3191                 0.3513                 0.4286
 IR Inten    --      3.0318                 4.8309                 2.2502

                     13                     14                     15
                      A                      A                      A
 Frequencies --    463.3666               506.8363               548.3604
 Red. masses --      2.2086                 2.1280                 3.9638
 Frc consts  --      0.2794                 0.3221                 0.7022
 IR Inten    --      1.2769                 3.3733                 5.0255

                     16                     17                     18
                      A                      A                      A
 Frequencies --    556.4039               583.9535               600.9509
 Red. masses --      3.6260                 4.6119                 1.2472
 Frc consts  --      0.6614                 0.9266                 0.2654
 IR Inten    --      1.9485                 4.2345                44.7800

                     19                     20                     21
                      A                      A                      A
 Frequencies --    643.4981               661.5261               779.0156
 Red. masses --      1.4100                 2.6813                 4.7966
 Frc consts  --      0.3440                 0.6913                 1.7150
 IR Inten    --     27.1403                17.2273                 5.2000

                     22                     23                     24
                      A                      A                      A
 Frequencies --    795.7382               813.7604               830.9317
 Red. masses --      2.6768                 2.9582                 3.2293
 Frc consts  --      0.9986                 1.1542                 1.3137
 IR Inten    --      2.0919                 3.0617                36.9063

                     25                     26                     27
                      A                      A                      A
 Frequencies --    834.8918               854.7673               893.2383
 Red. masses --      2.0329                 2.3155                 3.0592
 Frc consts  --      0.8349                 0.9968                 1.4381
 IR Inten    --      5.6320                15.8774                24.6812

                     28                     29                     30
                      A                      A                      A
 Frequencies --    909.6297               928.4548               958.3534
 Red. masses --      3.8317                 3.1226                 2.5000
 Frc consts  --      1.8680                 1.5860                 1.3528
 IR Inten    --     91.6174                 2.0469                23.9858

                     31                     32                     33
                      A                      A                      A
 Frequencies --    970.8017               987.7212              1009.5317
 Red. masses --      2.6176                 2.3879                 3.0669
 Frc consts  --      1.4535                 1.3726                 1.8416
 IR Inten    --     35.2249                20.1437                17.1294

                     34                     35                     36
                      A                      A                      A
 Frequencies --   1020.1364              1064.2403              1069.5999
 Red. masses --      2.1633                 2.1803                 1.7488
 Frc consts  --      1.3264                 1.4550                 1.1788
 IR Inten    --     15.7822               103.1267                35.0745

                     37                     38                     39
                      A                      A                      A
 Frequencies --   1101.2500              1126.1671              1146.4416
 Red. masses --      1.8478                 1.9001                 1.2197
 Frc consts  --      1.3203                 1.4199                 0.9445
 IR Inten    --     12.3088                26.7261                26.6406

                     40                     41                     42
                      A                      A                      A
 Frequencies --   1151.1724              1201.3426              1231.3878
 Red. masses --      2.0209                 1.6349                 1.5391
 Frc consts  --      1.5779                 1.3902                 1.3750
 IR Inten    --     82.3818                 3.1260                 0.6875

                     43                     44                     45
                      A                      A                      A
 Frequencies --   1237.5980              1279.6315              1288.6647
 Red. masses --      2.0106                 1.3869                 1.5127
 Frc consts  --      1.8144                 1.3380                 1.4801
 IR Inten    --      1.3067                 3.0370                 3.6646

                     46                     47                     48
                      A                      A                      A
 Frequencies --   1292.4181              1310.1733              1318.0099
 Red. masses --      1.3458                 1.2750                 1.5065
 Frc consts  --      1.3244                 1.2895                 1.5419
 IR Inten    --      0.5228                 1.1802                 4.7101

                     49                     50                     51
                      A                      A                      A
 Frequencies --   1347.6249              1351.8619              1365.9912
 Red. masses --      1.5293                 1.3362                 1.4387
 Frc consts  --      1.6364                 1.4387                 1.5816
 IR Inten    --      1.2149                 9.3060                 9.0561

                     52                     53                     54
                      A                      A                      A
 Frequencies --   1380.0996              1424.0275              1497.5059
 Red. masses --      1.3131                 1.2472                 1.0805
 Frc consts  --      1.4735                 1.4902                 1.4276
 IR Inten    --     29.6757                10.0051                 5.4349

                     55                     56                     57
                      A                      A                      A
 Frequencies --   1511.3699              1523.5322              1528.7316
 Red. masses --      1.0440                 1.0839                 1.0863
 Frc consts  --      1.4051                 1.4823                 1.4958
 IR Inten    --      3.7478                 1.9158                 3.8229

                     58                     59                     60
                      A                      A                      A
 Frequencies --   1529.2227              1549.4109              1771.8230
 Red. masses --      1.0517                 1.0987                11.7453
 Frc consts  --      1.4491                 1.5540                21.7247
 IR Inten    --      2.3441                 0.7799                 6.1895

                     61                     62                     63
                      A                      A                      A
 Frequencies --   2241.5856              3064.1070              3069.3584
 Red. masses --      5.9451                 1.0798                 1.0395
 Frc consts  --     17.6003                 5.9731                 5.7699
 IR Inten    --      1.9274                14.7793                20.3709

                     64                     65                     66
                      A                      A                      A
 Frequencies --   3069.9032              3070.1261              3080.8479
 Red. masses --      1.0635                 1.0632                 1.0585
 Frc consts  --      5.9054                 5.9046                 5.9193
 IR Inten    --      9.6292                31.8819                42.9658

                     67                     68                     69
                      A                      A                      A
 Frequencies --   3086.7639              3118.3357              3124.6511
 Red. masses --      1.0613                 1.1052                 1.1012
 Frc consts  --      5.9578                 6.3320                 6.3348
 IR Inten    --     48.0854                 2.3350                 5.4679

                     70                     71                     72
                      A                      A                      A
 Frequencies --   3135.1503              3139.0145              3139.3132
 Red. masses --      1.1094                 1.1067                 1.1043
 Frc consts  --      6.4248                 6.4249                 6.4123
 IR Inten    --     20.3420                56.1804                21.2824

                     73                     74                     75
                      A                      A                      A
 Frequencies --   3157.7220              3168.3458              3496.6781
 Red. masses --      1.0890                 1.1019                 1.1609
 Frc consts  --      6.3980                 6.5170                 8.3626
 IR Inten    --     15.0779                13.2097                49.8949

 - Thermochemistry -
 -------------------
 Temperature   298.150 Kelvin.  Pressure   1.00000 Atm.
 Atom     1 has atomic number  6 and mass  12.00000

 Molecular mass:   178.11061 amu.
 Principal axes and moments of inertia in atomic units:
                           1         2         3
     Eigenvalues --   966.423304343.002084547.47989
           X            0.99998   0.00650   0.00222
           Y           -0.00650   0.99998  -0.00042
           Z           -0.00223   0.00040   1.00000
 This molecule is an asymmetric top.
 Rotational symmetry number  1.
 Warning -- assumption of classical behavior for rotation
           may cause significant error
 Rotational temperatures (Kelvin)      0.08962     0.01994     0.01905
 Rotational constants (GHZ):           1.86744     0.41555     0.39687
 Zero-point vibrational energy     601102.0 (Joules/Mol)
                                  143.66683 (Kcal/Mol)
 Warning -- explicit consideration of  18 degrees of freedom as
           vibrations may cause significant error
 Vibrational temperatures:     36.32    77.22   135.71   160.71   241.14
          (Kelvin)            301.42   313.06   341.33   398.29   512.31
                              586.37   612.96   666.68   729.22   788.97
                              800.54   840.18   864.63   925.85   951.79
                             1120.83  1144.89  1170.82  1195.53  1201.22
                             1229.82  1285.17  1308.75  1335.84  1378.86
                             1396.77  1421.11  1452.49  1467.75  1531.20
                             1538.92  1584.45  1620.30  1649.47  1656.28
                             1728.46  1771.69  1780.63  1841.10  1854.10
                             1859.50  1885.05  1896.32  1938.93  1945.03
                             1965.36  1985.66  2048.86  2154.58  2174.52
                             2192.02  2199.50  2200.21  2229.26  2549.26
                             3225.14  4408.57  4416.12  4416.91  4417.23
                             4432.65  4441.16  4486.59  4495.68  4510.78
                             4516.34  4516.77  4543.26  4558.54  5030.94

 Zero-point correction=                           0.228948 (Hartree/Particle)
 Thermal correction to Energy=                    0.241094
 Thermal correction to Enthalpy=                  0.242038
 Thermal correction to Gibbs Free Energy=         0.189674
 Sum of electronic and zero-point Energies=           -573.876801
 Sum of electronic and thermal Energies=              -573.864655
 Sum of electronic and thermal Enthalpies=            -573.863711
 Sum of electronic and thermal Free Energies=         -573.916074

                     E (Thermal)             CV                S
                      KCal/Mol        Cal/Mol-Kelvin    Cal/Mol-Kelvin
 Total                  151.289             47.170            110.209
 Electronic               0.000              0.000              0.000
 Translational            0.889              2.981             41.439
 Rotational               0.889              2.981             31.324
 Vibrational            149.511             41.209             37.446
 Vibration     1          0.593              1.985              6.172
 Vibration     2          0.596              1.976              4.677
 Vibration     3          0.603              1.953              3.568
 Vibration     4          0.607              1.940              3.239
 Vibration     5          0.624              1.882              2.462
 Vibration     6          0.642              1.826              2.048
 Vibration     7          0.646              1.814              1.979
 Vibration     8          0.656              1.784              1.824
 Vibration     9          0.678              1.716              1.553
 Vibration    10          0.732              1.563              1.139
 Vibration    11          0.772              1.454              0.935
 Vibration    12          0.788              1.414              0.872
 Vibration    13          0.821              1.331              0.756
 Vibration    14          0.862              1.235              0.641
 Vibration    15          0.904              1.143              0.548
 Vibration    16          0.912              1.126              0.531
 Vibration    17          0.941              1.066              0.478
 Vibration    18          0.959              1.030              0.448

 Optimization completed.
    -- Stationary point found.
 Normal termination of Gaussian 16 at Wed Dec  9 23:21:20 2020.

 ----------------------------------------------------------------------
 # B3LYP/6-311++G(d,p) empiricaldispersion=gd3bj scf=xqc pop=npa geom=c
 heck
 ----------------------------------------------------------------------

 --------------------------------------
 CID_15681300_JID_3430_Energie_neutraal
 --------------------------------------
 Structure from the checkpoint file:  "JID_3430.chk"
 Charge =  0 Multiplicity = 1

 SCF Done:  E(RB3LYP) =  -574.264938034     A.U. after   15 cycles
 Normal termination of Gaussian 16 at Wed Dec  9 23:24:34 2020.

 ----------------------------------------------------------------------
 # B3LYP/6-311++G(d,p) empiricaldispersion=gd3bj scf=xqc pop=npa geom=c
 heck
 ----------------------------------------------------------------------

 ------------------------------------
 CID_15681300_JID_3430_Energie_kation
 ------------------------------------
 Structure from the checkpoint file:  "JID_3430.chk"
 Charge =  1 Multiplicity = 2

 SCF Done:  E(UB3LYP) =  -573.959884983     A.U. after   25 cycles
 Normal termination of Gaussian 16 at Wed Dec  9 23:32:10 2020.
 Gaussian 16:  ES64L-G16RevA.03 25-Dec-2016

 ----------------------------------------------------------------------
 # B3LYP/6-311++G(d,p) empiricaldispersion=gd3bj scf=xqc pop=npa geom=c
 heck
 ----------------------------------------------------------------------

 -----------------------------------
 CID_15681300_JID_3430_Energie_anion
 -----------------------------------
 Structure from the checkpoint file:  "JID_3430.chk"
 Charge = -1 Multiplicity = 2

                         Standard orientation:
 ---------------------------------------------------------------------
 Center     Atomic      Atomic             Coordinates (Angstroms)
 Number     Number       Type             X           Y           Z
 ---------------------------------------------------------------------
      1          6           0       -3.068159   -1.676629    0.425954
      2          6           0       -2.786069   -0.496610   -0.507301
      3          6           0       -3.340829    0.763592    0.003443
      4          6           0       -3.823015    1.788936    0.418550
      5          8           0       -1.387384   -0.379666   -0.815258
      6          7           0       -0.657579   -0.110706    0.373376
      7          6           0        0.560642    0.110703    0.083674
      8          6           0        1.260466    0.148656   -1.271924
      9          7           0        2.680790    0.431360   -0.939649
     10          6           0        3.225504   -0.779636   -0.264878
     11          6           0        2.546959   -0.837702    1.148036
     12          6           0        1.636630    0.416702    1.094970
     13          6           0        2.520885    1.346437    0.219932
     14          1           0       -2.601665   -1.503368    1.397577
     15          1           0       -2.656857   -2.591917   -0.010964
     16          1           0       -4.146826   -1.799228    0.564687
     17          1           0       -3.221889   -0.698945   -1.493084
     18          1           0       -4.235285    2.699034    0.790528
     19          1           0        1.154908   -0.782219   -1.835604
     20          1           0        0.852282    0.957519   -1.889144
     21          1           0        3.026599   -1.663287   -0.876425
     22          1           0        4.310320   -0.667602   -0.179728
     23          1           0        1.976115   -1.754694    1.315896
     24          1           0        3.283728   -0.743869    1.953146
     25          1           0        1.277754    0.781390    2.057294
     26          1           0        3.490685    1.577719    0.670856
     27          1           0        2.028638    2.275516   -0.081804
 ---------------------------------------------------------------------

 SCF Done:  E(UB3LYP) =  -574.249851430     A.U. after   33 cycles
 SCF Done:  E(UB3LYP) =  -574.249851430     a.u. after    1 cycles

 The electronic state is 2-A.
 Alpha  occ. eigenvalues --  -19.06492 -14.25539 -14.21539 -10.15643 -10.11199
 Alpha  occ. eigenvalues --  -10.10469 -10.09921 -10.09561 -10.08828 -10.08328
 Alpha  occ. eigenvalues --  -10.07525 -10.07351 -10.07147  -0.98650  -0.86437
 Alpha  occ. eigenvalues --   -0.78318  -0.69198  -0.67333  -0.64309  -0.63320
 Alpha  occ. eigenvalues --   -0.60833  -0.55067  -0.50480  -0.48742  -0.46103
 Alpha  occ. eigenvalues --   -0.43512  -0.42238  -0.40899  -0.38486  -0.38097
 Alpha  occ. eigenvalues --   -0.36928  -0.34412  -0.32017  -0.31574  -0.30143
 Alpha  occ. eigenvalues --   -0.29879  -0.28136  -0.27817  -0.26805  -0.26124
 Alpha  occ. eigenvalues --   -0.25495  -0.25016  -0.23386  -0.19628  -0.19215
 Alpha  occ. eigenvalues --   -0.17934  -0.15385  -0.13714   0.04369
 Alpha virt. eigenvalues --    0.06056   0.06844   0.08043   0.08107   0.08576
 Alpha virt. eigenvalues --    0.08859   0.09453   0.10103   0.10281   0.10616
 Alpha virt. eigenvalues --    0.11109   0.11659   0.11938   0.12306   0.13802

  Beta  occ. eigenvalues --  -19.06491 -14.25519 -14.21541 -10.15629 -10.11190
  Beta  occ. eigenvalues --  -10.10452 -10.09897 -10.09539 -10.08821 -10.08328
  Beta  occ. eigenvalues --  -10.07505 -10.07320 -10.07124  -0.98637  -0.86420
  Beta  occ. eigenvalues --   -0.78292  -0.69170  -0.67300  -0.64278  -0.63285
  Beta  occ. eigenvalues --   -0.60786  -0.55018  -0.50422  -0.48681  -0.46067
  Beta  occ. eigenvalues --   -0.43471  -0.42202  -0.40868  -0.38439  -0.38065
  Beta  occ. eigenvalues --   -0.36894  -0.34375  -0.31975  -0.31545  -0.30109
  Beta  occ. eigenvalues --   -0.29837  -0.28100  -0.27787  -0.26779  -0.26091
  Beta  occ. eigenvalues --   -0.25450  -0.24981  -0.23349  -0.19594  -0.19193
  Beta  occ. eigenvalues --   -0.17899  -0.15348  -0.13690
  Beta virt. eigenvalues --    0.06421   0.07238   0.07467   0.08407   0.08678
  Beta virt. eigenvalues --    0.09099   0.09386   0.09877   0.10300   0.10632
  Beta virt. eigenvalues --    0.10981   0.11387   0.12011   0.12070   0.12755

 Mulliken charges and spin densities:
               1          2
     1  C    0.862158  -1.465017
     2  C   -1.900693   2.094627
     3  C    3.971408  -2.705162
     4  C   -2.221269   0.544056
     5  O    0.120960  -0.033475
     6  N   -0.133892   0.081306
     7  C    1.338834  -1.716222
     8  C   -0.359578  -0.326334
     9  N   -0.036986   0.116242
    10  C    0.217313  -0.585255
    11  C    0.937525  -1.435479
    12  C   -1.752291   2.445882
    13  C    0.869715  -1.434844
    14  H    0.070870   0.099124
    15  H   -0.240843   0.385958
    16  H   -0.131635   0.274943
    17  H   -0.435527   0.636912
    18  H   -0.553736   0.690442
    19  H    0.067099   0.135247
    20  H    0.021522   0.203941
    21  H   -0.115895   0.246717
    22  H   -0.163787   0.357522
    23  H    0.024733   0.120879
    24  H   -0.627874   0.810367
    25  H   -0.357043   0.630291
    26  H   -0.506958   0.701533
    27  H    0.035872   0.125797
 Sum of Mulliken charges =  -1.00000   1.00000

 Dipole moment (field-independent basis, Debye):
    X=             -1.7451    Y=             -0.0212    Z=             -1.7795  Tot=              2.4925
 Quadrupole moment (field-independent basis, Debye-Ang):
   XX=           -166.0568   YY=           -114.5487   ZZ=           -114.4037
   XY=             -1.7394   XZ=            -10.2613   YZ=             -0.6464

 Summary of Natural Population Analysis:

                                       Natural Population
                Natural  -----------------------------------------------
    Atom  No    Charge         Core      Valence    Rydberg      Total
 -----------------------------------------------------------------------
      C    1   -0.29052      0.99965     2.28468    0.00620     3.29052
      C    2    0.03018      0.99949     1.95430    0.01603     2.96982
      C    3   -0.00687      0.99935     1.99865    0.00887     3.00687
      C    4   -0.11251      0.99928     2.10937    0.00386     3.11251
      O    5   -0.22624      0.99989     3.21502    0.01132     4.22624
      N    6   -0.08643      0.99957     2.57342    0.01344     3.58643
      C    7    0.12715      0.99958     1.85527    0.01799     2.87285
      C    8   -0.11877      0.99957     2.10903    0.01017     3.11877
      N    9   -0.27270      0.99978     2.75950    0.01341     3.77270
      C   10   -0.09437      0.99963     2.08259    0.01216     3.09437
      C   11   -0.19953      0.99963     2.19142    0.00848     3.19953
      C   12   -0.13420      0.99955     2.12230    0.01235     3.13420
      C   13   -0.08801      0.99962     2.07632    0.01208     3.08801
      H   14    0.10973      0.00000     0.38869    0.00158     0.39027
      H   15    0.10369      0.00000     0.39497    0.00134     0.39631
      H   16    0.10216      0.00000     0.39679    0.00105     0.39784
      H   17    0.10654      0.00000     0.39110    0.00236     0.39346
      H   18    0.11006      0.00000     0.38859    0.00135     0.38994
      H   19    0.10902      0.00000     0.38921    0.00177     0.39098
      H   20    0.11057      0.00000     0.38766    0.00177     0.38943
      H   21    0.09593      0.00000     0.40278    0.00129     0.40407
      H   22    0.09971      0.00000     0.39857    0.00172     0.40029
      H   23    0.10331      0.00000     0.39538    0.00131     0.39669
      H   24    0.10592      0.00000     0.39087    0.00321     0.39408
      H   25    0.11502      0.00000     0.38359    0.00139     0.38498
      H   26    0.10209      0.00000     0.39622    0.00169     0.39791
      H   27    0.09905      0.00000     0.39951    0.00144     0.40095
 =======================================================================
   * Total *   -0.00000     12.99458    34.83579    0.16962    48.00000

 Normal termination of Gaussian 16 at Wed Dec  9 23:42:18 2020.
