 Gaussian 16, Revision A.03,

 -----------------------------------------------------------
 # opt freq B3LYP/6-31G(d) empiricaldispersion=gd3bj scf=xqc
 -----------------------------------------------------------

 -------------------------------
 CID_153172205_JID_1453_neutraal
 -------------------------------
 Symbolic Z-matrix:
 Charge =  0 Multiplicity = 1

 SCF Done:  E(RB3LYP) =  -480.535603433     A.U. after   13 cycles
 SCF Done:  E(RB3LYP) =  -480.537519159     A.U. after   11 cycles
 SCF Done:  E(RB3LYP) =  -480.535761988     A.U. after   12 cycles
 SCF Done:  E(RB3LYP) =  -480.538930755     A.U. after   11 cycles
 SCF Done:  E(RB3LYP) =  -480.539549560     A.U. after   12 cycles
 SCF Done:  E(RB3LYP) =  -480.540976283     A.U. after   12 cycles
 SCF Done:  E(RB3LYP) =  -480.541460457     A.U. after   11 cycles
 SCF Done:  E(RB3LYP) =  -480.541690504     A.U. after   10 cycles
 SCF Done:  E(RB3LYP) =  -480.541839851     A.U. after   11 cycles
 SCF Done:  E(RB3LYP) =  -480.542027048     A.U. after   10 cycles
 SCF Done:  E(RB3LYP) =  -480.551862354     A.U. after    9 cycles
 SCF Done:  E(RB3LYP) =  -480.551900726     A.U. after   10 cycles
 SCF Done:  E(RB3LYP) =  -480.551905162     A.U. after    9 cycles
 SCF Done:  E(RB3LYP) =  -480.551908376     A.U. after    9 cycles
 SCF Done:  E(RB3LYP) =  -480.551908948     A.U. after    8 cycles
 SCF Done:  E(RB3LYP) =  -480.551909060     A.U. after    6 cycles
 Optimization completed.
    -- Stationary point found.

 1\1\GINC-NODE316\FOpt\RB3LYP\6-31G(d)\C8H19N3\VSC10255\08-Dec-2020\0\\
 # opt freq B3LYP/6-31G(d) empiricaldispersion=gd3bj scf=xqc\\CID_15317
 2205_JID_1453_neutraal\\0,1\C,-0.4681846003,0.8394781965,-0.2569627339
 \C,0.5061113836,-0.1325936484,-0.9293718743\C,0.5165938565,-0.04258012
 04,-2.4561044351\N,0.9243714093,1.2858747871,-2.9195798959\C,1.0856817
 318,1.3668563032,-4.3822726517\C,2.3982658671,0.7652373895,-4.83519115
 32\C,2.4249018004,-0.443270633,-5.4258483627\N,3.5489326349,1.54291936
 65,-4.6614033196\C,3.6996903817,2.4855216795,-3.5690548814\N,3.8807591

 Normal termination of Gaussian 16 at Tue Dec  8 20:25:04 2020.

 --------------------------------------------------------------------
 #N Geom=AllCheck Guess=TCheck SCRF=Check GenChk RB3LYP/6-31G(d) Freq
 --------------------------------------------------------------------

 Structure from the checkpoint file:  "JID_1453.chk"
 -------------------------------
 CID_153172205_JID_1453_neutraal
 -------------------------------
 Charge =  0 Multiplicity = 1

 SCF Done:  E(RB3LYP) =  -480.551909060     A.U. after    1 cycles

  Exact polarizability: 110.272   0.524 122.075   3.554   9.214  90.899
 Approx polarizability: 137.918  -4.653 164.505   4.305  19.127 139.310

                      1                      2                      3
                      A                      A                      A
 Frequencies --     33.8362                52.3880                68.2326
 Red. masses --      2.9296                 2.9313                 2.9403
 Frc consts  --      0.0020                 0.0047                 0.0081
 IR Inten    --      0.1997                 0.6045                 0.0085

                      4                      5                      6
                      A                      A                      A
 Frequencies --     86.2937                98.1908               130.8842
 Red. masses --      2.6645                 2.9364                 1.9573
 Frc consts  --      0.0117                 0.0167                 0.0198
 IR Inten    --      1.1410                 1.2372                 0.1841

                      7                      8                      9
                      A                      A                      A
 Frequencies --    149.6899               223.4351               241.2120
 Red. masses --      2.4740                 1.8507                 1.3843
 Frc consts  --      0.0327                 0.0544                 0.0475
 IR Inten    --      0.2723                 0.9432                 0.9082

                     10                     11                     12
                      A                      A                      A
 Frequencies --    258.4118               296.3735               305.1968
 Red. masses --      1.8596                 2.0270                 1.8547
 Frc consts  --      0.0732                 0.1049                 0.1018
 IR Inten    --      3.5183                 2.9811                 0.7018

                     13                     14                     15
                      A                      A                      A
 Frequencies --    342.7899               350.6827               421.7446
 Red. masses --      2.3093                 2.9771                 2.2846
 Frc consts  --      0.1599                 0.2157                 0.2394
 IR Inten    --      4.7877                 0.2055                14.7343

                     16                     17                     18
                      A                      A                      A
 Frequencies --    443.2626               482.8226               545.1300
 Red. masses --      1.9695                 2.5016                 3.0626
 Frc consts  --      0.2280                 0.3436                 0.5362
 IR Inten    --      8.2868                 0.5529                17.1470

                     19                     20                     21
                      A                      A                      A
 Frequencies --    644.9263               684.8149               749.7610
 Red. masses --      1.1913                 2.7173                 1.3898
 Frc consts  --      0.2919                 0.7508                 0.4603
 IR Inten    --     71.2813                 1.2090                11.9838

                     22                     23                     24
                      A                      A                      A
 Frequencies --    769.4083               790.0415               808.4950
 Red. masses --      1.4915                 1.3578                 1.5231
 Frc consts  --      0.5202                 0.4993                 0.5866
 IR Inten    --     11.6561                30.4241                66.5523

                     25                     26                     27
                      A                      A                      A
 Frequencies --    847.1365               893.6172               902.7841
 Red. masses --      2.3166                 1.5812                 1.5384
 Frc consts  --      0.9795                 0.7439                 0.7387
 IR Inten    --     23.7557                51.8809                41.2944

                     28                     29                     30
                      A                      A                      A
 Frequencies --    928.9464               948.6639               981.4840
 Red. masses --      2.0562                 1.6602                 1.4477
 Frc consts  --      1.0455                 0.8803                 0.8217
 IR Inten    --     22.7034                 7.4684                 4.0121

                     31                     32                     33
                      A                      A                      A
 Frequencies --    997.1941              1029.7124              1066.0354
 Red. masses --      1.5987                 1.4419                 2.2735
 Frc consts  --      0.9367                 0.9008                 1.5222
 IR Inten    --     12.6372                 4.8484                14.1191

                     34                     35                     36
                      A                      A                      A
 Frequencies --   1070.1684              1123.9843              1131.7611
 Red. masses --      1.6818                 2.7211                 2.7618
 Frc consts  --      1.1348                 2.0255                 2.0842
 IR Inten    --      2.9094                 7.5690                32.5435

                     37                     38                     39
                      A                      A                      A
 Frequencies --   1151.8537              1168.0489              1176.5222
 Red. masses --      1.9666                 2.5163                 1.7708
 Frc consts  --      1.5373                 2.0227                 1.4442
 IR Inten    --     17.7309                97.6532                11.0227

                     40                     41                     42
                      A                      A                      A
 Frequencies --   1198.8763              1231.0045              1273.3706
 Red. masses --      2.2124                 1.6796                 1.1973
 Frc consts  --      1.8736                 1.4996                 1.1438
 IR Inten    --     22.2221                12.7828                 7.0172

                     43                     44                     45
                      A                      A                      A
 Frequencies --   1286.3569              1322.9334              1328.8914
 Red. masses --      1.2212                 1.3375                 1.2074
 Frc consts  --      1.1906                 1.3792                 1.2562
 IR Inten    --     22.4401                10.1868                16.0361

                     46                     47                     48
                      A                      A                      A
 Frequencies --   1377.3518              1394.8928              1406.8122
 Red. masses --      1.6005                 1.3555                 1.3897
 Frc consts  --      1.7890                 1.5540                 1.6205
 IR Inten    --     53.1396                 2.2097                45.6881

                     49                     50                     51
                      A                      A                      A
 Frequencies --   1414.8317              1429.9275              1443.2589
 Red. masses --      1.3697                 1.5817                 1.2625
 Frc consts  --      1.6154                 1.9055                 1.5494
 IR Inten    --     11.5990                 8.9104                 6.7015

                     52                     53                     54
                      A                      A                      A
 Frequencies --   1449.4905              1481.5563              1505.8026
 Red. masses --      1.2289                 1.1879                 1.1618
 Frc consts  --      1.5212                 1.5362                 1.5521
 IR Inten    --      6.7459                 1.9830                 6.7483

                     55                     56                     57
                      A                      A                      A
 Frequencies --   1513.1584              1518.4997              1521.2232
 Red. masses --      1.1165                 1.0967                 1.1297
 Frc consts  --      1.5062                 1.4899                 1.5402
 IR Inten    --     10.8020                24.2922                 3.5086

                     58                     59                     60
                      A                      A                      A
 Frequencies --   1530.2016              1533.6454              1538.3453
 Red. masses --      1.0680                 1.1115                 1.1250
 Frc consts  --      1.4733                 1.5403                 1.5686
 IR Inten    --      7.5900                 8.8835                 3.9155

                     61                     62                     63
                      A                      A                      A
 Frequencies --   1544.2815              1547.0075              1548.2576
 Red. masses --      1.0918                 1.0648                 1.1048
 Frc consts  --      1.5341                 1.5015                 1.5604
 IR Inten    --      8.5278                 2.6974                 1.6836

                     64                     65                     66
                      A                      A                      A
 Frequencies --   1556.2478              1717.4606              2933.7011
 Red. masses --      1.1609                 4.6055                 1.0737
 Frc consts  --      1.6565                 8.0039                 5.4447
 IR Inten    --     36.6544               136.7035                81.8838

                     67                     68                     69
                      A                      A                      A
 Frequencies --   2940.6690              2989.2296              2995.8063
 Red. masses --      1.0619                 1.0693                 1.0710
 Frc consts  --      5.4103                 5.6296                 5.6635
 IR Inten    --     88.7214                59.8278                78.5851

                     70                     71                     72
                      A                      A                      A
 Frequencies --   3041.6210              3043.9006              3065.2332
 Red. masses --      1.0436                 1.0536                 1.0749
 Frc consts  --      5.6884                 5.7516                 5.9502
 IR Inten    --     10.0365                40.0706                29.6052

                     73                     74                     75
                      A                      A                      A
 Frequencies --   3068.4185              3076.1792              3084.8179
 Red. masses --      1.0894                 1.1026                 1.0923
 Frc consts  --      6.0430                 6.1475                 6.1240
 IR Inten    --     90.1287                13.3211                29.1528

                     76                     77                     78
                      A                      A                      A
 Frequencies --   3100.4281              3108.2943              3115.2251
 Red. masses --      1.0875                 1.1027                 1.1011
 Frc consts  --      6.1592                 6.2772                 6.2961
 IR Inten    --     12.4611                63.7609                26.5789

                     79                     80                     81
                      A                      A                      A
 Frequencies --   3116.0299              3169.6342              3256.6598
 Red. masses --      1.1008                 1.0616                 1.1140
 Frc consts  --      6.2974                 6.2836                 6.9609
 IR Inten    --     47.3312                 7.5325                14.2456

                     82                     83                     84
                      A                      A                      A
 Frequencies --   3451.4677              3507.4737              3549.8288
 Red. masses --      1.0724                 1.0739                 1.0743
 Frc consts  --      7.5269                 7.7843                 7.9761
 IR Inten    --     62.5347                 0.3071                 3.0971

 - Thermochemistry -
 -------------------
 Temperature   298.150 Kelvin.  Pressure   1.00000 Atm.
 Atom     1 has atomic number  6 and mass  12.00000

 Molecular mass:   157.15790 amu.
 Principal axes and moments of inertia in atomic units:
                           1         2         3
     Eigenvalues --  1587.302542322.479353424.11820
           X            0.99995  -0.00959   0.00185
           Y            0.00957   0.99989   0.01129
           Z           -0.00196  -0.01127   0.99993
 This molecule is an asymmetric top.
 Rotational symmetry number  1.
 Warning -- assumption of classical behavior for rotation
           may cause significant error
 Rotational temperatures (Kelvin)      0.05457     0.03729     0.02530
 Rotational constants (GHZ):           1.13699     0.77708     0.52707
 Zero-point vibrational energy     727474.5 (Joules/Mol)
                                  173.87058 (Kcal/Mol)
 Warning -- explicit consideration of  18 degrees of freedom as
           vibrations may cause significant error
 Vibrational temperatures:     48.68    75.37    98.17   124.16   141.27
          (Kelvin)            188.31   215.37   321.47   347.05   371.80
                              426.42   439.11   493.20   504.55   606.80
                              637.76   694.67   784.32   927.91   985.30
                             1078.74  1107.01  1136.69  1163.24  1218.84
                             1285.72  1298.91  1336.55  1364.92  1412.14
                             1434.74  1481.53  1533.79  1539.73  1617.16
                             1628.35  1657.26  1680.56  1692.75  1724.92
                             1771.14  1832.10  1850.78  1903.41  1911.98
                             1981.70  2006.94  2024.09  2035.63  2057.35
                             2076.53  2085.49  2131.63  2166.51  2177.10
                             2184.78  2188.70  2201.62  2206.57  2213.34
                             2221.88  2225.80  2227.60  2239.09  2471.04
                             4220.94  4230.97  4300.83  4310.30  4376.21
                             4379.49  4410.19  4414.77  4425.94  4438.36
                             4460.82  4472.14  4482.11  4483.27  4560.40
                             4685.61  4965.89  5046.47  5107.41

 Zero-point correction=                           0.277080 (Hartree/Particle)
 Thermal correction to Energy=                    0.290596
 Thermal correction to Enthalpy=                  0.291540
 Thermal correction to Gibbs Free Energy=         0.236286
 Sum of electronic and zero-point Energies=           -480.274829
 Sum of electronic and thermal Energies=              -480.261313
 Sum of electronic and thermal Enthalpies=            -480.260369
 Sum of electronic and thermal Free Energies=         -480.315623

                     E (Thermal)             CV                S
                      KCal/Mol        Cal/Mol-Kelvin    Cal/Mol-Kelvin
 Total                  182.352             49.197            116.292
 Electronic               0.000              0.000              0.000
 Translational            0.889              2.981             41.066
 Rotational               0.889              2.981             30.913
 Vibrational            180.574             43.235             44.313
 Vibration     1          0.594              1.983              5.591
 Vibration     2          0.596              1.977              4.725
 Vibration     3          0.598              1.969              4.204
 Vibration     4          0.601              1.959              3.742
 Vibration     5          0.604              1.950              3.490
 Vibration     6          0.612              1.922              2.933
 Vibration     7          0.618              1.903              2.676
 Vibration     8          0.649              1.805              1.931
 Vibration     9          0.658              1.777              1.794
 Vibration    10          0.667              1.749              1.672
 Vibration    11          0.690              1.680              1.437
 Vibration    12          0.696              1.664              1.388
 Vibration    13          0.722              1.590              1.199
 Vibration    14          0.728              1.574              1.163
 Vibration    15          0.784              1.423              0.886
 Vibration    16          0.803              1.376              0.816
 Vibration    17          0.839              1.288              0.702
 Vibration    18          0.900              1.150              0.554

                           ! Non-Optimized Parameters !

 1\1\GINC-NODE316\Freq\RB3LYP\6-31G(d)\C8H19N3\VSC10255\08-Dec-2020\0\\
 #N Geom=AllCheck Guess=TCheck SCRF=Check GenChk RB3LYP/6-31G(d) Freq\\
 CID_153172205_JID_1453_neutraal\\0,1\C,-0.4681846003,0.8394781965,-0.2
 569627339\C,0.5061113836,-0.1325936484,-0.9293718743\C,0.5165938565,-0
 .0425801204,-2.4561044351\N,0.9243714093,1.2858747871,-2.9195798959\C,
 1.0856817318,1.3668563032,-4.3822726517\C,2.3982658671,0.7652373895,-4
 .8351911532\C,2.4249018004,-0.443270633,-5.4258483627\N,3.5489326349,1
 .5429193665,-4.6614033196\C,3.6996903817,2.4855216795,-3.5690548814\N,

 Normal termination of Gaussian 16 at Tue Dec  8 20:32:32 2020.

 ----------------------------------------------------------------------
 # B3LYP/6-311++G(d,p) empiricaldispersion=gd3bj scf=xqc pop=npa geom=c
 heck
 ----------------------------------------------------------------------

 ---------------------------------------
 CID_153172205_JID_1453_Energie_neutraal
 ---------------------------------------
 Structure from the checkpoint file:  "JID_1453.chk"
 Charge =  0 Multiplicity = 1

 SCF Done:  E(RB3LYP) =  -480.700006509     A.U. after   13 cycles
 Normal termination of Gaussian 16 at Tue Dec  8 20:37:28 2020.

 ----------------------------------------------------------------------
 # B3LYP/6-311++G(d,p) empiricaldispersion=gd3bj scf=xqc pop=npa geom=c
 heck
 ----------------------------------------------------------------------

 -------------------------------------
 CID_153172205_JID_1453_Energie_kation
 -------------------------------------
 Structure from the checkpoint file:  "JID_1453.chk"
 Charge =  1 Multiplicity = 2

 SCF Done:  E(UB3LYP) =  -480.424566643     A.U. after   21 cycles
 Normal termination of Gaussian 16 at Tue Dec  8 20:45:47 2020.
 Gaussian 16:  ES64L-G16RevA.03 25-Dec-2016

 ------------------------------------
 CID_153172205_JID_1453_Energie_anion
 ------------------------------------
 Structure from the checkpoint file:  "JID_1453.chk"
 Charge = -1 Multiplicity = 2

                         Standard orientation:
 ---------------------------------------------------------------------
 Center     Atomic      Atomic             Coordinates (Angstroms)
 Number     Number       Type             X           Y           Z
 ---------------------------------------------------------------------
      1          6           0        3.598081    0.526039    0.307882
      2          6           0        2.682555   -0.002778   -0.800484
      3          6           0        1.654853   -1.027990   -0.318932
      4          7           0        0.749750   -0.460819    0.683560
      5          6           0       -0.342468   -1.374461    1.063517
      6          6           0       -1.443730   -1.393024    0.025811
      7          6           0       -1.568990   -2.436035   -0.814733
      8          7           0       -2.338439   -0.316678    0.027316
      9          6           0       -1.950740    1.023629    0.424454
     10          7           0       -1.083957    1.679520   -0.547474
     11          6           0       -0.806412    3.062644   -0.178298
     12          1           0        3.035915    1.097682    1.055709
     13          1           0        4.365044    1.194159   -0.098237
     14          1           0        4.111140   -0.295568    0.823800
     15          1           0        2.153755    0.835172   -1.272743
     16          1           0        3.291193   -0.472686   -1.583666
     17          1           0        1.038583   -1.355185   -1.162313
     18          1           0        2.175848   -1.928610    0.061063
     19          1           0        1.280651   -0.227809    1.519328
     20          1           0        0.015306   -2.406819    1.205449
     21          1           0       -0.744601   -1.034888    2.024400
     22          1           0       -2.337293   -2.468902   -1.582883
     23          1           0       -0.920470   -3.299274   -0.724786
     24          1           0       -2.901543   -0.296591   -0.816710
     25          1           0       -2.868467    1.616729    0.519277
     26          1           0       -1.502864    0.970670    1.430505
     27          1           0       -0.207762    1.153869   -0.516471
     28          1           0       -0.378852    3.187614    0.835509
     29          1           0       -0.103972    3.497794   -0.896545
     30          1           0       -1.731966    3.650348   -0.219800
 ---------------------------------------------------------------------

 SCF Done:  E(UB3LYP) =  -480.685033339     A.U. after   30 cycles

 The electronic state is 2-A.
 Alpha  occ. eigenvalues --  -14.21854 -14.19828 -14.18535 -10.11749 -10.10820
 Alpha  occ. eigenvalues --  -10.09642 -10.08560 -10.08144 -10.06416 -10.05119
 Alpha  occ. eigenvalues --  -10.04515  -0.84569  -0.80402  -0.77851  -0.67813
 Alpha  occ. eigenvalues --   -0.65417  -0.59188  -0.57506  -0.54811  -0.52694
 Alpha  occ. eigenvalues --   -0.47879  -0.45924  -0.41072  -0.40040  -0.38112
 Alpha  occ. eigenvalues --   -0.35860  -0.35332  -0.34683  -0.33096  -0.32087
 Alpha  occ. eigenvalues --   -0.31657  -0.30030  -0.28761  -0.28270  -0.27840
 Alpha  occ. eigenvalues --   -0.26536  -0.25639  -0.23620  -0.23536  -0.23321
 Alpha  occ. eigenvalues --   -0.21613  -0.14125  -0.12452  -0.10771   0.04668
 Alpha virt. eigenvalues --    0.07002   0.07319   0.07680   0.09071   0.09194
 Alpha virt. eigenvalues --    0.09731   0.10288   0.10644   0.11095   0.11790
 Alpha virt. eigenvalues --    0.12345   0.12482   0.13327   0.13698   0.14267

  Beta  occ. eigenvalues --  -14.21851 -14.19792 -14.18525 -10.11729 -10.10812
  Beta  occ. eigenvalues --  -10.09617 -10.08547 -10.08116 -10.06405 -10.05066
  Beta  occ. eigenvalues --  -10.04497  -0.84551  -0.80358  -0.77831  -0.67774
  Beta  occ. eigenvalues --   -0.65377  -0.59128  -0.57455  -0.54727  -0.52637
  Beta  occ. eigenvalues --   -0.47796  -0.45887  -0.41044  -0.39976  -0.38073
  Beta  occ. eigenvalues --   -0.35816  -0.35300  -0.34643  -0.33059  -0.32043
  Beta  occ. eigenvalues --   -0.31623  -0.29971  -0.28722  -0.28238  -0.27807
  Beta  occ. eigenvalues --   -0.26501  -0.25600  -0.23563  -0.23499  -0.23284
  Beta  occ. eigenvalues --   -0.21571  -0.14066  -0.12404  -0.10710
  Beta virt. eigenvalues --    0.06960   0.07746   0.07818   0.08317   0.09378
  Beta virt. eigenvalues --    0.09609   0.10198   0.10760   0.10994   0.11370
  Beta virt. eigenvalues --    0.12293   0.12700   0.12893   0.13614   0.14030

 Mulliken charges and spin densities:
               1          2
     1  C    1.731274  -2.279486
     2  C   -1.941458   1.767734
     3  C    0.830205  -1.199483
     4  N   -0.388861   0.292510
     5  C    2.040631  -2.585795
     6  C   -1.293730   1.609238
     7  C   -0.122711  -0.461733
     8  N   -0.098783   0.046709
     9  C   -0.173086  -0.244987
    10  N   -0.241668   0.139810
    11  C    0.496600  -0.854411
    12  H   -0.259951   0.396739
    13  H   -0.571094   0.711536
    14  H   -0.353952   0.498078
    15  H    0.081135   0.032573
    16  H   -0.111456   0.237464
    17  H    0.103230   0.075311
    18  H   -0.105618   0.238510
    19  H    0.075782   0.191860
    20  H   -0.005963   0.152685
    21  H   -0.580201   0.766055
    22  H    0.057078   0.007403
    23  H    0.008130   0.112816
    24  H    0.079911   0.147388
    25  H   -0.301079   0.468451
    26  H    0.093011   0.058686
    27  H    0.445119  -0.195839
    28  H   -0.240598   0.368638
    29  H   -0.180967   0.309878
    30  H   -0.070932   0.191659
 Sum of Mulliken charges =  -1.00000   1.00000

 Dipole moment (field-independent basis, Debye):
    X=             -4.1768    Y=             -2.2004    Z=             -4.1471  Tot=              6.2837
 Quadrupole moment (field-independent basis, Debye-Ang):
   XX=           -136.5419   YY=           -117.7581   ZZ=           -107.2682
   XY=             -2.8058   XZ=             -3.6498   YZ=              2.0794

 Summary of Natural Population Analysis:

                                       Natural Population
                Natural  -----------------------------------------------
    Atom  No    Charge         Core      Valence    Rydberg      Total
 -----------------------------------------------------------------------
      C    1   -0.28892      0.99967     2.28385    0.00540     3.28892
      C    2   -0.19219      0.99964     2.18380    0.00876     3.19219
      C    3   -0.08749      0.99961     2.07661    0.01127     3.08749
      N    4   -0.35187      0.99973     2.83824    0.01390     3.85187
      C    5   -0.10603      0.99957     2.09314    0.01332     3.10603
      C    6    0.09849      0.99950     1.88848    0.01354     2.90151
      C    7   -0.25185      0.99952     2.24555    0.00678     3.25185
      N    8   -0.31848      0.99968     2.80744    0.01136     3.81848
      C    9    0.00859      0.99963     1.97695    0.01484     2.99141
      N   10   -0.35414      0.99974     2.84389    0.01052     3.85414
      C   11   -0.18226      0.99967     2.17391    0.00868     3.18226
      H   12    0.09953      0.00000     0.39861    0.00186     0.40047
      H   13    0.10032      0.00000     0.39812    0.00156     0.39968
      H   14    0.09718      0.00000     0.40103    0.00180     0.40282
      H   15    0.09428      0.00000     0.40414    0.00158     0.40572
      H   16    0.09394      0.00000     0.40512    0.00094     0.40606
      H   17    0.09732      0.00000     0.40090    0.00178     0.40268
      H   18    0.07838      0.00000     0.42017    0.00145     0.42162
      H   19    0.18379      0.00000     0.31094    0.00527     0.31621
      H   20    0.08971      0.00000     0.40871    0.00158     0.41029
      H   21    0.10411      0.00000     0.39407    0.00182     0.39589
      H   22    0.08925      0.00000     0.40973    0.00102     0.41075
      H   23    0.09647      0.00000     0.40264    0.00089     0.40353
      H   24    0.17957      0.00000     0.31787    0.00256     0.32043
      H   25    0.08813      0.00000     0.41047    0.00141     0.41187
      H   26    0.08358      0.00000     0.41465    0.00177     0.41642
      H   27    0.18595      0.00000     0.30821    0.00584     0.31405
      H   28    0.08222      0.00000     0.41631    0.00147     0.41778
      H   29    0.09464      0.00000     0.40430    0.00106     0.40536
      H   30    0.08780      0.00000     0.41090    0.00130     0.41220
 =======================================================================
   * Total *    0.00000     10.99594    32.84874    0.15531    44.00000

 Normal termination of Gaussian 16 at Tue Dec  8 20:55:35 2020.
