 Gaussian 16, Revision A.03,

 -----------------------------------------------------------
 # opt freq B3LYP/6-31G(d) empiricaldispersion=gd3bj scf=xqc
 -----------------------------------------------------------

 -------------------------------
 CID_105651556_JID_8942_neutraal
 -------------------------------
 Symbolic Z-matrix:
 Charge =  0 Multiplicity = 1

 SCF Done:  E(RB3LYP) =  -908.078298465     A.U. after   16 cycles
 SCF Done:  E(RB3LYP) =  -908.085963906     A.U. after   15 cycles
 SCF Done:  E(RB3LYP) =  -908.082801213     A.U. after   17 cycles
 SCF Done:  E(RB3LYP) =  -908.091941721     A.U. after   15 cycles
 SCF Done:  E(RB3LYP) =  -908.095313524     A.U. after   17 cycles
 SCF Done:  E(RB3LYP) =  -908.096492218     A.U. after   15 cycles
 SCF Done:  E(RB3LYP) =  -908.096750585     A.U. after   14 cycles
 SCF Done:  E(RB3LYP) =  -908.096815193     A.U. after   13 cycles
 SCF Done:  E(RB3LYP) =  -908.096850400     A.U. after   12 cycles
 SCF Done:  E(RB3LYP) =  -908.096860140     A.U. after   11 cycles
 SCF Done:  E(RB3LYP) =  -908.096865628     A.U. after    8 cycles
 SCF Done:  E(RB3LYP) =  -908.096865737     A.U. after    8 cycles
 SCF Done:  E(RB3LYP) =  -908.096865811     A.U. after    8 cycles
 SCF Done:  E(RB3LYP) =  -908.096865837     A.U. after    8 cycles
 SCF Done:  E(RB3LYP) =  -908.096865845     A.U. after    7 cycles
 SCF Done:  E(RB3LYP) =  -908.096865847     A.U. after    7 cycles
 Optimization completed.
    -- Stationary point found.
 Normal termination of Gaussian 16 at Fri Dec 11 21:41:25 2020.

 --------------------------------------------------------------------
 #N Geom=AllCheck Guess=TCheck SCRF=Check GenChk RB3LYP/6-31G(d) Freq
 --------------------------------------------------------------------

 Structure from the checkpoint file:  "JID_8942.chk"
 -------------------------------
 CID_105651556_JID_8942_neutraal
 -------------------------------
 Charge =  0 Multiplicity = 1

 SCF Done:  E(RB3LYP) =  -908.096865848     A.U. after    1 cycles

  Exact polarizability: 236.206  -0.415 151.150  12.338  12.835  84.342
 Approx polarizability: 331.450  -0.409 281.231  28.314  37.572 128.783

                      1                      2                      3
                      A                      A                      A
 Frequencies --     24.7838                30.8258                40.8802
 Red. masses --      4.5008                 5.1426                12.7197
 Frc consts  --      0.0016                 0.0029                 0.0125
 IR Inten    --      0.1706                 2.9046                 0.2662

                      4                      5                      6
                      A                      A                      A
 Frequencies --     48.4911                65.9673                94.1535
 Red. masses --      4.1244                 4.3667                 4.4550
 Frc consts  --      0.0057                 0.0112                 0.0233
 IR Inten    --      2.5916                 1.2704                 1.1314

                      7                      8                      9
                      A                      A                      A
 Frequencies --     97.6432               138.4276               149.2744
 Red. masses --      5.1239                 5.2348                 7.0002
 Frc consts  --      0.0288                 0.0591                 0.0919
 IR Inten    --      1.5926                 0.4267                 2.5731

                     10                     11                     12
                      A                      A                      A
 Frequencies --    166.2959               189.4705               211.6594
 Red. masses --      7.3138                 1.2073                 5.8501
 Frc consts  --      0.1192                 0.0255                 0.1544
 IR Inten    --      0.9014                 0.8300                 4.2238

                     13                     14                     15
                      A                      A                      A
 Frequencies --    237.2232               260.8316               272.6571
 Red. masses --      5.4687                 2.4138                 3.9860
 Frc consts  --      0.1813                 0.0968                 0.1746
 IR Inten    --      1.0823                52.7377                 9.5904

                     16                     17                     18
                      A                      A                      A
 Frequencies --    294.7943               329.8955               369.3764
 Red. masses --      1.3874                 6.5325                 4.9100
 Frc consts  --      0.0710                 0.4189                 0.3947
 IR Inten    --     64.6074                 2.5717                 9.7028

                     19                     20                     21
                      A                      A                      A
 Frequencies --    395.7666               410.7157               443.6640
 Red. masses --      7.5280                 3.7476                 2.7266
 Frc consts  --      0.6947                 0.3725                 0.3162
 IR Inten    --      5.6896                 3.3684                 1.0523

                     22                     23                     24
                      A                      A                      A
 Frequencies --    448.3619               467.7739               530.5533
 Red. masses --      9.4793                 3.7081                 4.7133
 Frc consts  --      1.1228                 0.4781                 0.7817
 IR Inten    --      3.1784                 2.8902                20.2500

                     25                     26                     27
                      A                      A                      A
 Frequencies --    547.7234               597.6099               630.9865
 Red. masses --      7.5711                 3.4509                 1.2880
 Frc consts  --      1.3382                 0.7261                 0.3021
 IR Inten    --      2.6070                21.2413                87.4398

                     28                     29                     30
                      A                      A                      A
 Frequencies --    658.1912               679.3426               688.8860
 Red. masses --      5.4005                 5.8801                 5.1317
 Frc consts  --      1.3785                 1.5989                 1.4349
 IR Inten    --     14.1555                12.3188                10.3443

                     31                     32                     33
                      A                      A                      A
 Frequencies --    727.6896               768.3658               773.8222
 Red. masses --      5.3586                 5.0199                 9.5760
 Frc consts  --      1.6718                 1.7462                 3.3784
 IR Inten    --      3.4288                10.4925                19.3205

                     34                     35                     36
                      A                      A                      A
 Frequencies --    838.2357               844.8749               861.9225
 Red. masses --      1.7013                 4.4486                 3.6447
 Frc consts  --      0.7043                 1.8709                 1.5953
 IR Inten    --     21.3180                38.8925                 2.4561

                     37                     38                     39
                      A                      A                      A
 Frequencies --    933.4332               966.0478               991.0235
 Red. masses --      2.8250                 3.9694                 2.3802
 Frc consts  --      1.4502                 2.1826                 1.3773
 IR Inten    --      0.3485                31.1607                 4.2474

                     40                     41                     42
                      A                      A                      A
 Frequencies --   1002.8602              1020.1638              1096.7482
 Red. masses --      1.3024                 2.6518                 3.0385
 Frc consts  --      0.7718                 1.6260                 2.1534
 IR Inten    --      1.3698                37.3819                74.6637

                     43                     44                     45
                      A                      A                      A
 Frequencies --   1105.5033              1133.5789              1158.5628
 Red. masses --      2.5415                 3.2181                 2.3936
 Frc consts  --      1.8301                 2.4364                 1.8929
 IR Inten    --     15.2766                60.8234               195.4301

                     46                     47                     48
                      A                      A                      A
 Frequencies --   1181.2678              1194.9131              1207.7752
 Red. masses --      2.3407                 1.2570                 1.6147
 Frc consts  --      1.9244                 1.0575                 1.3877
 IR Inten    --      4.8135                 1.2821                 0.4944

                     49                     50                     51
                      A                      A                      A
 Frequencies --   1224.3857              1228.8143              1245.1798
 Red. masses --      1.6952                 2.5125                 1.3881
 Frc consts  --      1.4973                 2.2353                 1.2680
 IR Inten    --    130.8295                 8.4454                47.7247

                     52                     53                     54
                      A                      A                      A
 Frequencies --   1282.4559              1310.5018              1319.0733
 Red. masses --      1.2294                 1.4417                 1.3434
 Frc consts  --      1.1913                 1.4588                 1.3771
 IR Inten    --      8.3236                41.4656                19.2257

                     55                     56                     57
                      A                      A                      A
 Frequencies --   1361.3315              1383.6771              1384.1873
 Red. masses --      1.6188                 2.6672                11.7592
 Frc consts  --      1.7676                 3.0087                13.2745
 IR Inten    --      5.7672                32.2087               754.1350

                     58                     59                     60
                      A                      A                      A
 Frequencies --   1408.0799              1424.6242              1430.6073
 Red. masses --      1.6978                 1.3418                 3.4482
 Frc consts  --      1.9833                 1.6045                 4.1580
 IR Inten    --      6.6273                 3.8321                51.7204

                     61                     62                     63
                      A                      A                      A
 Frequencies --   1467.9300              1482.2719              1501.3791
 Red. masses --      1.5065                 3.0413                 1.1323
 Frc consts  --      1.9126                 3.9370                 1.5038
 IR Inten    --      5.4929                45.7568                 1.9619

                     64                     65                     66
                      A                      A                      A
 Frequencies --   1518.8352              1534.8673              1544.4026
 Red. masses --      1.0610                 1.0760                 1.0822
 Frc consts  --      1.4421                 1.4935                 1.5209
 IR Inten    --      3.9546                 4.9949                 9.6728

                     67                     68                     69
                      A                      A                      A
 Frequencies --   1548.0745              1576.3332              1597.1134
 Red. masses --      1.0773                 3.2425                 7.3306
 Frc consts  --      1.5211                 4.7470                11.0170
 IR Inten    --     10.0511               189.2836                64.0158

                     70                     71                     72
                      A                      A                      A
 Frequencies --   1646.1974              1657.7221              2363.0625
 Red. masses --      8.7566                 7.7315                12.6861
 Frc consts  --     13.9814                12.5180                41.7377
 IR Inten    --    443.2249               529.5844                 0.9178

                     73                     74                     75
                      A                      A                      A
 Frequencies --   3011.6436              3033.6915              3044.3037
 Red. masses --      1.0351                 1.0597                 1.0594
 Frc consts  --      5.5317                 5.7462                 5.7846
 IR Inten    --     73.3967                42.4491                32.2841

                     76                     77                     78
                      A                      A                      A
 Frequencies --   3066.3633              3075.7038              3083.4061
 Red. masses --      1.1057                 1.0865                 1.1053
 Frc consts  --      6.1255                 6.0559                 6.1917
 IR Inten    --     50.0669                13.8897                42.3585

                     79                     80                     81
                      A                      A                      A
 Frequencies --   3099.7287              3142.5810              3232.8869
 Red. masses --      1.1043                 1.0996                 1.0899
 Frc consts  --      6.2515                 6.3980                 6.7112
 IR Inten    --     24.7645                31.6668                 5.7259

                     82                     83                     84
                      A                      A                      A
 Frequencies --   3256.7348              3589.4021              3771.0806
 Red. masses --      1.0937                 1.0759                 1.0668
 Frc consts  --      6.8348                 8.1671                 8.9383
 IR Inten    --      3.5100               111.6874                40.5928

 - Thermochemistry -
 -------------------
 Temperature   298.150 Kelvin.  Pressure   1.00000 Atm.
 Atom     1 has atomic number  6 and mass  12.00000

 Molecular mass:   252.08586 amu.
 Principal axes and moments of inertia in atomic units:
                           1         2         3
     Eigenvalues --  2003.82449********************
           X            0.99999  -0.00112  -0.00391
           Y            0.00106   0.99987  -0.01607
           Z            0.00393   0.01607   0.99986
 This molecule is an asymmetric top.
 Rotational symmetry number  1.
 Warning -- assumption of classical behavior for rotation
           may cause significant error
 Rotational temperatures (Kelvin)      0.04322     0.00863     0.00762
 Rotational constants (GHZ):           0.90065     0.17989     0.15877
 Zero-point vibrational energy     605176.7 (Joules/Mol)
                                  144.64071 (Kcal/Mol)
 Warning -- explicit consideration of  26 degrees of freedom as
           vibrations may cause significant error
 Vibrational temperatures:     35.66    44.35    58.82    69.77    94.91
          (Kelvin)            135.47   140.49   199.17   214.77   239.26
                              272.61   304.53   341.31   375.28   392.29
                              424.14   474.65   531.45   569.42   590.93
                              638.33   645.09   673.02   763.35   788.05
                              859.83   907.85   946.99   977.42   991.15
                             1046.98  1105.51  1113.36  1206.03  1215.59
                             1240.11  1343.00  1389.93  1425.86  1442.89
                             1467.79  1577.98  1590.57  1630.97  1666.91
                             1699.58  1719.21  1737.72  1761.62  1767.99
                             1791.54  1845.17  1885.52  1897.85  1958.65
                             1990.80  1991.54  2025.91  2049.72  2058.32
                             2112.02  2132.66  2160.15  2185.27  2208.33
                             2222.05  2227.33  2267.99  2297.89  2368.51
                             2385.09  3399.92  4333.08  4364.81  4380.07
                             4411.81  4425.25  4436.33  4459.82  4521.47
                             4651.40  4685.71  5164.35  5425.74

 Zero-point correction=                           0.230500 (Hartree/Particle)
 Thermal correction to Energy=                    0.248147
 Thermal correction to Enthalpy=                  0.249091
 Thermal correction to Gibbs Free Energy=         0.182307
 Sum of electronic and zero-point Energies=           -907.866366
 Sum of electronic and thermal Energies=              -907.848719
 Sum of electronic and thermal Enthalpies=            -907.847774
 Sum of electronic and thermal Free Energies=         -907.914559

                     E (Thermal)             CV                S
                      KCal/Mol        Cal/Mol-Kelvin    Cal/Mol-Kelvin
 Total                  155.715             63.072            140.559
 Electronic               0.000              0.000              0.000
 Translational            0.889              2.981             42.474
 Rotational               0.889              2.981             33.790
 Vibrational            153.937             57.111             64.295
 Vibration     1          0.593              1.985              6.208
 Vibration     2          0.594              1.984              5.776
 Vibration     3          0.594              1.981              5.216
 Vibration     4          0.595              1.978              4.878
 Vibration     5          0.597              1.971              4.270
 Vibration     6          0.603              1.953              3.572
 Vibration     7          0.603              1.951              3.501
 Vibration     8          0.614              1.915              2.825
 Vibration     9          0.618              1.903              2.681
 Vibration    10          0.624              1.884              2.477
 Vibration    11          0.633              1.854              2.233
 Vibration    12          0.643              1.823              2.029
 Vibration    13          0.656              1.784              1.824
 Vibration    14          0.669              1.744              1.656
 Vibration    15          0.676              1.724              1.579
 Vibration    16          0.689              1.683              1.446
 Vibration    17          0.713              1.616              1.261
 Vibration    18          0.742              1.535              1.082
 Vibration    19          0.762              1.479              0.978
 Vibration    20          0.775              1.447              0.924
 Vibration    21          0.803              1.375              0.815
 Vibration    22          0.807              1.365              0.801
 Vibration    23          0.825              1.322              0.744
 Vibration    24          0.886              1.182              0.586
 Vibration    25          0.903              1.145              0.549
 Vibration    26          0.956              1.037              0.454

                           ! Non-Optimized Parameters !
 Normal termination of Gaussian 16 at Fri Dec 11 21:51:09 2020.

 ----------------------------------------------------------------------
 # B3LYP/6-311++G(d,p) empiricaldispersion=gd3bj scf=xqc pop=npa geom=c
 heck
 ----------------------------------------------------------------------

 ---------------------------------------
 CID_105651556_JID_8942_Energie_neutraal
 ---------------------------------------
 Structure from the checkpoint file:  "JID_8942.chk"
 Charge =  0 Multiplicity = 1

 SCF Done:  E(RB3LYP) =  -908.366461542     A.U. after   17 cycles
 Normal termination of Gaussian 16 at Fri Dec 11 21:56:10 2020.

 ----------------------------------------------------------------------
 # B3LYP/6-311++G(d,p) empiricaldispersion=gd3bj scf=xqc pop=npa geom=c
 heck
 ----------------------------------------------------------------------

 -------------------------------------
 CID_105651556_JID_8942_Energie_kation
 -------------------------------------
 Structure from the checkpoint file:  "JID_8942.chk"
 Charge =  1 Multiplicity = 2

 SCF Done:  E(UB3LYP) =  -908.052801706     A.U. after   29 cycles
 Normal termination of Gaussian 16 at Fri Dec 11 22:08:56 2020.
 Gaussian 16:  ES64L-G16RevA.03 25-Dec-2016

 ----------------------------------------------------------------------
 # B3LYP/6-311++G(d,p) empiricaldispersion=gd3bj scf=xqc pop=npa geom=c
 heck
 ----------------------------------------------------------------------

 ------------------------------------
 CID_105651556_JID_8942_Energie_anion
 ------------------------------------
 Structure from the checkpoint file:  "JID_8942.chk"
 Charge = -1 Multiplicity = 2

                         Standard orientation:
 ---------------------------------------------------------------------
 Center     Atomic      Atomic             Coordinates (Angstroms)
 Number     Number       Type             X           Y           Z
 ---------------------------------------------------------------------
      1          6           0       -5.237826   -1.027452    1.171805
      2          8           0       -4.093681   -1.481304    0.466225
      3          6           0       -2.931524   -0.705392    0.695392
      4          6           0       -2.475736   -0.046421   -0.620457
      5          6           0       -3.543250    0.875178   -1.197780
      6          8           0       -3.735056    1.932249   -0.258280
      7          7           0       -1.261836    0.725457   -0.418846
      8          6           0       -0.002471    0.238751   -0.313732
      9          7           0        0.933118    1.147333    0.032354
     10          6           0        2.208075    0.766964    0.131201
     11          6           0        2.617131   -0.555919   -0.111215
     12          6           0        1.644852   -1.500737   -0.462794
     13          6           0        0.327151   -1.119279   -0.566058
     14          7           0        4.000432   -0.981995   -0.006642
     15          8           0        4.246769   -2.169864   -0.233429
     16          8           0        4.842245   -0.137914    0.299489
     17          6           0        3.103128    1.835390    0.509016
     18          7           0        3.709210    2.777371    0.815839
     19          1           0       -6.074974   -1.652645    0.851436
     20          1           0       -5.460712    0.024929    0.946212
     21          1           0       -5.109799   -1.133841    2.258856
     22          1           0       -3.105750    0.078138    1.441450
     23          1           0       -2.132158   -1.357510    1.070731
     24          1           0       -2.290468   -0.831519   -1.362033
     25          1           0       -3.200516    1.263258   -2.166798
     26          1           0       -4.461844    0.295861   -1.351614
     27          1           0       -4.306046    2.602669   -0.660986
     28          1           0       -1.386161    1.685584   -0.118075
     29          1           0        1.957527   -2.521418   -0.643764
     30          1           0       -0.434962   -1.842509   -0.828654
 ---------------------------------------------------------------------

 SCF Done:  E(UB3LYP) =  -908.416089726     A.U. after   25 cycles

 The electronic state is 2-A.
 Alpha  occ. eigenvalues --  -19.07482 -19.06080 -18.95800 -18.95589 -14.34100
 Alpha  occ. eigenvalues --  -14.22490 -14.18457 -14.15408 -10.15872 -10.15457
 Alpha  occ. eigenvalues --  -10.14141 -10.13774 -10.12698 -10.09660 -10.07563
 Alpha  occ. eigenvalues --  -10.07046 -10.06315 -10.05839  -1.03857  -0.97747
 Alpha  occ. eigenvalues --   -0.97050  -0.86836  -0.86658  -0.80898  -0.75162
 Alpha  occ. eigenvalues --   -0.70804  -0.69361  -0.65655  -0.64255  -0.59087
 Alpha  occ. eigenvalues --   -0.56865  -0.53758  -0.52127  -0.48081  -0.46828
 Alpha  occ. eigenvalues --   -0.44542  -0.42935  -0.42003  -0.41093  -0.40369
 Alpha  occ. eigenvalues --   -0.37921  -0.37624  -0.36736  -0.36244  -0.35460
 Alpha  occ. eigenvalues --   -0.33764  -0.33499  -0.32090  -0.31465  -0.30145
 Alpha  occ. eigenvalues --   -0.29232  -0.28172  -0.28006  -0.25830  -0.23263
 Alpha  occ. eigenvalues --   -0.22967  -0.22086  -0.20437  -0.18824  -0.18790
 Alpha  occ. eigenvalues --   -0.16110  -0.15704  -0.14476  -0.13084  -0.11109
 Alpha  occ. eigenvalues --   -0.10737   0.01402
 Alpha virt. eigenvalues --    0.03783   0.05679   0.06682   0.07268   0.08053
 Alpha virt. eigenvalues --    0.09076   0.09561   0.09829   0.10967   0.11394
 Alpha virt. eigenvalues --    0.12712   0.12815   0.13278   0.13825   0.14104

  Beta  occ. eigenvalues --  -19.07481 -19.06077 -18.95400 -18.95133 -14.33599
  Beta  occ. eigenvalues --  -14.22421 -14.18505 -14.15128 -10.15870 -10.15456
  Beta  occ. eigenvalues --  -10.14132 -10.13778 -10.12506 -10.09275 -10.07485
  Beta  occ. eigenvalues --  -10.07036 -10.06323 -10.05916  -1.02970  -0.97743
  Beta  occ. eigenvalues --   -0.97045  -0.86608  -0.85865  -0.80674  -0.74769
  Beta  occ. eigenvalues --   -0.70626  -0.69209  -0.65433  -0.64014  -0.58985
  Beta  occ. eigenvalues --   -0.56233  -0.53546  -0.51964  -0.47876  -0.46576
  Beta  occ. eigenvalues --   -0.44459  -0.42893  -0.41992  -0.41052  -0.40197
  Beta  occ. eigenvalues --   -0.37710  -0.37311  -0.36551  -0.35379  -0.33821
  Beta  occ. eigenvalues --   -0.33674  -0.33304  -0.31667  -0.31127  -0.29987
  Beta  occ. eigenvalues --   -0.28649  -0.28023  -0.27977  -0.25796  -0.22980
  Beta  occ. eigenvalues --   -0.22229  -0.21661  -0.20173  -0.18659  -0.18388
  Beta  occ. eigenvalues --   -0.15659  -0.15325  -0.12703  -0.11515  -0.10691
  Beta  occ. eigenvalues --   -0.09700
  Beta virt. eigenvalues --    0.03771   0.05665   0.06675   0.07770   0.08021
  Beta virt. eigenvalues --    0.08388   0.09071   0.09560   0.09824   0.10959
  Beta virt. eigenvalues --    0.11398   0.12699   0.13270   0.13280   0.14033

 Mulliken charges and spin densities:
               1          2
     1  C   -0.288187  -0.000115
     2  O   -0.086356   0.000265
     3  C   -0.493138   0.002237
     4  C   -0.070432   0.004264
     5  C   -0.550722  -0.009070
     6  O   -0.272525  -0.000221
     7  N    0.067719   0.034602
     8  C   -0.365418   0.098254
     9  N   -0.047831  -0.041634
    10  C    0.809691   0.289135
    11  C   -0.480726  -0.003385
    12  C   -0.214546   0.036481
    13  C    0.249858   0.022884
    14  N   -0.388354   0.165877
    15  O   -0.136689   0.169078
    16  O   -0.122319   0.152043
    17  C   -0.510953  -0.067863
    18  N   -0.346512   0.140272
    19  H    0.138303   0.000013
    20  H    0.144222   0.000417
    21  H    0.126377   0.000099
    22  H    0.211344   0.000450
    23  H    0.179541   0.001730
    24  H    0.171695   0.000297
    25  H    0.164845   0.005738
    26  H    0.177587   0.002124
    27  H    0.256322   0.000490
    28  H    0.297389  -0.001620
    29  H    0.230842  -0.001572
    30  H    0.148971  -0.001269
 Sum of Mulliken charges =  -1.00000   1.00000

 Dipole moment (field-independent basis, Debye):
    X=            -20.8238    Y=             -1.0678    Z=             -2.2328  Tot=             20.9704
 Quadrupole moment (field-independent basis, Debye-Ang):
   XX=           -189.8455   YY=           -135.3621   ZZ=           -108.3812
   XY=            -11.7403   XZ=             -3.6772   YZ=             -8.2205

 Summary of Natural Population Analysis:

                                       Natural Population
                Natural  -----------------------------------------------
    Atom  No    Charge         Core      Valence    Rydberg      Total
 -----------------------------------------------------------------------
      C    1   -0.09910      0.99963     2.09083    0.00864     3.09910
      O    2   -0.30582      0.99988     3.29534    0.01059     4.30582
      C    3   -0.01423      0.99956     2.00381    0.01086     3.01423
      C    4   -0.02680      0.99960     2.01577    0.01143     3.02680
      C    5   -0.01413      0.99957     2.00410    0.01046     3.01413
      O    6   -0.37492      0.99989     3.36897    0.00606     4.37492
      N    7   -0.31101      0.99965     2.79751    0.01385     3.81101
      C    8    0.23563      0.99955     1.75185    0.01297     2.76437
      N    9   -0.25797      0.99966     2.74827    0.01004     3.75797
      C   10    0.12164      0.99941     1.86581    0.01314     2.87836
      C   11    0.02963      0.99938     1.95710    0.01389     2.97037
      C   12   -0.06779      0.99955     2.05879    0.00945     3.06779
      C   13   -0.16503      0.99953     2.15798    0.00751     3.16503
      N   14    0.29207      0.99971     2.18255    0.02567     3.20793
      O   15   -0.19700      0.99990     3.18961    0.00749     4.19700
      O   16   -0.18166      0.99990     3.17300    0.00876     4.18166
      C   17    0.13782      0.99963     1.84416    0.01839     2.86218
      N   18   -0.14076      0.99978     2.62976    0.01123     3.64076
      H   19    0.08692      0.00000     0.41228    0.00081     0.41308
      H   20    0.08088      0.00000     0.41762    0.00150     0.41912
      H   21    0.07820      0.00000     0.42060    0.00120     0.42180
      H   22    0.08825      0.00000     0.41057    0.00118     0.41175
      H   23    0.09440      0.00000     0.40449    0.00111     0.40560
      H   24    0.10121      0.00000     0.39712    0.00166     0.39879
      H   25    0.08419      0.00000     0.41455    0.00127     0.41581
      H   26    0.08214      0.00000     0.41643    0.00143     0.41786
      H   27    0.22948      0.00000     0.26798    0.00254     0.27052
      H   28    0.20075      0.00000     0.29749    0.00176     0.29925
      H   29    0.11659      0.00000     0.38221    0.00120     0.38341
      H   30    0.09643      0.00000     0.40220    0.00136     0.40357
 =======================================================================
   * Total *   -0.00000     17.99377    47.77874    0.22749    66.00000

 Normal termination of Gaussian 16 at Fri Dec 11 22:20:07 2020.
