 Gaussian 16, Revision A.03,

 -----------------------------------------------------------
 # opt freq B3LYP/6-31G(d) empiricaldispersion=gd3bj scf=xqc
 -----------------------------------------------------------

 ------------------------------
 CID_88983490_JID_3862_neutraal
 ------------------------------
 Symbolic Z-matrix:
 Charge =  0 Multiplicity = 1

 SCF Done:  E(RB3LYP) =  -880.006121881     A.U. after   15 cycles
 SCF Done:  E(RB3LYP) =  -880.010684052     A.U. after   12 cycles
 SCF Done:  E(RB3LYP) =  -880.011144941     A.U. after   11 cycles
 SCF Done:  E(RB3LYP) =  -880.011208404     A.U. after   11 cycles
 SCF Done:  E(RB3LYP) =  -880.011221740     A.U. after    9 cycles
 SCF Done:  E(RB3LYP) =  -880.011227831     A.U. after    9 cycles
 SCF Done:  E(RB3LYP) =  -880.011230298     A.U. after    8 cycles
 SCF Done:  E(RB3LYP) =  -880.011232903     A.U. after    9 cycles
 SCF Done:  E(RB3LYP) =  -880.011233163     A.U. after    7 cycles
 Optimization completed.
    -- Stationary point found.
 Normal termination of Gaussian 16 at Sun Dec 13 12:19:24 2020.

 --------------------------------------------------------------------
 #N Geom=AllCheck Guess=TCheck SCRF=Check GenChk RB3LYP/6-31G(d) Freq
 --------------------------------------------------------------------

 Structure from the checkpoint file:  "JID_3862.chk"
 ------------------------------
 CID_88983490_JID_3862_neutraal
 ------------------------------
 Charge =  0 Multiplicity = 1

 SCF Done:  E(RB3LYP) =  -880.011233163     A.U. after    1 cycles

  Exact polarizability: 169.135  -2.626 155.680   0.003   0.004  76.065
 Approx polarizability: 254.258  -2.434 286.595   0.007   0.014 113.248

                      1                      2                      3
                      A                      A                      A
 Frequencies --     47.2516                77.2039               148.5270
 Red. masses --      3.1938                 3.0962                 1.0641
 Frc consts  --      0.0042                 0.0109                 0.0138
 IR Inten    --      0.1304                 0.6069                 0.0907

                      4                      5                      6
                      A                      A                      A
 Frequencies --    166.8508               170.3918               193.9602
 Red. masses --      3.7326                 2.9866                 3.3797
 Frc consts  --      0.0612                 0.0511                 0.0749
 IR Inten    --      0.9552                 0.1848                 0.2884

                      7                      8                      9
                      A                      A                      A
 Frequencies --    227.6157               229.2977               246.1900
 Red. masses --      1.2203                 1.5107                 1.6534
 Frc consts  --      0.0372                 0.0468                 0.0590
 IR Inten    --      0.0046                 0.5748                 0.1640

                     10                     11                     12
                      A                      A                      A
 Frequencies --    259.7012               300.5923               336.9338
 Red. masses --      3.9312                 2.7534                 3.9090
 Frc consts  --      0.1562                 0.1466                 0.2615
 IR Inten    --      1.0789                 0.3803                 5.3301

                     13                     14                     15
                      A                      A                      A
 Frequencies --    387.1918               487.7291               493.7731
 Red. masses --      3.7826                 4.7784                 5.2741
 Frc consts  --      0.3341                 0.6697                 0.7576
 IR Inten    --      0.3038                 1.1025                 1.4788

                     16                     17                     18
                      A                      A                      A
 Frequencies --    498.4772               548.3500               559.3973
 Red. masses --      4.0043                 5.9489                 3.5525
 Frc consts  --      0.5862                 1.0539                 0.6550
 IR Inten    --      2.7548                 2.0081                 1.8232

                     19                     20                     21
                      A                      A                      A
 Frequencies --    563.0300               626.9783               680.8313
 Red. masses --      5.4925                 3.5494                 4.7312
 Frc consts  --      1.0258                 0.8221                 1.2921
 IR Inten    --      0.0554                 4.5523                 0.0697

                     22                     23                     24
                      A                      A                      A
 Frequencies --    778.2185               780.6675               808.3871
 Red. masses --      7.2681                 2.1252                 1.9304
 Frc consts  --      2.5934                 0.7631                 0.7433
 IR Inten    --      2.1707                 6.8088                 8.6432

                     25                     26                     27
                      A                      A                      A
 Frequencies --    847.6664               848.2987               864.0234
 Red. masses --      1.4286                 4.0746                 3.2166
 Frc consts  --      0.6048                 1.7276                 1.4148
 IR Inten    --     25.2778                12.8112                 5.7909

                     28                     29                     30
                      A                      A                      A
 Frequencies --    937.7790               947.7649               968.2895
 Red. masses --      2.7627                 1.1910                 1.3397
 Frc consts  --      1.4315                 0.6303                 0.7401
 IR Inten    --      4.9389                 1.1728                 0.0757

                     31                     32                     33
                      A                      A                      A
 Frequencies --    979.0957              1024.8575              1058.8173
 Red. masses --      1.4657                 1.5838                 3.8962
 Frc consts  --      0.8279                 0.9801                 2.5735
 IR Inten    --      0.0000                 8.4697                32.7096

                     34                     35                     36
                      A                      A                      A
 Frequencies --   1079.2672              1109.6441              1129.6790
 Red. masses --      1.4859                 2.1708                 1.8846
 Frc consts  --      1.0197                 1.5749                 1.4170
 IR Inten    --      1.4462                23.5579                 4.0911

                     37                     38                     39
                      A                      A                      A
 Frequencies --   1133.1314              1175.2246              1200.8525
 Red. masses --      2.4401                 2.0954                 1.8008
 Frc consts  --      1.8459                 1.7051                 1.5300
 IR Inten    --      0.5888                 7.8657                 4.7010

                     40                     41                     42
                      A                      A                      A
 Frequencies --   1236.8615              1265.3523              1322.8059
 Red. masses --      1.6547                 1.7090                 8.4933
 Frc consts  --      1.4914                 1.6122                 8.7563
 IR Inten    --      0.8001                 0.3529                 0.8272

                     43                     44                     45
                      A                      A                      A
 Frequencies --   1374.4961              1374.8425              1400.3297
 Red. masses --      1.9257                 1.2982                 3.6108
 Frc consts  --      2.1435                 1.4457                 4.1717
 IR Inten    --      2.4443                 1.2286                10.8075

                     46                     47                     48
                      A                      A                      A
 Frequencies --   1423.3457              1429.2491              1444.7928
 Red. masses --      2.2790                 1.2221                 1.2675
 Frc consts  --      2.7202                 1.4709                 1.5588
 IR Inten    --     26.6084                 4.0867                 0.2472

                     49                     50                     51
                      A                      A                      A
 Frequencies --   1448.9226              1495.5818              1510.4232
 Red. masses --      1.2712                 2.6600                 1.0432
 Frc consts  --      1.5723                 3.5055                 1.4022
 IR Inten    --      6.4924                11.5473                 7.1680

                     52                     53                     54
                      A                      A                      A
 Frequencies --   1518.6769              1519.2545              1523.2296
 Red. masses --      1.0447                 1.1404                 1.0476
 Frc consts  --      1.4196                 1.5509                 1.4321
 IR Inten    --      0.0272                 7.5988                 0.9906

                     55                     56                     57
                      A                      A                      A
 Frequencies --   1533.7326              1540.8601              1577.0311
 Red. masses --      1.0486                 1.0894                 5.0825
 Frc consts  --      1.4534                 1.5239                 7.4474
 IR Inten    --      8.1088                 6.4125                26.5893

                     58                     59                     60
                      A                      A                      A
 Frequencies --   1616.6943              1634.1926              3042.5010
 Red. masses --      6.6270                 5.8715                 1.0378
 Frc consts  --     10.2052                 9.2386                 5.6603
 IR Inten    --     28.0740                14.0256                30.3960

                     61                     62                     63
                      A                      A                      A
 Frequencies --   3051.0406              3054.8111              3077.1180
 Red. masses --      1.0348                 1.0354                 1.0858
 Frc consts  --      5.6755                 5.6930                 6.0572
 IR Inten    --     25.9463                24.7946                 2.5292

                     64                     65                     66
                      A                      A                      A
 Frequencies --   3092.5827              3117.1707              3121.5279
 Red. masses --      1.1010                 1.1022                 1.1020
 Frc consts  --      6.2044                 6.3098                 6.3265
 IR Inten    --     17.8418                 3.5518                58.2466

                     67                     68                     69
                      A                      A                      A
 Frequencies --   3125.7426              3130.1920              3133.5610
 Red. masses --      1.1030                 1.1008                 1.1002
 Frc consts  --      6.3494                 6.3547                 6.3647
 IR Inten    --     15.9483                45.1044                16.9199

                     70                     71                     72
                      A                      A                      A
 Frequencies --   3176.8947              3210.0964              3252.8813
 Red. masses --      1.0886                 1.0939                 1.0939
 Frc consts  --      6.4734                 6.6414                 6.8197
 IR Inten    --     27.2088                20.4487                 1.9584

 - Thermochemistry -
 -------------------
 Temperature   298.150 Kelvin.  Pressure   1.00000 Atm.
 Atom     1 has atomic number  6 and mass  12.00000

 Molecular mass:   191.07687 amu.
 Principal axes and moments of inertia in atomic units:
                           1         2         3
     Eigenvalues --  1585.270322951.621834130.23921
           X            0.99962  -0.02739  -0.00000
           Y            0.02739   0.99962  -0.00001
           Z            0.00000   0.00001   1.00000
 This molecule is an asymmetric top.
 Rotational symmetry number  1.
 Warning -- assumption of classical behavior for rotation
           may cause significant error
 Rotational temperatures (Kelvin)      0.05464     0.02934     0.02097
 Rotational constants (GHZ):           1.13844     0.61144     0.43696
 Zero-point vibrational energy     566424.2 (Joules/Mol)
                                  135.37864 (Kcal/Mol)
 Warning -- explicit consideration of  19 degrees of freedom as
           vibrations may cause significant error
 Vibrational temperatures:     67.98   111.08   213.70   240.06   245.16
          (Kelvin)            279.07   327.49   329.91   354.21   373.65
                              432.49   484.77   557.08   701.73   710.43
                              717.20   788.95   804.85   810.07   902.08
                              979.56  1119.68  1123.21  1163.09  1219.60
                             1220.51  1243.14  1349.25  1363.62  1393.15
                             1408.70  1474.54  1523.40  1552.82  1596.53
                             1625.36  1630.32  1690.89  1727.76  1779.57
                             1820.56  1903.22  1977.59  1978.09  2014.76
                             2047.88  2056.37  2078.73  2084.68  2151.81
                             2173.16  2185.04  2185.87  2191.59  2206.70
                             2216.95  2269.00  2326.06  2351.24  4377.48
                             4389.77  4395.19  4427.29  4449.54  4484.91
                             4491.18  4497.25  4503.65  4508.50  4570.84
                             4618.61  4680.17

 Zero-point correction=                           0.215740 (Hartree/Particle)
 Thermal correction to Energy=                    0.228191
 Thermal correction to Enthalpy=                  0.229135
 Thermal correction to Gibbs Free Energy=         0.177226
 Sum of electronic and zero-point Energies=           -879.795494
 Sum of electronic and thermal Energies=              -879.783042
 Sum of electronic and thermal Enthalpies=            -879.782098
 Sum of electronic and thermal Free Energies=         -879.834007

                     E (Thermal)             CV                S
                      KCal/Mol        Cal/Mol-Kelvin    Cal/Mol-Kelvin
 Total                  143.192             47.733            109.252
 Electronic               0.000              0.000              0.000
 Translational            0.889              2.981             41.648
 Rotational               0.889              2.981             31.336
 Vibrational            141.414             41.772             36.268
 Vibration     1          0.595              1.979              4.929
 Vibration     2          0.599              1.964              3.961
 Vibration     3          0.618              1.904              2.691
 Vibration     4          0.624              1.883              2.471
 Vibration     5          0.625              1.879              2.431
 Vibration     6          0.635              1.848              2.190
 Vibration     7          0.651              1.799              1.898
 Vibration     8          0.652              1.796              1.884
 Vibration     9          0.661              1.769              1.758
 Vibration    10          0.668              1.746              1.664
 Vibration    11          0.693              1.673              1.414
 Vibration    12          0.718              1.602              1.227
 Vibration    13          0.756              1.498              1.011
 Vibration    14          0.844              1.277              0.690
 Vibration    15          0.849              1.264              0.674
 Vibration    16          0.854              1.253              0.662
 Vibration    17          0.904              1.143              0.548
 Vibration    18          0.915              1.119              0.525
 Vibration    19          0.919              1.111              0.518

 Optimization completed.
    -- Stationary point found.
 Normal termination of Gaussian 16 at Sun Dec 13 12:25:58 2020.

 ----------------------------------------------------------------------
 # B3LYP/6-311++G(d,p) empiricaldispersion=gd3bj scf=xqc pop=npa geom=c
 heck
 ----------------------------------------------------------------------

 --------------------------------------
 CID_88983490_JID_3862_Energie_neutraal
 --------------------------------------
 Structure from the checkpoint file:  "JID_3862.chk"
 Charge =  0 Multiplicity = 1

 SCF Done:  E(RB3LYP) =  -880.159530214     A.U. after   16 cycles
 Normal termination of Gaussian 16 at Sun Dec 13 12:28:41 2020.

 ----------------------------------------------------------------------
 # B3LYP/6-311++G(d,p) empiricaldispersion=gd3bj scf=xqc pop=npa geom=c
 heck
 ----------------------------------------------------------------------

 ------------------------------------
 CID_88983490_JID_3862_Energie_kation
 ------------------------------------
 Structure from the checkpoint file:  "JID_3862.chk"
 Charge =  1 Multiplicity = 2

 SCF Done:  E(UB3LYP) =  -879.864720311     A.U. after   22 cycles
 Normal termination of Gaussian 16 at Sun Dec 13 12:33:50 2020.
 Gaussian 16:  ES64L-G16RevA.03 25-Dec-2016

 ----------------------------------------------------------------------
 # B3LYP/6-311++G(d,p) empiricaldispersion=gd3bj scf=xqc pop=npa geom=c
 heck
 ----------------------------------------------------------------------

 -----------------------------------
 CID_88983490_JID_3862_Energie_anion
 -----------------------------------
 Structure from the checkpoint file:  "JID_3862.chk"
 Charge = -1 Multiplicity = 2

                         Standard orientation:
 ---------------------------------------------------------------------
 Center     Atomic      Atomic             Coordinates (Angstroms)
 Number     Number       Type             X           Y           Z
 ---------------------------------------------------------------------
      1          6           0       -3.816877   -0.076966   -0.000157
      2          6           0       -2.363320   -0.449951   -0.000083
      3          6           0       -1.877715   -1.720334   -0.000281
      4         16           0       -0.132881   -1.823791    0.000067
      5          6           0       -0.006396   -0.066750    0.000083
      6          6           0       -1.292994    0.522325    0.000064
      7          6           0       -1.373817    1.923207    0.000139
      8          6           0       -0.186004    2.635641    0.000229
      9          7           0        1.036499    2.070281    0.000237
     10          6           0        1.150026    0.737265    0.000146
     11          6           0        2.567562    0.193275    0.000169
     12          6           0        2.884661   -0.609837    1.273413
     13          6           0        2.884897   -0.608514   -1.273871
     14          1           0       -4.072413    0.522448   -0.882877
     15          1           0       -4.072480    0.522668    0.882390
     16          1           0       -4.454165   -0.965659   -0.000073
     17          1           0       -2.456412   -2.635519   -0.000440
     18          1           0       -2.332264    2.432870    0.000113
     19          1           0       -0.197772    3.723608    0.000288
     20          1           0        3.198895    1.087670    0.000690
     21          1           0        2.295976   -1.531025    1.336209
     22          1           0        3.943536   -0.891835    1.285410
     23          1           0        2.678633   -0.017427    2.171065
     24          1           0        2.679525   -0.014947   -2.170907
     25          1           0        3.943643   -0.891003   -1.285744
     26          1           0        2.295770   -1.529332   -1.337962
 ---------------------------------------------------------------------

 SCF Done:  E(UB3LYP) =  -880.149835230     A.U. after   33 cycles
 SCF Done:  E(UB3LYP) =  -880.149835230     a.u. after    1 cycles

 The electronic state is 2-A.
 Alpha  occ. eigenvalues --  -88.71162 -14.12614 -10.04334 -10.04326 -10.04289
 Alpha  occ. eigenvalues --  -10.04222 -10.04030 -10.03691 -10.03690 -10.02452
 Alpha  occ. eigenvalues --  -10.02058 -10.01534 -10.00945  -7.79830  -5.76146
 Alpha  occ. eigenvalues --   -5.75795  -5.75377  -0.77774  -0.71612  -0.67172
 Alpha  occ. eigenvalues --   -0.62632  -0.61187  -0.57622  -0.56313  -0.52992
 Alpha  occ. eigenvalues --   -0.49056  -0.44643  -0.43859  -0.39331  -0.35117
 Alpha  occ. eigenvalues --   -0.32793  -0.31431  -0.30979  -0.29834  -0.29557
 Alpha  occ. eigenvalues --   -0.29031  -0.28152  -0.26878  -0.26299  -0.24389
 Alpha  occ. eigenvalues --   -0.23440  -0.21990  -0.21926  -0.20610  -0.19984
 Alpha  occ. eigenvalues --   -0.19363  -0.17642  -0.13100  -0.09778  -0.09601
 Alpha  occ. eigenvalues --   -0.07273   0.06735
 Alpha virt. eigenvalues --    0.08604   0.08747   0.10094   0.10639   0.11000
 Alpha virt. eigenvalues --    0.11756   0.12252   0.12619   0.13307   0.13710
 Alpha virt. eigenvalues --    0.14197   0.14631   0.15311   0.15398   0.15997

  Beta  occ. eigenvalues --  -88.71128 -14.12198 -10.04372 -10.04329 -10.04306
  Beta  occ. eigenvalues --  -10.04303 -10.03795 -10.03679 -10.03678 -10.02058
  Beta  occ. eigenvalues --  -10.01958 -10.01292 -10.00766  -7.79799  -5.76135
  Beta  occ. eigenvalues --   -5.75784  -5.75256  -0.77206  -0.71164  -0.67040
  Beta  occ. eigenvalues --   -0.62475  -0.60748  -0.57226  -0.56280  -0.52721
  Beta  occ. eigenvalues --   -0.48690  -0.44160  -0.43661  -0.39074  -0.34930
  Beta  occ. eigenvalues --   -0.32647  -0.31340  -0.30892  -0.29642  -0.29279
  Beta  occ. eigenvalues --   -0.28876  -0.28019  -0.26813  -0.26137  -0.23696
  Beta  occ. eigenvalues --   -0.23329  -0.21822  -0.21716  -0.20426  -0.19881
  Beta  occ. eigenvalues --   -0.18100  -0.17476  -0.11684  -0.09107  -0.08181
  Beta  occ. eigenvalues --   -0.05984
  Beta virt. eigenvalues --    0.08533   0.08684   0.10030   0.10603   0.10919
  Beta virt. eigenvalues --    0.11682   0.11770   0.12531   0.13208   0.13259
  Beta virt. eigenvalues --    0.13913   0.14127   0.14760   0.15198   0.15414

 Mulliken charges and spin densities:
               1          2
     1  C   -0.536618   0.010310
     2  C    0.018749  -0.073698
     3  C   -0.671516   0.425658
     4  S   -0.670172   0.030992
     5  C    0.398613   0.001245
     6  C    1.661024   0.068499
     7  C   -1.093190   0.234352
     8  C   -0.043162  -0.056886
     9  N   -0.007464   0.199634
    10  C   -0.657139   0.134848
    11  C    0.159123  -0.028989
    12  C   -0.590231   0.006087
    13  C   -0.589305   0.005448
    14  H    0.096118   0.035029
    15  H    0.095950   0.035183
    16  H    0.122912  -0.000941
    17  H    0.171953  -0.031074
    18  H    0.095776  -0.011101
    19  H    0.139009   0.002402
    20  H    0.160402  -0.002294
    21  H    0.127513  -0.000777
    22  H    0.105065   0.007619
    23  H    0.137249   0.000591
    24  H    0.137191   0.000629
    25  H    0.104569   0.008108
    26  H    0.127581  -0.000875
 Sum of Mulliken charges =  -1.00000   1.00000

 Dipole moment (field-independent basis, Debye):
    X=              0.7042    Y=             -1.7673    Z=              0.0004  Tot=              1.9024
 Quadrupole moment (field-independent basis, Debye-Ang):
   XX=           -110.0393   YY=           -109.3424   ZZ=            -98.7569
   XY=             -4.2347   XZ=              0.0096   YZ=             -0.0030

 Summary of Natural Population Analysis:

                                       Natural Population
                Natural  -----------------------------------------------
    Atom  No    Charge         Core      Valence    Rydberg      Total
 -----------------------------------------------------------------------
      C    1   -0.28694      0.99964     2.28212    0.00518     3.28694
      C    2   -0.07429      0.99950     2.05965    0.01515     3.07429
      C    3   -0.08481      0.99945     2.07291    0.01245     3.08481
      S    4    0.16309      4.99947     2.81457    0.02287     7.83691
      C    5   -0.12917      0.99940     2.11430    0.01548     3.12917
      C    6    0.07234      0.99945     1.91759    0.01062     2.92766
      C    7   -0.11721      0.99957     2.09996    0.01767     3.11721
      C    8   -0.00309      0.99960     1.98927    0.01422     3.00309
      N    9   -0.20166      0.99968     2.69053    0.01145     3.70166
      C   10    0.13086      0.99945     1.85023    0.01945     2.86914
      C   11   -0.12445      0.99958     2.11600    0.00887     3.12445
      C   12   -0.28102      0.99965     2.27674    0.00462     3.28102
      C   13   -0.28101      0.99965     2.27674    0.00462     3.28101
      H   14    0.09670      0.00000     0.40208    0.00121     0.40330
      H   15    0.09671      0.00000     0.40208    0.00121     0.40329
      H   16    0.09565      0.00000     0.40354    0.00081     0.40435
      H   17    0.09168      0.00000     0.40754    0.00078     0.40832
      H   18    0.09237      0.00000     0.40647    0.00117     0.40763
      H   19    0.07694      0.00000     0.42135    0.00171     0.42306
      H   20    0.09963      0.00000     0.39825    0.00212     0.40037
      H   21    0.09956      0.00000     0.39917    0.00128     0.40044
      H   22    0.08728      0.00000     0.41168    0.00104     0.41272
      H   23    0.09924      0.00000     0.39990    0.00086     0.40076
      H   24    0.09924      0.00000     0.39990    0.00086     0.40076
      H   25    0.08728      0.00000     0.41168    0.00104     0.41272
      H   26    0.09956      0.00000     0.39917    0.00128     0.40044
 =======================================================================
   * Total *    0.00446     16.99408    33.82342    0.17803    50.99554

 Normal termination of Gaussian 16 at Sun Dec 13 12:41:36 2020.
