 Gaussian 16, Revision A.03,

 -----------------------------------------------------------
 # opt freq B3LYP/6-31G(d) empiricaldispersion=gd3bj scf=xqc
 -----------------------------------------------------------

 -------------------------------
 CID_113818452_JID_7613_neutraal
 -------------------------------
 Symbolic Z-matrix:
 Charge =  0 Multiplicity = 1

 SCF Done:  E(RB3LYP) =  -763.592089867     A.U. after   16 cycles
 SCF Done:  E(RB3LYP) =  -763.597962601     A.U. after   12 cycles
 SCF Done:  E(RB3LYP) =  -763.598794141     A.U. after   12 cycles
 SCF Done:  E(RB3LYP) =  -763.599199452     A.U. after   12 cycles
 SCF Done:  E(RB3LYP) =  -763.599495452     A.U. after   12 cycles
 SCF Done:  E(RB3LYP) =  -763.599769879     A.U. after   12 cycles
 SCF Done:  E(RB3LYP) =  -763.599861261     A.U. after   12 cycles
 SCF Done:  E(RB3LYP) =  -763.599999614     A.U. after   11 cycles
 SCF Done:  E(RB3LYP) =  -763.600047511     A.U. after   11 cycles
 SCF Done:  E(RB3LYP) =  -763.600137878     A.U. after   12 cycles
 SCF Done:  E(RB3LYP) =  -763.601140589     A.U. after    6 cycles
 SCF Done:  E(RB3LYP) =  -763.601140657     A.U. after    7 cycles
 SCF Done:  E(RB3LYP) =  -763.601140689     A.U. after    7 cycles
 SCF Done:  E(RB3LYP) =  -763.601140714     A.U. after    6 cycles
 Optimization completed.
    -- Stationary point found.
 Normal termination of Gaussian 16 at Fri Dec 11 13:21:26 2020.

 --------------------------------------------------------------------
 #N Geom=AllCheck Guess=TCheck SCRF=Check GenChk RB3LYP/6-31G(d) Freq
 --------------------------------------------------------------------

 Structure from the checkpoint file:  "JID_7613.chk"
 -------------------------------
 CID_113818452_JID_7613_neutraal
 -------------------------------
 Charge =  0 Multiplicity = 1

 SCF Done:  E(RB3LYP) =  -763.601140715     A.U. after    1 cycles

  Exact polarizability: 168.938 -10.093 148.293   9.970   8.775 125.568
 Approx polarizability: 218.148 -17.107 229.926  18.730  25.877 203.098

                      1                      2                      3
                      A                      A                      A
 Frequencies --     19.5088                32.8068                47.7199
 Red. masses --      3.7934                 3.4503                 4.3003
 Frc consts  --      0.0009                 0.0022                 0.0058
 IR Inten    --      0.3835                 0.6580                 1.4910

                      4                      5                      6
                      A                      A                      A
 Frequencies --     58.5200                74.7826               100.6423
 Red. masses --      3.5036                 5.3388                 3.7544
 Frc consts  --      0.0071                 0.0176                 0.0224
 IR Inten    --      0.1158                 2.2564                 0.3021

                      7                      8                      9
                      A                      A                      A
 Frequencies --    130.2148               151.0151               186.3893
 Red. masses --      3.4967                 2.8812                 1.9762
 Frc consts  --      0.0349                 0.0387                 0.0405
 IR Inten    --      2.9398                 0.1329                 1.0412

                     10                     11                     12
                      A                      A                      A
 Frequencies --    215.8994               236.2765               242.9216
 Red. masses --      1.8128                 2.6577                 2.0070
 Frc consts  --      0.0498                 0.0874                 0.0698
 IR Inten    --      2.6068                 2.4838                 2.6000

                     13                     14                     15
                      A                      A                      A
 Frequencies --    255.3912               273.6690               292.2171
 Red. masses --      1.2403                 2.5169                 2.2317
 Frc consts  --      0.0477                 0.1111                 0.1123
 IR Inten    --      0.8313                 1.1970                 0.7324

                     16                     17                     18
                      A                      A                      A
 Frequencies --    303.1817               340.5620               354.7957
 Red. masses --      1.3585                 2.7866                 2.4394
 Frc consts  --      0.0736                 0.1904                 0.1809
 IR Inten    --      0.2060                 0.7153                 0.0447

                     19                     20                     21
                      A                      A                      A
 Frequencies --    385.3607               410.4811               414.2277
 Red. masses --      3.2469                 3.6576                 4.0515
 Frc consts  --      0.2841                 0.3631                 0.4096
 IR Inten    --      0.6796                 2.7102                 3.4606

                     22                     23                     24
                      A                      A                      A
 Frequencies --    437.0763               480.4029               504.8433
 Red. masses --      3.8177                 2.2923                 2.8743
 Frc consts  --      0.4297                 0.3117                 0.4316
 IR Inten    --      1.6191                 0.2517                 1.0065

                     25                     26                     27
                      A                      A                      A
 Frequencies --    544.9727               562.2221               621.7990
 Red. masses --      2.5267                 1.7506                 1.7210
 Frc consts  --      0.4421                 0.3260                 0.3920
 IR Inten    --     23.0051                59.2640                25.8083

                     28                     29                     30
                      A                      A                      A
 Frequencies --    668.4582               706.2492               722.6392
 Red. masses --      2.8683                 2.9944                 3.2354
 Frc consts  --      0.7551                 0.8800                 0.9955
 IR Inten    --     18.4837                39.3648                12.6927

                     31                     32                     33
                      A                      A                      A
 Frequencies --    734.7854               749.9229               796.0125
 Red. masses --      2.8655                 3.9546                 1.2232
 Frc consts  --      0.9115                 1.3103                 0.4567
 IR Inten    --     55.9816                22.2011                10.4863

                     34                     35                     36
                      A                      A                      A
 Frequencies --    806.5354               807.5553               830.9493
 Red. masses --      1.6561                 2.2233                 1.6941
 Frc consts  --      0.6347                 0.8543                 0.6892
 IR Inten    --      1.2262                 1.8125                 8.1117

                     37                     38                     39
                      A                      A                      A
 Frequencies --    884.9820               908.0681               918.7990
 Red. masses --      2.1561                 1.9562                 2.9448
 Frc consts  --      0.9949                 0.9504                 1.4647
 IR Inten    --      4.2503                12.1017                 2.1746

                     40                     41                     42
                      A                      A                      A
 Frequencies --    924.3132               958.4800               980.5391
 Red. masses --      3.5722                 1.4945                 1.6514
 Frc consts  --      1.7982                 0.8089                 0.9355
 IR Inten    --     16.3030                 0.8503                 5.2438

                     43                     44                     45
                      A                      A                      A
 Frequencies --   1015.7486              1023.5416              1031.2147
 Red. masses --      3.7048                 1.5041                 1.6525
 Frc consts  --      2.2521                 0.9284                 1.0354
 IR Inten    --      6.5629                 2.1588                 1.3253

                     46                     47                     48
                      A                      A                      A
 Frequencies --   1049.9853              1074.3074              1078.2546
 Red. masses --      2.8387                 2.1370                 1.2790
 Frc consts  --      1.8439                 1.4531                 0.8761
 IR Inten    --     32.0200                11.6270                11.7212

                     49                     50                     51
                      A                      A                      A
 Frequencies --   1094.9057              1099.5716              1125.6129
 Red. masses --      1.7850                 1.3343                 1.1540
 Frc consts  --      1.2608                 0.9505                 0.8615
 IR Inten    --      6.0895                 4.2384                 2.4563

                     52                     53                     54
                      A                      A                      A
 Frequencies --   1127.4192              1132.0306              1166.3124
 Red. masses --      1.9284                 1.9120                 4.4060
 Frc consts  --      1.4442                 1.4436                 3.5312
 IR Inten    --      6.6471                25.6681                31.8777

                     55                     56                     57
                      A                      A                      A
 Frequencies --   1218.4949              1222.5309              1229.1478
 Red. masses --      1.3662                 2.5719                 2.7197
 Frc consts  --      1.1951                 2.2648                 2.4209
 IR Inten    --      0.6424                12.4958                 5.3886

                     58                     59                     60
                      A                      A                      A
 Frequencies --   1239.5736              1253.2983              1268.4718
 Red. masses --      2.1582                 1.8923                 2.3589
 Frc consts  --      1.9539                 1.7512                 2.2362
 IR Inten    --     24.6166                10.6247                 1.5469

                     61                     62                     63
                      A                      A                      A
 Frequencies --   1301.0562              1329.9962              1344.1186
 Red. masses --      3.2744                 1.5390                 1.3421
 Frc consts  --      3.2657                 1.6039                 1.4286
 IR Inten    --    110.6492                11.3174                 4.1915

                     64                     65                     66
                      A                      A                      A
 Frequencies --   1388.9846              1395.2784              1411.4203
 Red. masses --      2.5064                 1.4749                 1.4946
 Frc consts  --      2.8491                 1.6917                 1.7542
 IR Inten    --     47.5369                 4.2843                 6.0397

                     67                     68                     69
                      A                      A                      A
 Frequencies --   1425.0500              1427.9611              1443.7411
 Red. masses --      1.8419                 1.3916                 1.2545
 Frc consts  --      2.2039                 1.6718                 1.5407
 IR Inten    --      4.7096                 3.9242                 2.4005

                     70                     71                     72
                      A                      A                      A
 Frequencies --   1450.0823              1474.4479              1485.4451
 Red. masses --      1.2377                 2.5515                 1.0885
 Frc consts  --      1.5334                 3.2681                 1.4151
 IR Inten    --      6.6993                61.1277                 2.3889

                     73                     74                     75
                      A                      A                      A
 Frequencies --   1503.2324              1512.2723              1517.9736
 Red. masses --      1.5730                 1.1653                 1.1920
 Frc consts  --      2.0943                 1.5702                 1.6182
 IR Inten    --     22.5929                 6.7401                 1.9891

                     76                     77                     78
                      A                      A                      A
 Frequencies --   1523.1507              1526.0809              1529.8620
 Red. masses --      1.1994                 1.0806                 1.3383
 Frc consts  --      1.6395                 1.4827                 1.8455
 IR Inten    --      8.1402                 5.6110                20.3864

                     79                     80                     81
                      A                      A                      A
 Frequencies --   1535.4251              1537.2813              1543.3781
 Red. masses --      1.2815                 1.1955                 1.0640
 Frc consts  --      1.7800                 1.6646                 1.4933
 IR Inten    --      8.5652                21.6698                 1.5399

                     82                     83                     84
                      A                      A                      A
 Frequencies --   1545.7939              1550.1320              1603.6833
 Red. masses --      1.5244                 1.0978                 4.9269
 Frc consts  --      2.1462                 1.5542                 7.4656
 IR Inten    --     22.8969                 9.6289                92.3556

                     85                     86                     87
                      A                      A                      A
 Frequencies --   1777.8794              3034.9855              3038.2914
 Red. masses --      8.2376                 1.0559                 1.0441
 Frc consts  --     15.3411                 5.7303                 5.6785
 IR Inten    --    343.8656                15.3943                39.3625

                     88                     89                     90
                      A                      A                      A
 Frequencies --   3043.4612              3052.9604              3059.7195
 Red. masses --      1.0421                 1.0673                 1.0394
 Frc consts  --      5.6874                 5.8611                 5.7331
 IR Inten    --     12.3005                57.7757                16.7503

                     91                     92                     93
                      A                      A                      A
 Frequencies --   3077.2899              3101.9558              3107.7915
 Red. masses --      1.0961                 1.1008                 1.1012
 Frc consts  --      6.1157                 6.2408                 6.2665
 IR Inten    --     13.3882                 7.0533                58.7716

                     94                     95                     96
                      A                      A                      A
 Frequencies --   3112.9571              3115.3742              3119.9389
 Red. masses --      1.1025                 1.1014                 1.1012
 Frc consts  --      6.2946                 6.2984                 6.3152
 IR Inten    --     12.9491                56.3651                28.0883

                     97                     98                     99
                      A                      A                      A
 Frequencies --   3139.7178              3158.4951              3161.0573
 Red. masses --      1.0996                 1.0515                 1.0572
 Frc consts  --      6.3866                 6.1807                 6.2243
 IR Inten    --     30.8139                12.3138                10.0213

                    100                    101                    102
                      A                      A                      A
 Frequencies --   3170.7990              3176.5085              3241.9280
 Red. masses --      1.0909                 1.0897                 1.1205
 Frc consts  --      6.4623                 6.4783                 6.9383
 IR Inten    --      2.7785                10.9949                 0.9744

                    103                    104                    105
                      A                      A                      A
 Frequencies --   3255.2226              3584.8843              3650.4898
 Red. masses --      1.1171                 1.0749                 1.0816
 Frc consts  --      6.9745                 8.1387                 8.4925
 IR Inten    --     10.3533                19.6188                70.3468

 - Thermochemistry -
 -------------------
 Temperature   298.150 Kelvin.  Pressure   1.00000 Atm.
 Atom     1 has atomic number  6 and mass  12.00000

 Molecular mass:   236.16371 amu.
 Principal axes and moments of inertia in atomic units:
                           1         2         3
     Eigenvalues --  2733.749435429.021866624.01152
           X            0.99998   0.00577  -0.00370
           Y           -0.00578   0.99998  -0.00051
           Z            0.00370   0.00053   0.99999
 This molecule is an asymmetric top.
 Rotational symmetry number  1.
 Warning -- assumption of classical behavior for rotation
           may cause significant error
 Rotational temperatures (Kelvin)      0.03168     0.01595     0.01308
 Rotational constants (GHZ):           0.66017     0.33242     0.27245
 Zero-point vibrational energy     843452.0 (Joules/Mol)
                                  201.58987 (Kcal/Mol)
 Warning -- explicit consideration of  26 degrees of freedom as
           vibrations may cause significant error
 Vibrational temperatures:     28.07    47.20    68.66    84.20   107.60
          (Kelvin)            144.80   187.35   217.28   268.17   310.63
                              339.95   349.51   367.45   393.75   420.44
                              436.21   489.99   510.47   554.45   590.59
                              595.98   628.86   691.19   726.36   784.09
                              808.91   894.63   961.76  1016.14  1039.72
                             1057.19  1078.97  1145.28  1160.42  1161.89
                             1195.55  1273.29  1306.51  1321.95  1329.88
                             1379.04  1410.78  1461.44  1472.65  1483.69
                             1510.69  1545.69  1551.37  1575.33  1582.04
                             1619.51  1622.10  1628.74  1678.06  1753.14
                             1758.95  1768.47  1783.47  1803.22  1825.05
                             1871.93  1913.57  1933.89  1998.44  2007.49
                             2030.72  2050.33  2054.52  2077.22  2086.34
                             2121.40  2137.22  2162.82  2175.82  2184.03
                             2191.47  2195.69  2201.13  2209.13  2211.80
                             2220.58  2224.05  2230.29  2307.34  2557.97
                             4366.67  4371.42  4378.86  4392.53  4402.25
                             4427.53  4463.02  4471.42  4478.85  4482.33
                             4488.90  4517.35  4544.37  4548.06  4562.07
                             4570.29  4664.41  4683.54  5157.85  5252.24

 Zero-point correction=                           0.321254 (Hartree/Particle)
 Thermal correction to Energy=                    0.338836
 Thermal correction to Enthalpy=                  0.339780
 Thermal correction to Gibbs Free Energy=         0.274549
 Sum of electronic and zero-point Energies=           -763.279887
 Sum of electronic and thermal Energies=              -763.262305
 Sum of electronic and thermal Enthalpies=            -763.261361
 Sum of electronic and thermal Free Energies=         -763.326591

                     E (Thermal)             CV                S
                      KCal/Mol        Cal/Mol-Kelvin    Cal/Mol-Kelvin
 Total                  212.623             66.439            137.290
 Electronic               0.000              0.000              0.000
 Translational            0.889              2.981             42.280
 Rotational               0.889              2.981             32.952
 Vibrational            210.845             60.478             62.058
 Vibration     1          0.593              1.986              6.684
 Vibration     2          0.594              1.983              5.652
 Vibration     3          0.595              1.978              4.910
 Vibration     4          0.596              1.974              4.506
 Vibration     5          0.599              1.966              4.023
 Vibration     6          0.604              1.949              3.442
 Vibration     7          0.612              1.923              2.943
 Vibration     8          0.618              1.902              2.659
 Vibration     9          0.632              1.858              2.263
 Vibration    10          0.645              1.817              1.993
 Vibration    11          0.655              1.785              1.831
 Vibration    12          0.659              1.774              1.781
 Vibration    13          0.666              1.754              1.693
 Vibration    14          0.676              1.722              1.573
 Vibration    15          0.688              1.688              1.461
 Vibration    16          0.695              1.668              1.399
 Vibration    17          0.720              1.594              1.210
 Vibration    18          0.731              1.565              1.145
 Vibration    19          0.754              1.501              1.018
 Vibration    20          0.775              1.447              0.925
 Vibration    21          0.778              1.439              0.912
 Vibration    22          0.797              1.389              0.836
 Vibration    23          0.837              1.294              0.709
 Vibration    24          0.860              1.239              0.646
 Vibration    25          0.900              1.151              0.555
 Vibration    26          0.918              1.113              0.519

                           ! Non-Optimized Parameters !
 Normal termination of Gaussian 16 at Fri Dec 11 13:35:53 2020.

 ----------------------------------------------------------------------
 # B3LYP/6-311++G(d,p) empiricaldispersion=gd3bj scf=xqc pop=npa geom=c
 heck
 ----------------------------------------------------------------------

 ---------------------------------------
 CID_113818452_JID_7613_Energie_neutraal
 ---------------------------------------
 Structure from the checkpoint file:  "JID_7613.chk"
 Charge =  0 Multiplicity = 1

 SCF Done:  E(RB3LYP) =  -763.816010575     A.U. after   15 cycles
 Normal termination of Gaussian 16 at Fri Dec 11 13:43:07 2020.

 ----------------------------------------------------------------------
 # B3LYP/6-311++G(d,p) empiricaldispersion=gd3bj scf=xqc pop=npa geom=c
 heck
 ----------------------------------------------------------------------

 -------------------------------------
 CID_113818452_JID_7613_Energie_kation
 -------------------------------------
 Structure from the checkpoint file:  "JID_7613.chk"
 Charge =  1 Multiplicity = 2

 SCF Done:  E(UB3LYP) =  -763.501545092     A.U. after   33 cycles
 SCF Done:  E(UB3LYP) =  -763.501545092     a.u. after    2 cycles
 Normal termination of Gaussian 16 at Fri Dec 11 14:23:08 2020.
 Gaussian 16:  ES64L-G16RevA.03 25-Dec-2016

 ----------------------------------------------------------------------
 # B3LYP/6-311++G(d,p) empiricaldispersion=gd3bj scf=xqc pop=npa geom=c
 heck
 ----------------------------------------------------------------------

 ------------------------------------
 CID_113818452_JID_7613_Energie_anion
 ------------------------------------
 Structure from the checkpoint file:  "JID_7613.chk"
 Charge = -1 Multiplicity = 2

                         Standard orientation:
 ---------------------------------------------------------------------
 Center     Atomic      Atomic             Coordinates (Angstroms)
 Number     Number       Type             X           Y           Z
 ---------------------------------------------------------------------
      1          6           0       -0.740871   -1.335147    1.787618
      2          6           0       -2.012426   -0.591262    1.365735
      3          6           0       -2.551273   -0.903220   -0.050458
      4          6           0       -2.666747   -2.419798   -0.275916
      5          6           0       -3.945231   -0.267847   -0.190717
      6          6           0       -1.612028   -0.343225   -1.151045
      7          7           0       -1.522827    1.111865   -1.200493
      8          6           0       -0.681953    1.957218   -0.527421
      9          8           0       -0.930374    3.150021   -0.401122
     10          6           0        0.589538    1.383689    0.020617
     11          7           0        1.114542    1.876973    1.136167
     12          7           0        2.244612    1.137424    1.261862
     13          6           0        2.371555    0.252919    0.242004
     14          7           0        1.325615    0.385381   -0.563271
     15          6           0        3.481929   -0.695892    0.089091
     16          6           0        3.177801   -2.086117   -0.445309
     17          6           0        3.898616   -1.102161   -1.312741
     18          1           0       -0.920127   -2.409446    1.903138
     19          1           0       -0.382768   -0.954452    2.750240
     20          1           0        0.068896   -1.207212    1.063685
     21          1           0       -2.808499   -0.820295    2.087389
     22          1           0       -1.843052    0.489574    1.444512
     23          1           0       -3.260067   -2.887771    0.518374
     24          1           0       -3.158731   -2.635650   -1.231890
     25          1           0       -1.684540   -2.904718   -0.291081
     26          1           0       -3.923175    0.802843    0.041441
     27          1           0       -4.338919   -0.391071   -1.207986
     28          1           0       -4.654958   -0.738198    0.499129
     29          1           0       -0.603827   -0.741377   -1.044826
     30          1           0       -1.983172   -0.676603   -2.128315
     31          1           0       -2.348666    1.605717   -1.518443
     32          1           0        2.859962    1.300621    2.046094
     33          1           0        4.263790   -0.612444    0.839023
     34          1           0        3.733517   -2.915190   -0.017582
     35          1           0        2.137346   -2.294333   -0.673312
     36          1           0        3.343263   -0.643239   -2.124243
     37          1           0        4.959657   -1.243382   -1.494984
 ---------------------------------------------------------------------

 SCF Done:  E(UB3LYP) =  -763.809737647     A.U. after   33 cycles
 SCF Done:  E(UB3LYP) =  -763.809737647     a.u. after    1 cycles

 The electronic state is 2-A.
 Alpha  occ. eigenvalues --  -18.99856 -14.30417 -14.25257 -14.24933 -14.21786
 Alpha  occ. eigenvalues --  -10.18941 -10.16148 -10.13849 -10.11648 -10.10563
 Alpha  occ. eigenvalues --  -10.10218 -10.09144 -10.09098 -10.08024 -10.07824
 Alpha  occ. eigenvalues --  -10.07780 -10.06609  -0.99175  -0.94933  -0.83895
 Alpha  occ. eigenvalues --   -0.81386  -0.78396  -0.74162  -0.73963  -0.65378
 Alpha  occ. eigenvalues --   -0.61529  -0.60853  -0.58306  -0.57911  -0.54176
 Alpha  occ. eigenvalues --   -0.51866  -0.51303  -0.48207  -0.46316  -0.45697
 Alpha  occ. eigenvalues --   -0.40478  -0.40079  -0.39626  -0.39335  -0.38497
 Alpha  occ. eigenvalues --   -0.37746  -0.36938  -0.33946  -0.33900  -0.32810
 Alpha  occ. eigenvalues --   -0.31386  -0.30616  -0.30251  -0.29825  -0.29390
 Alpha  occ. eigenvalues --   -0.28539  -0.28029  -0.27352  -0.25364  -0.24795
 Alpha  occ. eigenvalues --   -0.24237  -0.24032  -0.23346  -0.22155  -0.20876
 Alpha  occ. eigenvalues --   -0.19771  -0.17723  -0.16615  -0.15847   0.03779
 Alpha virt. eigenvalues --    0.05145   0.06184   0.06833   0.06929   0.07548
 Alpha virt. eigenvalues --    0.08255   0.08627   0.09518   0.09677   0.09890
 Alpha virt. eigenvalues --    0.10459   0.10773   0.11206   0.11863   0.12552

  Beta  occ. eigenvalues --  -18.99849 -14.30360 -14.25247 -14.24928 -14.21779
  Beta  occ. eigenvalues --  -10.18934 -10.16152 -10.13846 -10.11641 -10.10526
  Beta  occ. eigenvalues --  -10.10218 -10.09132 -10.09079 -10.08009 -10.07818
  Beta  occ. eigenvalues --  -10.07760 -10.06595  -0.99137  -0.94918  -0.83884
  Beta  occ. eigenvalues --   -0.81346  -0.78349  -0.74131  -0.73943  -0.65360
  Beta  occ. eigenvalues --   -0.61505  -0.60818  -0.58268  -0.57845  -0.54141
  Beta  occ. eigenvalues --   -0.51814  -0.51233  -0.48173  -0.46265  -0.45653
  Beta  occ. eigenvalues --   -0.40457  -0.40019  -0.39600  -0.39289  -0.38458
  Beta  occ. eigenvalues --   -0.37719  -0.36915  -0.33927  -0.33879  -0.32785
  Beta  occ. eigenvalues --   -0.31360  -0.30590  -0.30212  -0.29800  -0.29365
  Beta  occ. eigenvalues --   -0.28510  -0.28006  -0.27330  -0.25340  -0.24773
  Beta  occ. eigenvalues --   -0.24210  -0.24009  -0.23328  -0.22125  -0.20839
  Beta  occ. eigenvalues --   -0.19760  -0.17707  -0.16593  -0.15815
  Beta virt. eigenvalues --    0.05478   0.06250   0.06869   0.07184   0.07540
  Beta virt. eigenvalues --    0.08252   0.08655   0.08825   0.09584   0.09949
  Beta virt. eigenvalues --    0.09999   0.10627   0.10884   0.11654   0.12097

 Mulliken charges and spin densities:
               1          2
     1  C   -0.379118  -0.451286
     2  C   -0.310512   0.157035
     3  C    0.065772   0.766928
     4  C    0.194010  -0.752584
     5  C   -0.119847  -0.427206
     6  C   -0.425585  -0.400652
     7  N   -0.180308   0.063532
     8  C   -0.353625   0.465238
     9  O   -0.297900   0.004380
    10  C   -0.220252  -0.205384
    11  N   -0.005066   0.056961
    12  N    0.057664  -0.135721
    13  C    1.581867  -1.360373
    14  N    0.048531  -0.040642
    15  C   -0.822167   0.814221
    16  C    0.784565  -1.225551
    17  C    0.607190  -1.153606
    18  H    0.045663   0.101073
    19  H    0.008328   0.160975
    20  H   -0.137233   0.127010
    21  H    0.074140   0.106628
    22  H    0.171163   0.016949
    23  H   -0.050669   0.203960
    24  H   -0.009343   0.149687
    25  H   -0.016306   0.172482
    26  H    0.125349   0.034229
    27  H   -0.003335   0.148608
    28  H   -0.045369   0.184995
    29  H    0.611928  -0.365412
    30  H   -0.072848   0.243288
    31  H    0.257511   0.060050
    32  H   -0.188783   0.548753
    33  H   -1.662780   1.960510
    34  H   -0.318629   0.494347
    35  H    0.008520   0.126729
    36  H    0.061951   0.099359
    37  H   -0.084477   0.250488
 Sum of Mulliken charges =  -1.00000   1.00000

 Dipole moment (field-independent basis, Debye):
    X=             -7.5940    Y=             -0.8271    Z=             -4.1232  Tot=              8.6807
 Quadrupole moment (field-independent basis, Debye-Ang):
   XX=           -193.9145   YY=           -159.4103   ZZ=           -139.8625
   XY=              6.2585   XZ=            -17.4460   YZ=             -0.9608

 Summary of Natural Population Analysis:

                                       Natural Population
                Natural  -----------------------------------------------
    Atom  No    Charge         Core      Valence    Rydberg      Total
 -----------------------------------------------------------------------
      C    1   -0.29023      0.99966     2.28504    0.00553     3.29023
      C    2   -0.19119      0.99959     2.18237    0.00923     3.19119
      C    3   -0.04830      0.99957     2.03825    0.01048     3.04830
      C    4   -0.28842      0.99963     2.28144    0.00735     3.28842
      C    5   -0.28869      0.99963     2.28149    0.00758     3.28869
      C    6   -0.09462      0.99955     2.08260    0.01247     3.09462
      N    7   -0.31074      0.99968     2.80203    0.00903     3.81074
      C    8    0.32281      0.99961     1.65569    0.02189     2.67719
      O    9   -0.30908      0.99988     3.30413    0.00507     4.30908
      C   10    0.12286      0.99959     1.85864    0.01891     2.87714
      N   11   -0.13582      0.99970     2.62455    0.01156     3.63582
      N   12   -0.16738      0.99964     2.65493    0.01280     3.66738
      C   13    0.19996      0.99960     1.78240    0.01805     2.80004
      N   14   -0.27590      0.99968     2.76846    0.00776     3.77590
      C   15   -0.14282      0.99956     2.12939    0.01387     3.14282
      C   16   -0.18387      0.99962     2.17475    0.00951     3.18387
      C   17   -0.18566      0.99962     2.17836    0.00768     3.18566
      H   18    0.09556      0.00000     0.40354    0.00090     0.40444
      H   19    0.10329      0.00000     0.39594    0.00077     0.39671
      H   20    0.09960      0.00000     0.39841    0.00199     0.40040
      H   21    0.09553      0.00000     0.40356    0.00091     0.40447
      H   22    0.10198      0.00000     0.39668    0.00134     0.39802
      H   23    0.10118      0.00000     0.39803    0.00079     0.39882
      H   24    0.09950      0.00000     0.39959    0.00091     0.40050
      H   25    0.10316      0.00000     0.39595    0.00090     0.39684
      H   26    0.10138      0.00000     0.39766    0.00096     0.39862
      H   27    0.09751      0.00000     0.40170    0.00079     0.40249
      H   28    0.10156      0.00000     0.39766    0.00078     0.39844
      H   29    0.11839      0.00000     0.38002    0.00159     0.38161
      H   30    0.09540      0.00000     0.40367    0.00093     0.40460
      H   31    0.19062      0.00000     0.30701    0.00237     0.30938
      H   32    0.21213      0.00000     0.28089    0.00698     0.28787
      H   33    0.12206      0.00000     0.36558    0.01236     0.37794
      H   34    0.10767      0.00000     0.39082    0.00151     0.39233
      H   35    0.10655      0.00000     0.39211    0.00134     0.39345
      H   36    0.10843      0.00000     0.39047    0.00109     0.39157
      H   37    0.10559      0.00000     0.39343    0.00098     0.39441
 =======================================================================
   * Total *    0.00000     16.99381    46.77722    0.22898    64.00000

 Normal termination of Gaussian 16 at Fri Dec 11 14:45:05 2020.
