 Gaussian 16, Revision A.03,

 -----------------------------------------------------------
 # opt freq B3LYP/6-31G(d) empiricaldispersion=gd3bj scf=xqc
 -----------------------------------------------------------

 -------------------------------
 CID_103255909_JID_4933_neutraal
 -------------------------------
 Symbolic Z-matrix:
 Charge =  0 Multiplicity = 1

 SCF Done:  E(RB3LYP) =  -672.935799980     A.U. after   14 cycles
 SCF Done:  E(RB3LYP) =  -672.949274855     A.U. after   11 cycles
 SCF Done:  E(RB3LYP) =  -672.950290381     A.U. after   12 cycles
 SCF Done:  E(RB3LYP) =  -672.950015482     A.U. after   12 cycles
 SCF Done:  E(RB3LYP) =  -672.950498867     A.U. after   11 cycles
 SCF Done:  E(RB3LYP) =  -672.950873745     A.U. after   11 cycles
 SCF Done:  E(RB3LYP) =  -672.950903588     A.U. after   10 cycles
 SCF Done:  E(RB3LYP) =  -672.950928191     A.U. after   10 cycles
 SCF Done:  E(RB3LYP) =  -672.950932892     A.U. after    9 cycles
 SCF Done:  E(RB3LYP) =  -672.950933600     A.U. after    8 cycles
 Optimization completed.
    -- Stationary point found.
 Normal termination of Gaussian 16 at Thu Dec 10 10:52:31 2020.

 --------------------------------------------------------------------
 #N Geom=AllCheck Guess=TCheck SCRF=Check GenChk RB3LYP/6-31G(d) Freq
 --------------------------------------------------------------------

 Structure from the checkpoint file:  "JID_4933.chk"
 -------------------------------
 CID_103255909_JID_4933_neutraal
 -------------------------------
 Charge =  0 Multiplicity = 1

 SCF Done:  E(RB3LYP) =  -672.950933600     A.U. after    1 cycles

  Exact polarizability: 130.586   1.139 114.476   2.792   0.889 106.641
 Approx polarizability: 161.358   2.312 163.376   6.356   6.352 164.979

                      1                      2                      3
                      A                      A                      A
 Frequencies --     29.0261                51.3718                62.3343
 Red. masses --      4.3711                 3.5886                 5.6051
 Frc consts  --      0.0022                 0.0056                 0.0128
 IR Inten    --      0.1171                 0.6113                 1.9814

                      4                      5                      6
                      A                      A                      A
 Frequencies --     71.9267                78.4409                92.4189
 Red. masses --      2.9117                 5.2554                 3.7803
 Frc consts  --      0.0089                 0.0191                 0.0190
 IR Inten    --      0.2783                 0.4331                 0.5873

                      7                      8                      9
                      A                      A                      A
 Frequencies --    131.9695               153.5834               191.8804
 Red. masses --      2.5643                 3.8623                 1.7107
 Frc consts  --      0.0263                 0.0537                 0.0371
 IR Inten    --      1.0423                 0.2097                 1.1915

                     10                     11                     12
                      A                      A                      A
 Frequencies --    233.3640               252.9905               260.6832
 Red. masses --      3.0758                 2.9452                 1.3468
 Frc consts  --      0.0987                 0.1111                 0.0539
 IR Inten    --      4.0224                13.2592                77.0020

                     13                     14                     15
                      A                      A                      A
 Frequencies --    275.3181               306.2371               351.5254
 Red. masses --      1.6019                 2.4219                 3.2957
 Frc consts  --      0.0715                 0.1338                 0.2399
 IR Inten    --      0.5189                 1.3212                 8.7640

                     16                     17                     18
                      A                      A                      A
 Frequencies --    379.4386               418.0346               434.4213
 Red. masses --      2.0120                 2.2454                 2.5301
 Frc consts  --      0.1707                 0.2312                 0.2813
 IR Inten    --      1.5149                 7.3411                 2.8698

                     19                     20                     21
                      A                      A                      A
 Frequencies --    467.1336               506.0457               548.2862
 Red. masses --      3.0704                 2.3910                 2.3218
 Frc consts  --      0.3948                 0.3608                 0.4112
 IR Inten    --     21.0739                 1.2213                 0.7412

                     22                     23                     24
                      A                      A                      A
 Frequencies --    635.7973               644.4482               686.2347
 Red. masses --      2.9924                 1.3831                 3.5161
 Frc consts  --      0.7127                 0.3384                 0.9756
 IR Inten    --     17.6450                81.6013                20.7786

                     25                     26                     27
                      A                      A                      A
 Frequencies --    736.2444               763.5999               774.3145
 Red. masses --      1.4807                 1.5243                 3.4304
 Frc consts  --      0.4729                 0.5237                 1.2118
 IR Inten    --     37.9193                79.0884                31.5005

                     28                     29                     30
                      A                      A                      A
 Frequencies --    803.0633               819.2001               844.5346
 Red. masses --      1.5663                 1.7535                 2.6417
 Frc consts  --      0.5951                 0.6933                 1.1101
 IR Inten    --      3.9421                 8.4495                18.5490

                     31                     32                     33
                      A                      A                      A
 Frequencies --    852.8214               884.9549               923.0480
 Red. masses --      2.2609                 1.6294                 3.3972
 Frc consts  --      0.9688                 0.7518                 1.7054
 IR Inten    --     10.3110                 2.5876                 6.5291

                     34                     35                     36
                      A                      A                      A
 Frequencies --    936.8909               970.5823               973.5762
 Red. masses --      1.6042                 2.7629                 3.0462
 Frc consts  --      0.8296                 1.5335                 1.7012
 IR Inten    --     16.1018                 6.4398                 5.2773

                     37                     38                     39
                      A                      A                      A
 Frequencies --    992.5759               999.3966              1038.1361
 Red. masses --      1.5961                 2.1128                 1.6729
 Frc consts  --      0.9265                 1.2433                 1.0623
 IR Inten    --      4.8814                 7.4209                 0.9263

                     40                     41                     42
                      A                      A                      A
 Frequencies --   1074.4723              1090.3973              1102.2383
 Red. masses --      1.3234                 2.2984                 1.8954
 Frc consts  --      0.9002                 1.6101                 1.3568
 IR Inten    --      3.7389                 2.0320                 4.9202

                     43                     44                     45
                      A                      A                      A
 Frequencies --   1132.9365              1143.6352              1154.4770
 Red. masses --      2.0074                 1.9924                 2.3851
 Frc consts  --      1.5181                 1.5353                 1.8729
 IR Inten    --     11.3991               145.7014               129.9494

                     46                     47                     48
                      A                      A                      A
 Frequencies --   1167.8007              1192.0017              1211.0640
 Red. masses --      1.8775                 2.4713                 1.5100
 Frc consts  --      1.5086                 2.0689                 1.3049
 IR Inten    --    104.8874                36.9766                 0.3724

                     49                     50                     51
                      A                      A                      A
 Frequencies --   1223.4293              1236.7783              1269.4179
 Red. masses --      1.4995                 1.7969                 1.3175
 Frc consts  --      1.3224                 1.6194                 1.2509
 IR Inten    --     12.4291                14.7483                 0.5017

                     52                     53                     54
                      A                      A                      A
 Frequencies --   1278.5312              1286.0104              1292.7019
 Red. masses --      1.3462                 1.6373                 1.3566
 Frc consts  --      1.2965                 1.5954                 1.3357
 IR Inten    --      0.8856                37.1993                 6.8391

                     55                     56                     57
                      A                      A                      A
 Frequencies --   1309.8713              1327.8986              1333.7617
 Red. masses --      1.3841                 1.2314                 1.4748
 Frc consts  --      1.3992                 1.2794                 1.5457
 IR Inten    --      4.1471                 0.7751                 4.0909

                     58                     59                     60
                      A                      A                      A
 Frequencies --   1346.8268              1380.0479              1397.0058
 Red. masses --      1.2030                 1.4750                 1.4579
 Frc consts  --      1.2857                 1.6552                 1.6763
 IR Inten    --      1.3028                 7.7184                16.5703

                     61                     62                     63
                      A                      A                      A
 Frequencies --   1410.8025              1416.7629              1441.0950
 Red. masses --      1.4710                 1.5142                 1.3603
 Frc consts  --      1.7250                 1.7907                 1.6645
 IR Inten    --      3.0505                16.7084                15.6194

                     64                     65                     66
                      A                      A                      A
 Frequencies --   1446.0677              1450.0777              1491.4820
 Red. masses --      1.2905                 1.2231                 1.0941
 Frc consts  --      1.5900                 1.5152                 1.4340
 IR Inten    --      5.6469                75.6133                 2.7862

                     67                     68                     69
                      A                      A                      A
 Frequencies --   1511.5568              1519.1315              1523.6086
 Red. masses --      1.0703                 1.1450                 1.0886
 Frc consts  --      1.4408                 1.5568                 1.4889
 IR Inten    --      3.2047                 4.0401                 7.4411

                     70                     71                     72
                      A                      A                      A
 Frequencies --   1527.3564              1535.5669              1539.8806
 Red. masses --      1.0647                 1.0698                 1.1295
 Frc consts  --      1.4634                 1.4863                 1.5780
 IR Inten    --      3.4435                 3.1587                 6.5992

                     73                     74                     75
                      A                      A                      A
 Frequencies --   1546.4462              1839.9115              3034.9986
 Red. masses --      1.1610                 9.5191                 1.0624
 Frc consts  --      1.6358                18.9863                 5.7660
 IR Inten    --      9.3555               216.3763                20.2768

                     76                     77                     78
                      A                      A                      A
 Frequencies --   3043.6994              3046.2912              3055.7033
 Red. masses --      1.0396                 1.0616                 1.0659
 Frc consts  --      5.6742                 5.8045                 5.8637
 IR Inten    --     16.1865                36.0940                18.4400

                     79                     80                     81
                      A                      A                      A
 Frequencies --   3056.7740              3068.6220              3069.2305
 Red. masses --      1.0857                 1.1001                 1.0595
 Frc consts  --      5.9771                 6.1033                 5.8807
 IR Inten    --     30.6025                17.5693                33.3438

                     82                     83                     84
                      A                      A                      A
 Frequencies --   3078.2341              3081.1350              3107.0404
 Red. masses --      1.0593                 1.0997                 1.0949
 Frc consts  --      5.9138                 6.1508                 6.2276
 IR Inten    --     11.6225                19.4356                32.3775

                     85                     86                     87
                      A                      A                      A
 Frequencies --   3109.5723              3114.5349              3116.4696
 Red. masses --      1.0996                 1.0989                 1.0932
 Frc consts  --      6.2647                 6.2803                 6.2558
 IR Inten    --     53.1095                47.3907                40.4902

                     88                     89                     90
                      A                      A                      A
 Frequencies --   3119.6527              3125.4709              3134.0651
 Red. masses --      1.0931                 1.1043                 1.1048
 Frc consts  --      6.2678                 6.3560                 6.3937
 IR Inten    --     26.8322                22.6500                46.5409

                     91                     92                     93
                      A                      A                      A
 Frequencies --   3499.1697              3664.9602              3733.9764
 Red. masses --      1.0734                 1.0639                 1.0659
 Frc consts  --      7.7439                 8.4197                 8.7559
 IR Inten    --      3.5377                43.5054                 6.1214

 - Thermochemistry -
 -------------------
 Temperature   298.150 Kelvin.  Pressure   1.00000 Atm.
 Atom     1 has atomic number  6 and mass  12.00000

 Molecular mass:   201.13649 amu.
 Principal axes and moments of inertia in atomic units:
                           1         2         3
     Eigenvalues --  1850.612044671.584825451.94277
           X            0.99971   0.02388   0.00373
           Y           -0.02390   0.99971   0.00411
           Z           -0.00363  -0.00420   0.99998
 This molecule is an asymmetric top.
 Rotational symmetry number  1.
 Warning -- assumption of classical behavior for rotation
           may cause significant error
 Rotational temperatures (Kelvin)      0.04680     0.01854     0.01589
 Rotational constants (GHZ):           0.97521     0.38632     0.33103
 Zero-point vibrational energy     765529.3 (Joules/Mol)
                                  182.96589 (Kcal/Mol)
 Warning -- explicit consideration of  21 degrees of freedom as
           vibrations may cause significant error
 Vibrational temperatures:     41.76    73.91    89.69   103.49   112.86
          (Kelvin)            132.97   189.87   220.97   276.07   335.76
                              364.00   375.06   396.12   440.61   505.77
                              545.93   601.46   625.04   672.10   728.09
                              788.86   914.77   927.22   987.34  1059.29
                             1098.65  1114.07  1155.43  1178.65  1215.10
                             1227.02  1273.25  1328.06  1347.98  1396.45
                             1400.76  1428.10  1437.91  1493.65  1545.93
                             1568.84  1585.88  1630.04  1645.44  1661.03
                             1680.20  1715.02  1742.45  1760.24  1779.45
                             1826.41  1839.52  1850.28  1859.91  1884.61
                             1910.55  1918.99  1937.78  1985.58  2009.98
                             2029.83  2038.41  2073.41  2080.57  2086.34
                             2145.91  2174.79  2185.69  2192.13  2197.53
                             2209.34  2215.54  2224.99  2647.22  4366.69
                             4379.20  4382.93  4396.48  4398.02  4415.06
                             4415.94  4428.89  4433.07  4470.34  4473.98
                             4481.12  4483.90  4488.48  4496.86  4509.22
                             5034.52  5273.06  5372.36

 Zero-point correction=                           0.291575 (Hartree/Particle)
 Thermal correction to Energy=                    0.307069
 Thermal correction to Enthalpy=                  0.308013
 Thermal correction to Gibbs Free Energy=         0.247710
 Sum of electronic and zero-point Energies=           -672.659359
 Sum of electronic and thermal Energies=              -672.643865
 Sum of electronic and thermal Enthalpies=            -672.642921
 Sum of electronic and thermal Free Energies=         -672.703223

                     E (Thermal)             CV                S
                      KCal/Mol        Cal/Mol-Kelvin    Cal/Mol-Kelvin
 Total                  192.689             57.478            126.918
 Electronic               0.000              0.000              0.000
 Translational            0.889              2.981             41.801
 Rotational               0.889              2.981             32.222
 Vibrational            190.911             51.517             52.895
 Vibration     1          0.593              1.984              5.895
 Vibration     2          0.596              1.977              4.764
 Vibration     3          0.597              1.972              4.382
 Vibration     4          0.598              1.967              4.100
 Vibration     5          0.600              1.964              3.930
 Vibration     6          0.602              1.955              3.608
 Vibration     7          0.612              1.921              2.917
 Vibration     8          0.619              1.899              2.627
 Vibration     9          0.634              1.851              2.210
 Vibration    10          0.654              1.790              1.853
 Vibration    11          0.664              1.758              1.710
 Vibration    12          0.669              1.745              1.657
 Vibration    13          0.677              1.719              1.563
 Vibration    14          0.697              1.662              1.383
 Vibration    15          0.728              1.572              1.159
 Vibration    16          0.749              1.514              1.041
 Vibration    17          0.781              1.431              0.899
 Vibration    18          0.795              1.395              0.844
 Vibration    19          0.824              1.323              0.746
 Vibration    20          0.861              1.237              0.643
 Vibration    21          0.904              1.143              0.548

                           ! Non-Optimized Parameters !
 Normal termination of Gaussian 16 at Thu Dec 10 11:02:22 2020.

 ----------------------------------------------------------------------
 # B3LYP/6-311++G(d,p) empiricaldispersion=gd3bj scf=xqc pop=npa geom=c
 heck
 ----------------------------------------------------------------------

 ---------------------------------------
 CID_103255909_JID_4933_Energie_neutraal
 ---------------------------------------
 Structure from the checkpoint file:  "JID_4933.chk"
 Charge =  0 Multiplicity = 1

 SCF Done:  E(RB3LYP) =  -673.166076744     A.U. after   13 cycles
 Normal termination of Gaussian 16 at Thu Dec 10 11:06:03 2020.

 ----------------------------------------------------------------------
 # B3LYP/6-311++G(d,p) empiricaldispersion=gd3bj scf=xqc pop=npa geom=c
 heck
 ----------------------------------------------------------------------

 -------------------------------------
 CID_103255909_JID_4933_Energie_kation
 -------------------------------------
 Structure from the checkpoint file:  "JID_4933.chk"
 Charge =  1 Multiplicity = 2

 SCF Done:  E(UB3LYP) =  -672.852618944     A.U. after   22 cycles
 Normal termination of Gaussian 16 at Thu Dec 10 11:14:06 2020.
 Gaussian 16:  ES64L-G16RevA.03 25-Dec-2016

 ----------------------------------------------------------------------
 # B3LYP/6-311++G(d,p) empiricaldispersion=gd3bj scf=xqc pop=npa geom=c
 heck
 ----------------------------------------------------------------------

 ------------------------------------
 CID_103255909_JID_4933_Energie_anion
 ------------------------------------
 Structure from the checkpoint file:  "JID_4933.chk"
 Charge = -1 Multiplicity = 2

                         Standard orientation:
 ---------------------------------------------------------------------
 Center     Atomic      Atomic             Coordinates (Angstroms)
 Number     Number       Type             X           Y           Z
 ---------------------------------------------------------------------
      1          6           0       -2.942166   -2.470375   -0.318257
      2          6           0       -3.169071   -1.039684   -0.815702
      3          6           0       -3.192920    0.015212    0.302107
      4          6           0       -1.941436    0.050703    1.190332
      5          6           0       -0.605202    0.279850    0.452963
      6          6           0       -0.645100    1.632960   -0.251826
      7          8           0       -0.394493    2.689843    0.285909
      8          8           0       -1.019625    1.546904   -1.552476
      9          7           0        0.490971    0.212504    1.410014
     10          6           0        1.815553   -0.035275    0.867746
     11          6           0        2.357957    0.578136   -0.469150
     12          6           0        3.077819   -0.771875   -0.738810
     13          6           0        2.126624   -1.441672    0.291440
     14          8           0        4.453641   -0.801311   -0.393788
     15          1           0       -1.951648   -2.593156    0.134904
     16          1           0       -3.017406   -3.189633   -1.141149
     17          1           0       -3.686281   -2.748954    0.438245
     18          1           0       -2.400692   -0.776421   -1.552640
     19          1           0       -4.125703   -0.991937   -1.351822
     20          1           0       -3.358657    1.002860   -0.146970
     21          1           0       -4.058023   -0.171924    0.952407
     22          1           0       -2.050245    0.841822    1.943347
     23          1           0       -1.828974   -0.888638    1.740438
     24          1           0       -0.471493   -0.501715   -0.298554
     25          1           0       -1.046594    2.462542   -1.891749
     26          1           0        0.491291    1.081554    1.941174
     27          1           0        2.517247    0.189553    1.679158
     28          1           0        2.985007    1.473878   -0.416127
     29          1           0        1.562068    0.747157   -1.200884
     30          1           0        3.034885   -1.151442   -1.761999
     31          1           0        1.250956   -1.882394   -0.197337
     32          1           0        2.565126   -2.187464    0.962045
     33          1           0        4.543796   -0.474590    0.515192
 ---------------------------------------------------------------------

 SCF Done:  E(UB3LYP) =  -673.155020631     A.U. after   33 cycles
 SCF Done:  E(UB3LYP) =  -673.155020631     a.u. after    1 cycles

 The electronic state is 2-A.
 Alpha  occ. eigenvalues --  -19.07568 -19.03106 -19.02337 -14.21014 -10.20909
 Alpha  occ. eigenvalues --  -10.12859 -10.12012 -10.11027 -10.07915 -10.07242
 Alpha  occ. eigenvalues --  -10.07205 -10.06936 -10.06837 -10.06531  -1.01612
 Alpha  occ. eigenvalues --   -0.93398  -0.92831  -0.82763  -0.73628  -0.70755
 Alpha  occ. eigenvalues --   -0.65696  -0.60611  -0.57350  -0.55922  -0.54746
 Alpha  occ. eigenvalues --   -0.50712  -0.47080  -0.46008  -0.44097  -0.41076
 Alpha  occ. eigenvalues --   -0.40016  -0.39057  -0.37991  -0.37286  -0.35306
 Alpha  occ. eigenvalues --   -0.34527  -0.33251  -0.32323  -0.31486  -0.31216
 Alpha  occ. eigenvalues --   -0.30887  -0.29586  -0.28937  -0.28017  -0.27094
 Alpha  occ. eigenvalues --   -0.25266  -0.24624  -0.23889  -0.23135  -0.22977
 Alpha  occ. eigenvalues --   -0.22699  -0.21070  -0.19317  -0.17468  -0.13900
 Alpha  occ. eigenvalues --    0.04146
 Alpha virt. eigenvalues --    0.05710   0.06453   0.07345   0.08136   0.08775
 Alpha virt. eigenvalues --    0.08940   0.09574   0.09603   0.10585   0.10936
 Alpha virt. eigenvalues --    0.11484   0.11822   0.12042   0.12997   0.13436

  Beta  occ. eigenvalues --  -19.07511 -19.03076 -19.02313 -14.21004 -10.20896
  Beta  occ. eigenvalues --  -10.12854 -10.11997 -10.11011 -10.07909 -10.07230
  Beta  occ. eigenvalues --  -10.07188 -10.06921 -10.06819 -10.06506  -1.01533
  Beta  occ. eigenvalues --   -0.93334  -0.92761  -0.82733  -0.73603  -0.70726
  Beta  occ. eigenvalues --   -0.65656  -0.60552  -0.57314  -0.55848  -0.54698
  Beta  occ. eigenvalues --   -0.50631  -0.47020  -0.45952  -0.44047  -0.41031
  Beta  occ. eigenvalues --   -0.39970  -0.39021  -0.37944  -0.37237  -0.35266
  Beta  occ. eigenvalues --   -0.34466  -0.33217  -0.32281  -0.31455  -0.31184
  Beta  occ. eigenvalues --   -0.30855  -0.29561  -0.28902  -0.27989  -0.27063
  Beta  occ. eigenvalues --   -0.25234  -0.24595  -0.23836  -0.23100  -0.22925
  Beta  occ. eigenvalues --   -0.22668  -0.21039  -0.19266  -0.17442  -0.13875
  Beta virt. eigenvalues --    0.06321   0.06863   0.07554   0.07663   0.08451
  Beta virt. eigenvalues --    0.08985   0.09162   0.09801   0.09919   0.10878
  Beta virt. eigenvalues --    0.11251   0.11702   0.11911   0.12336   0.13071

 Mulliken charges and spin densities:
               1          2
     1  C    0.600912  -1.236349
     2  C   -0.495048   0.320786
     3  C    0.034984  -0.288194
     4  C    0.440205  -0.429460
     5  C    0.249891  -1.022059
     6  C   -0.376984   0.017443
     7  O   -0.245513   0.051831
     8  O   -0.109643   0.046702
     9  N    0.171985   0.039376
    10  C   -0.804065   0.659359
    11  C    0.220476  -0.519315
    12  C    0.275894  -0.655335
    13  C    0.258332  -0.448236
    14  O   -0.205873  -0.001535
    15  H   -0.049369   0.195213
    16  H   -0.183760   0.317900
    17  H   -0.034877   0.168430
    18  H   -0.044487   0.210730
    19  H   -0.445896   0.613342
    20  H   -0.022919   0.188183
    21  H   -0.170520   0.338395
    22  H    0.096900   0.066340
    23  H    0.166531   0.037575
    24  H    0.660342  -0.447737
    25  H   -0.507575   0.807824
    26  H    0.219114   0.042628
    27  H   -0.681029   0.866176
    28  H    0.005329   0.191398
    29  H   -0.098632   0.234678
    30  H    0.088898   0.114389
    31  H   -0.081162   0.143760
    32  H    0.031240   0.161463
    33  H    0.036319   0.214297
 Sum of Mulliken charges =  -1.00000   1.00000

 Dipole moment (field-independent basis, Debye):
    X=              0.0199    Y=             -1.3213    Z=              2.3568  Tot=              2.7020
 Quadrupole moment (field-independent basis, Debye-Ang):
   XX=           -167.6251   YY=           -133.6232   ZZ=           -124.0308
   XY=             -1.2768   XZ=             -9.3261   YZ=              4.2935

 Summary of Natural Population Analysis:

                                       Natural Population
                Natural  -----------------------------------------------
    Atom  No    Charge         Core      Valence    Rydberg      Total
 -----------------------------------------------------------------------
      C    1   -0.28671      0.99967     2.28261    0.00443     3.28671
      C    2   -0.19458      0.99964     2.18671    0.00823     3.19458
      C    3   -0.19164      0.99962     2.18273    0.00929     3.19164
      C    4   -0.18662      0.99961     2.17838    0.00863     3.18662
      C    5   -0.06021      0.99953     2.04666    0.01402     3.06021
      C    6    0.40453      0.99968     1.56856    0.02723     2.59547
      O    7   -0.30982      0.99987     3.30348    0.00648     4.30982
      O    8   -0.34367      0.99987     3.33612    0.00767     4.34367
      N    9   -0.33406      0.99972     2.82276    0.01158     3.83406
      C   10   -0.00930      0.99959     1.99491    0.01480     3.00930
      C   11   -0.21421      0.99961     2.20629    0.00832     3.21421
      C   12    0.06391      0.99958     1.92162    0.01489     2.93609
      C   13   -0.20466      0.99961     2.19719    0.00786     3.20466
      O   14   -0.36800      0.99989     3.36161    0.00649     4.36800
      H   15    0.09491      0.00000     0.40388    0.00121     0.40509
      H   16    0.09963      0.00000     0.39929    0.00108     0.40037
      H   17    0.09441      0.00000     0.40442    0.00116     0.40559
      H   18    0.09950      0.00000     0.39879    0.00171     0.40050
      H   19    0.09692      0.00000     0.40174    0.00134     0.40308
      H   20    0.10005      0.00000     0.39855    0.00140     0.39995
      H   21    0.09641      0.00000     0.40260    0.00099     0.40359
      H   22    0.10067      0.00000     0.39821    0.00113     0.39933
      H   23    0.10410      0.00000     0.39442    0.00148     0.39590
      H   24    0.10548      0.00000     0.39111    0.00341     0.39452
      H   25    0.24464      0.00000     0.24071    0.01465     0.25536
      H   26    0.18248      0.00000     0.31483    0.00269     0.31752
      H   27    0.09534      0.00000     0.40279    0.00187     0.40466
      H   28    0.10320      0.00000     0.39565    0.00115     0.39680
      H   29    0.10360      0.00000     0.39446    0.00195     0.39640
      H   30    0.08513      0.00000     0.41384    0.00103     0.41487
      H   31    0.10062      0.00000     0.39788    0.00150     0.39938
      H   32    0.10085      0.00000     0.39786    0.00130     0.39915
      H   33    0.22710      0.00000     0.26904    0.00386     0.27290
 =======================================================================
   * Total *    0.00000     13.99550    40.80968    0.19482    55.00000

 Normal termination of Gaussian 16 at Thu Dec 10 11:26:17 2020.
