 Gaussian 16, Revision A.03,

 -----------------------------------------------------------
 # opt freq B3LYP/6-31G(d) empiricaldispersion=gd3bj scf=xqc
 -----------------------------------------------------------

 ------------------------------
 CID_62049866_JID_9154_neutraal
 ------------------------------
 Symbolic Z-matrix:
 Charge =  0 Multiplicity = 1

 SCF Done:  E(RB3LYP) =  -956.269919172     A.U. after   14 cycles
 SCF Done:  E(RB3LYP) =  -956.273611311     A.U. after   14 cycles
 SCF Done:  E(RB3LYP) =  -956.256665367     A.U. after   15 cycles
 SCF Done:  E(RB3LYP) =  -956.275030421     A.U. after   13 cycles
 SCF Done:  E(RB3LYP) =  -956.276378780     A.U. after   10 cycles
 SCF Done:  E(RB3LYP) =  -956.279227383     A.U. after   12 cycles
 SCF Done:  E(RB3LYP) =  -956.282971025     A.U. after   14 cycles
 SCF Done:  E(RB3LYP) =  -956.285219502     A.U. after   14 cycles
 SCF Done:  E(RB3LYP) =  -956.286028306     A.U. after   12 cycles
 SCF Done:  E(RB3LYP) =  -956.285995437     A.U. after   12 cycles
 SCF Done:  E(RB3LYP) =  -956.287053894     A.U. after    9 cycles
 SCF Done:  E(RB3LYP) =  -956.287054388     A.U. after    9 cycles
 SCF Done:  E(RB3LYP) =  -956.287054654     A.U. after    7 cycles
 SCF Done:  E(RB3LYP) =  -956.287054679     A.U. after    6 cycles
 Optimization completed.
    -- Stationary point found.
 Normal termination of Gaussian 16 at Sun Dec 13 16:40:38 2020.

 --------------------------------------------------------------------
 #N Geom=AllCheck Guess=TCheck SCRF=Check GenChk RB3LYP/6-31G(d) Freq
 --------------------------------------------------------------------

 Structure from the checkpoint file:  "JID_9154.chk"
 ------------------------------
 CID_62049866_JID_9154_neutraal
 ------------------------------
 Charge =  0 Multiplicity = 1

 SCF Done:  E(RB3LYP) =  -956.287054678     A.U. after    1 cycles

  Exact polarizability: 170.501  -3.288 148.887   3.160  -6.547 134.749
 Approx polarizability: 237.381  -8.033 202.222  -2.825 -15.967 200.831

                      1                      2                      3
                      A                      A                      A
 Frequencies --     13.5404                30.3600                39.5009
 Red. masses --      3.9969                 3.8534                 5.9152
 Frc consts  --      0.0004                 0.0021                 0.0054
 IR Inten    --      0.2523                 0.1642                 2.3377

                      4                      5                      6
                      A                      A                      A
 Frequencies --     48.6024                55.6067                67.9987
 Red. masses --      6.8417                 5.0577                 4.9500
 Frc consts  --      0.0095                 0.0092                 0.0135
 IR Inten    --      1.4981                 0.4381                 1.9266

                      7                      8                      9
                      A                      A                      A
 Frequencies --     84.6221               101.9807               108.5366
 Red. masses --      6.0606                 4.9082                 3.4737
 Frc consts  --      0.0256                 0.0301                 0.0241
 IR Inten    --      1.2800                 1.4168                 3.1438

                     10                     11                     12
                      A                      A                      A
 Frequencies --    118.1061               153.0237               191.1732
 Red. masses --      2.8604                 5.4370                 3.8004
 Frc consts  --      0.0235                 0.0750                 0.0818
 IR Inten    --      0.2078                 2.5578                 2.7939

                     13                     14                     15
                      A                      A                      A
 Frequencies --    203.0296               224.3770               232.5523
 Red. masses --      3.0498                 2.1373                 1.7306
 Frc consts  --      0.0741                 0.0634                 0.0551
 IR Inten    --      3.5309                 0.4939                 2.1655

                     16                     17                     18
                      A                      A                      A
 Frequencies --    238.8931               249.1917               278.6386
 Red. masses --      1.5220                 2.2204                 2.3060
 Frc consts  --      0.0512                 0.0812                 0.1055
 IR Inten    --      3.0440                 1.7573                 4.3997

                     19                     20                     21
                      A                      A                      A
 Frequencies --    287.1030               292.1900               332.9049
 Red. masses --      2.2717                 1.3031                 2.3931
 Frc consts  --      0.1103                 0.0655                 0.1563
 IR Inten    --      0.8964                 0.2201                 5.9233

                     22                     23                     24
                      A                      A                      A
 Frequencies --    348.1370               373.5868               381.0930
 Red. masses --      3.4023                 2.2495                 3.0092
 Frc consts  --      0.2430                 0.1850                 0.2575
 IR Inten    --      6.6604                 2.5401                 1.8452

                     25                     26                     27
                      A                      A                      A
 Frequencies --    402.7275               424.5872               445.6417
 Red. masses --      2.7626                 2.6092                 2.4233
 Frc consts  --      0.2640                 0.2771                 0.2835
 IR Inten    --     14.3648                 1.2582                 2.4015

                     28                     29                     30
                      A                      A                      A
 Frequencies --    492.9025               515.1769               538.6660
 Red. masses --      2.5657                 2.6885                 2.2598
 Frc consts  --      0.3673                 0.4204                 0.3863
 IR Inten    --      5.7631                18.9638                10.1391

                     31                     32                     33
                      A                      A                      A
 Frequencies --    563.9327               590.1872               617.7227
 Red. masses --      2.6325                 3.0085                 3.1628
 Frc consts  --      0.4933                 0.6174                 0.7111
 IR Inten    --     56.3412                27.4070                16.4338

                     34                     35                     36
                      A                      A                      A
 Frequencies --    641.0150               683.9566               717.5806
 Red. masses --      1.7929                 1.6121                 2.5288
 Frc consts  --      0.4341                 0.4443                 0.7672
 IR Inten    --     35.6207                66.3817                57.6867

                     37                     38                     39
                      A                      A                      A
 Frequencies --    719.9159               737.9380               784.4809
 Red. masses --      2.5200                 2.4344                 2.1964
 Frc consts  --      0.7695                 0.7811                 0.7964
 IR Inten    --     45.2923                35.9777                 2.7530

                     40                     41                     42
                      A                      A                      A
 Frequencies --    793.6142               797.5882               826.3266
 Red. masses --      1.6497                 4.3849                 2.7228
 Frc consts  --      0.6122                 1.6435                 1.0954
 IR Inten    --     22.2269                34.0165                 8.6452

                     43                     44                     45
                      A                      A                      A
 Frequencies --    848.9201               875.4246               917.3743
 Red. masses --      1.8689                 2.3469                 2.2351
 Frc consts  --      0.7936                 1.0597                 1.1083
 IR Inten    --      7.8875                 5.7099                 1.5096

                     46                     47                     48
                      A                      A                      A
 Frequencies --    924.0942               946.7084               959.9965
 Red. masses --      2.2669                 1.7662                 2.3582
 Frc consts  --      1.1406                 0.9327                 1.2805
 IR Inten    --      9.4328                 3.4053                 5.7490

                     49                     50                     51
                      A                      A                      A
 Frequencies --    972.7629               996.8681              1015.6440
 Red. masses --      1.8162                 2.0296                 1.6320
 Frc consts  --      1.0126                 1.1883                 0.9918
 IR Inten    --      9.9065                16.3879                 1.7560

                     52                     53                     54
                      A                      A                      A
 Frequencies --   1040.7319              1044.9115              1068.9648
 Red. masses --      1.9373                 2.4169                 1.8852
 Frc consts  --      1.2363                 1.5548                 1.2692
 IR Inten    --      3.7515                14.7359                 9.0066

                     55                     56                     57
                      A                      A                      A
 Frequencies --   1079.3071              1090.0704              1139.0444
 Red. masses --      3.5545                 2.5731                 1.9607
 Frc consts  --      2.4396                 1.8014                 1.4988
 IR Inten    --     49.6180                 6.1744                27.7074

                     58                     59                     60
                      A                      A                      A
 Frequencies --   1149.1388              1162.5735              1202.5956
 Red. masses --      1.6556                 2.8677                 1.9614
 Frc consts  --      1.2881                 2.2837                 1.6713
 IR Inten    --     88.9903                54.5525                77.5250

                     61                     62                     63
                      A                      A                      A
 Frequencies --   1209.6568              1214.6665              1221.1055
 Red. masses --      1.8715                 1.7576                 2.2959
 Frc consts  --      1.6135                 1.5279                 2.0170
 IR Inten    --     31.6908                35.9855               123.2607

                     64                     65                     66
                      A                      A                      A
 Frequencies --   1239.6290              1249.9497              1269.8115
 Red. masses --      1.7908                 1.4991                 1.9919
 Frc consts  --      1.6213                 1.3800                 1.8924
 IR Inten    --     13.7200               117.2504               131.8466

                     67                     68                     69
                      A                      A                      A
 Frequencies --   1300.2380              1314.6983              1336.8282
 Red. masses --      1.5387                 1.5344                 1.9409
 Frc consts  --      1.5326                 1.5626                 2.0436
 IR Inten    --     24.1284                90.5570               128.2706

                     70                     71                     72
                      A                      A                      A
 Frequencies --   1345.3313              1349.2631              1373.3945
 Red. masses --      1.1368                 1.6621                 1.4994
 Frc consts  --      1.2122                 1.7828                 1.6663
 IR Inten    --     15.8403                60.9697                 8.0024

                     73                     74                     75
                      A                      A                      A
 Frequencies --   1398.2981              1412.5003              1419.3906
 Red. masses --      1.4788                 1.4765                 1.3014
 Frc consts  --      1.7035                 1.7357                 1.5448
 IR Inten    --      9.9684                 9.5933                 5.6192

                     76                     77                     78
                      A                      A                      A
 Frequencies --   1426.2876              1440.4836              1444.5485
 Red. masses --      1.2533                 1.9522                 1.3278
 Frc consts  --      1.5021                 2.3867                 1.6325
 IR Inten    --      3.8225                60.1334                34.7104

                     79                     80                     81
                      A                      A                      A
 Frequencies --   1447.5310              1481.3535              1488.2712
 Red. masses --      1.2557                 1.2971                 1.0916
 Frc consts  --      1.5502                 1.6771                 1.4246
 IR Inten    --     11.8826                28.4419                 8.4930

                     82                     83                     84
                      A                      A                      A
 Frequencies --   1503.1148              1512.9501              1515.7299
 Red. masses --      1.1125                 1.0749                 1.0972
 Frc consts  --      1.4809                 1.4497                 1.4852
 IR Inten    --      7.4971                 2.8790                 9.2025

                     85                     86                     87
                      A                      A                      A
 Frequencies --   1521.5302              1526.5926              1532.9216
 Red. masses --      1.0396                 1.0546                 1.0867
 Frc consts  --      1.4180                 1.4480                 1.5046
 IR Inten    --      3.7869                 0.2712                 5.2378

                     88                     89                     90
                      A                      A                      A
 Frequencies --   1534.6596              1535.9249              1543.1925
 Red. masses --      1.0980                 1.0869                 1.0533
 Frc consts  --      1.5236                 1.5107                 1.4779
 IR Inten    --     11.3617                16.2068                 1.5710

                     91                     92                     93
                      A                      A                      A
 Frequencies --   1551.5079              1576.2033              1791.8192
 Red. masses --      1.0570                 1.6454                 6.9734
 Frc consts  --      1.4991                 2.4085                13.1912
 IR Inten    --     11.6097               304.4181               346.6995

                     94                     95                     96
                      A                      A                      A
 Frequencies --   1819.4848              1827.9222              3025.1498
 Red. masses --      8.9041                10.8613                 1.0736
 Frc consts  --     17.3674                21.3819                 5.7888
 IR Inten    --    463.8574               123.9338                40.9468

                     97                     98                     99
                      A                      A                      A
 Frequencies --   3053.4089              3056.8720              3059.3148
 Red. masses --      1.0366                 1.0480                 1.0580
 Frc consts  --      5.6941                 5.7700                 5.8341
 IR Inten    --     11.8019                 6.9333                24.8490

                    100                    101                    102
                      A                      A                      A
 Frequencies --   3065.0271              3065.1688              3071.0513
 Red. masses --      1.0395                 1.0647                 1.0636
 Frc consts  --      5.7538                 5.8936                 5.9104
 IR Inten    --     16.9867                14.5732                24.0915

                    103                    104                    105
                      A                      A                      A
 Frequencies --   3095.2435              3109.4150              3118.8131
 Red. masses --      1.0582                 1.0991                 1.1024
 Frc consts  --      5.9731                 6.2608                 6.3180
 IR Inten    --     25.9601                 6.6176                 6.8130

                    106                    107                    108
                      A                      A                      A
 Frequencies --   3123.6465              3134.3952              3135.5231
 Red. masses --      1.1019                 1.1020                 1.0988
 Frc consts  --      6.3344                 6.3790                 6.3649
 IR Inten    --     35.0650                30.0086                11.4128

                    109                    110                    111
                      A                      A                      A
 Frequencies --   3136.0775              3144.6876              3145.0934
 Red. masses --      1.0973                 1.0979                 1.1031
 Frc consts  --      6.3584                 6.3971                 6.4288
 IR Inten    --     22.3153                25.6613                 3.3065

                    112                    113                    114
                      A                      A                      A
 Frequencies --   3146.4640              3151.9133              3169.9154
 Red. masses --      1.0903                 1.1003                 1.1065
 Frc consts  --      6.3597                 6.4403                 6.5510
 IR Inten    --      7.2734                16.4641                15.7047

                    115                    116                    117
                      A                      A                      A
 Frequencies --   3567.1347              3581.6820              3678.2872
 Red. masses --      1.0749                 1.0761                 1.0638
 Frc consts  --      8.0587                 8.1337                 8.4799
 IR Inten    --     18.0603               108.4852                45.8562

 - Thermochemistry -
 -------------------
 Temperature   298.150 Kelvin.  Pressure   1.00000 Atm.
 Atom     1 has atomic number  6 and mass  12.00000

 Molecular mass:   274.15287 amu.
 Principal axes and moments of inertia in atomic units:
                           1         2         3
     Eigenvalues --  3677.694556633.517187985.67010
           X            0.99957   0.01857   0.02279
           Y           -0.01874   0.99980   0.00739
           Z           -0.02264  -0.00781   0.99971
 This molecule is an asymmetric top.
 Rotational symmetry number  1.
 Warning -- assumption of classical behavior for rotation
           may cause significant error
 Rotational temperatures (Kelvin)      0.02355     0.01306     0.01085
 Rotational constants (GHZ):           0.49073     0.27206     0.22600
 Zero-point vibrational energy     925281.1 (Joules/Mol)
                                  221.14748 (Kcal/Mol)
 Warning -- explicit consideration of  33 degrees of freedom as
           vibrations may cause significant error
 Vibrational temperatures:     19.48    43.68    56.83    69.93    80.01
          (Kelvin)             97.83   121.75   146.73   156.16   169.93
                              220.17   275.06   292.11   322.83   334.59
                              343.71   358.53   400.90   413.08   420.40
                              478.98   500.89   537.51   548.31   579.44
                              610.89   641.18   709.18   741.22   775.02
                              811.37   849.15   888.77   922.28   984.06
                             1032.44  1035.80  1061.73  1128.69  1141.83
                             1147.55  1188.90  1221.41  1259.54  1319.90
                             1329.57  1362.10  1381.22  1399.59  1434.27
                             1461.29  1497.38  1503.39  1538.00  1552.88
                             1568.37  1638.83  1653.35  1672.68  1730.27
                             1740.43  1747.63  1756.90  1783.55  1798.40
                             1826.98  1870.75  1891.56  1923.40  1935.63
                             1941.29  1976.01  2011.84  2032.27  2042.19
                             2052.11  2072.53  2078.38  2082.67  2131.34
                             2141.29  2162.65  2176.80  2180.80  2189.14
                             2196.43  2205.53  2208.03  2209.85  2220.31
                             2232.27  2267.80  2578.03  2617.83  2629.97
                             4352.52  4393.17  4398.16  4401.67  4409.89
                             4410.09  4418.56  4453.37  4473.75  4487.28
                             4494.23  4509.70  4511.32  4512.12  4524.50
                             4525.09  4527.06  4534.90  4560.80  5132.31
                             5153.24  5292.23

 Zero-point correction=                           0.352421 (Hartree/Particle)
 Thermal correction to Energy=                    0.373569
 Thermal correction to Enthalpy=                  0.374513
 Thermal correction to Gibbs Free Energy=         0.300385
 Sum of electronic and zero-point Energies=           -955.934634
 Sum of electronic and thermal Energies=              -955.913486
 Sum of electronic and thermal Enthalpies=            -955.912542
 Sum of electronic and thermal Free Energies=         -955.986670

                     E (Thermal)             CV                S
                      KCal/Mol        Cal/Mol-Kelvin    Cal/Mol-Kelvin
 Total                  234.418             77.566            156.016
 Electronic               0.000              0.000              0.000
 Translational            0.889              2.981             42.724
 Rotational               0.889              2.981             33.632
 Vibrational            232.640             71.604             79.660
 Vibration     1          0.593              1.986              7.409
 Vibration     2          0.594              1.984              5.806
 Vibration     3          0.594              1.981              5.284
 Vibration     4          0.595              1.978              4.873
 Vibration     5          0.596              1.975              4.607
 Vibration     6          0.598              1.969              4.210
 Vibration     7          0.601              1.960              3.781
 Vibration     8          0.604              1.948              3.416
 Vibration     9          0.606              1.942              3.295
 Vibration    10          0.608              1.934              3.131
 Vibration    11          0.619              1.899              2.634
 Vibration    12          0.634              1.852              2.216
 Vibration    13          0.639              1.836              2.105
 Vibration    14          0.649              1.804              1.923
 Vibration    15          0.653              1.791              1.859
 Vibration    16          0.657              1.781              1.811
 Vibration    17          0.662              1.764              1.736
 Vibration    18          0.679              1.713              1.542
 Vibration    19          0.684              1.698              1.491
 Vibration    20          0.688              1.688              1.461
 Vibration    21          0.715              1.610              1.246
 Vibration    22          0.726              1.579              1.175
 Vibration    23          0.745              1.526              1.065
 Vibration    24          0.751              1.510              1.035
 Vibration    25          0.768              1.464              0.953
 Vibration    26          0.787              1.417              0.877
 Vibration    27          0.805              1.371              0.809
 Vibration    28          0.849              1.266              0.676
 Vibration    29          0.870              1.216              0.621
 Vibration    30          0.894              1.165              0.568
 Vibration    31          0.920              1.109              0.516
 Vibration    32          0.948              1.053              0.467
 Vibration    33          0.977              0.994              0.420

                           ! Non-Optimized Parameters !
 Normal termination of Gaussian 16 at Sun Dec 13 17:05:25 2020.

 ----------------------------------------------------------------------
 # B3LYP/6-311++G(d,p) empiricaldispersion=gd3bj scf=xqc pop=npa geom=c
 heck
 ----------------------------------------------------------------------

 --------------------------------------
 CID_62049866_JID_9154_Energie_neutraal
 --------------------------------------
 Structure from the checkpoint file:  "JID_9154.chk"
 Charge =  0 Multiplicity = 1

 SCF Done:  E(RB3LYP) =  -956.582455125     A.U. after   14 cycles
 Normal termination of Gaussian 16 at Sun Dec 13 17:15:55 2020.

 ----------------------------------------------------------------------
 # B3LYP/6-311++G(d,p) empiricaldispersion=gd3bj scf=xqc pop=npa geom=c
 heck
 ----------------------------------------------------------------------

 ------------------------------------
 CID_62049866_JID_9154_Energie_kation
 ------------------------------------
 Structure from the checkpoint file:  "JID_9154.chk"
 Charge =  1 Multiplicity = 2

 SCF Done:  E(UB3LYP) =  -956.261026879     A.U. after   33 cycles
 SCF Done:  E(UB3LYP) =  -956.262123072     a.u. after   11 cycles
 Normal termination of Gaussian 16 at Sun Dec 13 22:34:16 2020.
 Gaussian 16:  ES64L-G16RevA.03 25-Dec-2016

 ----------------------------------------------------------------------
 # B3LYP/6-311++G(d,p) empiricaldispersion=gd3bj scf=xqc pop=npa geom=c
 heck
 ----------------------------------------------------------------------

 -----------------------------------
 CID_62049866_JID_9154_Energie_anion
 -----------------------------------
 Structure from the checkpoint file:  "JID_9154.chk"
 Charge = -1 Multiplicity = 2

                         Standard orientation:
 ---------------------------------------------------------------------
 Center     Atomic      Atomic             Coordinates (Angstroms)
 Number     Number       Type             X           Y           Z
 ---------------------------------------------------------------------
      1          6           0        3.179976    2.278067    0.278858
      2          6           0        2.795082    1.542024   -0.993294
      3          8           0        2.256735    0.229272   -0.700444
      4          6           0        3.149103   -0.749406   -0.412237
      5          8           0        4.349799   -0.598678   -0.464670
      6          6           0        2.447318   -2.037354   -0.026651
      7          6           0        1.351663   -1.874634    1.038190
      8          7           0        0.174810   -1.209111    0.506301
      9          6           0       -1.055817   -1.486813    1.046694
     10          8           0       -1.249347   -2.319361    1.927490
     11          7           0       -2.119146   -0.728296    0.526163
     12          6           0       -2.373885   -0.498440   -0.922670
     13          6           0       -1.974555   -1.711816   -1.779665
     14          6           0       -3.890794   -0.279380   -1.043412
     15          6           0       -1.616404    0.750191   -1.431888
     16          6           0       -1.870043    2.031486   -0.627467
     17          6           0       -1.221061    1.998296    0.735173
     18          8           0       -0.059528    1.697135    0.940088
     19          8           0       -2.042449    2.413142    1.719430
     20          1           0        2.319083    2.343106    0.948666
     21          1           0        3.512744    3.292741    0.030928
     22          1           0        4.000599    1.763265    0.785265
     23          1           0        1.980719    2.048357   -1.515407
     24          1           0        3.647589    1.424564   -1.666657
     25          1           0        2.000849   -2.473685   -0.929014
     26          1           0        3.222768   -2.719067    0.331355
     27          1           0        1.034612   -2.857384    1.390666
     28          1           0        1.753176   -1.336749    1.909380
     29          1           0        0.330933   -0.252619    0.208950
     30          1           0       -2.955546   -1.036303    1.010175
     31          1           0       -2.499067   -2.609273   -1.434970
     32          1           0       -2.238878   -1.541085   -2.829319
     33          1           0       -0.899808   -1.896971   -1.717439
     34          1           0       -4.240016    0.504946   -0.364359
     35          1           0       -4.158725    0.003959   -2.066037
     36          1           0       -4.428442   -1.202383   -0.798358
     37          1           0       -0.540587    0.550184   -1.456460
     38          1           0       -1.917802    0.924332   -2.471389
     39          1           0       -1.418107    2.878053   -1.160214
     40          1           0       -2.934823    2.248092   -0.524247
     41          1           0       -1.526083    2.360355    2.546291
 ---------------------------------------------------------------------

 SCF Done:  E(UB3LYP) =  -956.575386924     A.U. after   33 cycles
 SCF Done:  E(UB3LYP) =  -956.575386924     a.u. after    1 cycles

 The electronic state is 2-A.
 Alpha  occ. eigenvalues --  -19.08408 -19.07710 -19.03367 -19.01847 -18.99047
 Alpha  occ. eigenvalues --  -14.23077 -14.22725 -10.22338 -10.21044 -10.19736
 Alpha  occ. eigenvalues --  -10.13855 -10.13193 -10.12530 -10.10844 -10.08455
 Alpha  occ. eigenvalues --  -10.07815 -10.07371 -10.07238 -10.06765  -1.02517
 Alpha  occ. eigenvalues --   -1.01721  -0.95370  -0.94116  -0.92611  -0.83813
 Alpha  occ. eigenvalues --   -0.81693  -0.71703  -0.70683  -0.67351  -0.66675
 Alpha  occ. eigenvalues --   -0.60730  -0.58780  -0.58079  -0.55707  -0.51448
 Alpha  occ. eigenvalues --   -0.49925  -0.48199  -0.47123  -0.43679  -0.42678
 Alpha  occ. eigenvalues --   -0.41135  -0.40813  -0.39773  -0.39007  -0.38775
 Alpha  occ. eigenvalues --   -0.38304  -0.38064  -0.35906  -0.35605  -0.34042
 Alpha  occ. eigenvalues --   -0.33976  -0.32820  -0.31882  -0.31735  -0.31444
 Alpha  occ. eigenvalues --   -0.31289  -0.30178  -0.29627  -0.29411  -0.29126
 Alpha  occ. eigenvalues --   -0.28502  -0.27736  -0.27605  -0.27129  -0.25498
 Alpha  occ. eigenvalues --   -0.24753  -0.23964  -0.23174  -0.22545  -0.20171
 Alpha  occ. eigenvalues --   -0.19118  -0.18538  -0.16431  -0.15655   0.03954
 Alpha virt. eigenvalues --    0.06210   0.06615   0.06751   0.07583   0.08289
 Alpha virt. eigenvalues --    0.08479   0.08903   0.08971   0.09726   0.09767
 Alpha virt. eigenvalues --    0.10785   0.11054   0.11156   0.11511   0.11745

  Beta  occ. eigenvalues --  -19.08406 -19.07675 -19.03365 -19.01828 -18.99044
  Beta  occ. eigenvalues --  -14.23074 -14.22707 -10.22337 -10.20989 -10.19735
  Beta  occ. eigenvalues --  -10.13836 -10.13193 -10.12528 -10.10841 -10.08420
  Beta  occ. eigenvalues --  -10.07787 -10.07337 -10.07225 -10.06745  -1.02512
  Beta  occ. eigenvalues --   -1.01646  -0.95364  -0.94110  -0.92558  -0.83804
  Beta  occ. eigenvalues --   -0.81679  -0.71675  -0.70656  -0.67316  -0.66625
  Beta  occ. eigenvalues --   -0.60683  -0.58758  -0.57987  -0.55681  -0.51375
  Beta  occ. eigenvalues --   -0.49897  -0.48151  -0.47096  -0.43656  -0.42664
  Beta  occ. eigenvalues --   -0.41072  -0.40792  -0.39725  -0.38975  -0.38703
  Beta  occ. eigenvalues --   -0.38281  -0.38033  -0.35891  -0.35521  -0.34027
  Beta  occ. eigenvalues --   -0.33957  -0.32775  -0.31854  -0.31717  -0.31427
  Beta  occ. eigenvalues --   -0.31258  -0.30126  -0.29598  -0.29386  -0.29084
  Beta  occ. eigenvalues --   -0.28484  -0.27699  -0.27589  -0.27072  -0.25482
  Beta  occ. eigenvalues --   -0.24709  -0.23931  -0.23093  -0.22529  -0.20163
  Beta  occ. eigenvalues --   -0.19084  -0.18525  -0.16417  -0.15632
  Beta virt. eigenvalues --    0.06187   0.06671   0.07101   0.07353   0.07916
  Beta virt. eigenvalues --    0.08591   0.08831   0.09036   0.09486   0.09903
  Beta virt. eigenvalues --    0.10162   0.11005   0.11226   0.11312   0.11629

 Mulliken charges and spin densities:
               1          2
     1  C    0.025000  -0.477934
     2  C   -0.098059  -0.059782
     3  O   -0.010262   0.016969
     4  C   -0.111674   0.162142
     5  O   -0.266422   0.000773
     6  C   -0.037214  -0.380487
     7  C   -0.299224   0.019843
     8  N   -0.177566   0.028761
     9  C    0.134054  -0.070023
    10  O   -0.328279  -0.002791
    11  N   -0.268939   0.051894
    12  C   -0.576615   0.569662
    13  C    0.086045  -0.520665
    14  C    0.735489  -1.299804
    15  C   -1.386089   1.452234
    16  C    3.440019  -4.207032
    17  C   -1.230546   1.247306
    18  O   -0.312568  -0.006363
    19  O   -0.101477   0.032907
    20  H    0.100066   0.105800
    21  H   -0.126294   0.265469
    22  H    0.129691   0.023523
    23  H   -0.154805   0.313813
    24  H    0.070302   0.098947
    25  H    0.114712   0.066577
    26  H    0.175202   0.013635
    27  H    0.181560   0.032400
    28  H    0.149037   0.017127
    29  H    0.633161  -0.435113
    30  H    0.283643   0.059448
    31  H    0.051704   0.111798
    32  H   -0.218302   0.382271
    33  H    0.064635   0.098316
    34  H   -0.110544   0.270620
    35  H   -0.228663   0.401647
    36  H   -0.017355   0.160384
    37  H    0.054385   0.159200
    38  H   -0.643530   0.849598
    39  H   -0.875015   1.112125
    40  H    0.320450  -0.126174
    41  H   -0.169712   0.460979
 Sum of Mulliken charges =  -1.00000   1.00000

 Dipole moment (field-independent basis, Debye):
    X=              3.8534    Y=             -4.4521    Z=              2.7075  Tot=              6.4808
 Quadrupole moment (field-independent basis, Debye-Ang):
   XX=           -181.1696   YY=           -168.6870   ZZ=           -165.4922
   XY=              1.9205   XZ=             -5.7491   YZ=             10.7859

 Summary of Natural Population Analysis:

                                       Natural Population
                Natural  -----------------------------------------------
    Atom  No    Charge         Core      Valence    Rydberg      Total
 -----------------------------------------------------------------------
      C    1   -0.30401      0.99965     2.29940    0.00496     3.30401
      C    2   -0.01528      0.99957     2.00422    0.01149     3.01528
      O    3   -0.28587      0.99986     3.27673    0.00928     4.28587
      C    4    0.41108      0.99969     1.56451    0.02471     2.58892
      O    5   -0.30724      0.99987     3.30210    0.00526     4.30724
      C    6   -0.23850      0.99958     2.23131    0.00762     3.23850
      C    7   -0.08529      0.99962     2.07578    0.00989     3.08529
      N    8   -0.35015      0.99965     2.84240    0.00811     3.85015
      C    9    0.41444      0.99970     1.56269    0.02318     2.58556
      O   10   -0.34123      0.99988     3.33666    0.00470     4.34123
      N   11   -0.34529      0.99966     2.83494    0.01069     3.84529
      C   12    0.06012      0.99957     1.92625    0.01407     2.93988
      C   13   -0.29313      0.99961     2.28710    0.00642     3.29313
      C   14   -0.29004      0.99961     2.28325    0.00718     3.29004
      C   15   -0.19476      0.99957     2.18238    0.01282     3.19476
      C   16   -0.23971      0.99956     2.22924    0.01090     3.23971
      C   17    0.42481      0.99970     1.54990    0.02559     2.57519
      O   18   -0.33172      0.99986     3.32455    0.00731     4.33172
      O   19   -0.33852      0.99987     3.33253    0.00612     4.33852
      H   20    0.11474      0.00000     0.38378    0.00148     0.38526
      H   21    0.10140      0.00000     0.39782    0.00078     0.39860
      H   22    0.10066      0.00000     0.39846    0.00088     0.39934
      H   23    0.09741      0.00000     0.40101    0.00158     0.40259
      H   24    0.09105      0.00000     0.40785    0.00110     0.40895
      H   25    0.11433      0.00000     0.38429    0.00139     0.38567
      H   26    0.10943      0.00000     0.38957    0.00100     0.39057
      H   27    0.11146      0.00000     0.38743    0.00110     0.38854
      H   28    0.09105      0.00000     0.40777    0.00118     0.40895
      H   29    0.21651      0.00000     0.27873    0.00476     0.28349
      H   30    0.19124      0.00000     0.30658    0.00217     0.30876
      H   31    0.10021      0.00000     0.39899    0.00081     0.39979
      H   32    0.10474      0.00000     0.39424    0.00102     0.39526
      H   33    0.10651      0.00000     0.39222    0.00127     0.39349
      H   34    0.10391      0.00000     0.39494    0.00115     0.39609
      H   35    0.10867      0.00000     0.38999    0.00134     0.39133
      H   36    0.09959      0.00000     0.39944    0.00097     0.40041
      H   37    0.10377      0.00000     0.39328    0.00295     0.39623
      H   38    0.10917      0.00000     0.38790    0.00293     0.39083
      H   39    0.12433      0.00000     0.37080    0.00487     0.37567
      H   40    0.10959      0.00000     0.38851    0.00190     0.39041
      H   41    0.24053      0.00000     0.25513    0.00434     0.25947
 =======================================================================
   * Total *    0.00000     18.99408    54.75469    0.25124    74.00000

 Normal termination of Gaussian 16 at Sun Dec 13 23:08:51 2020.
