 Gaussian 16, Revision A.03,

 -----------------------------------------------------------
 # opt freq B3LYP/6-31G(d) empiricaldispersion=gd3bj scf=xqc
 -----------------------------------------------------------

 -------------------------------
 CID_130659132_JID_3855_neutraal
 -------------------------------
 Symbolic Z-matrix:
 Charge =  0 Multiplicity = 1

 SCF Done:  E(RB3LYP) =  -590.253608706     A.U. after   15 cycles
 SCF Done:  E(RB3LYP) =  -590.256202526     A.U. after   12 cycles
 SCF Done:  E(RB3LYP) =  -590.255345237     A.U. after   13 cycles
 SCF Done:  E(RB3LYP) =  -590.257958707     A.U. after   12 cycles
 SCF Done:  E(RB3LYP) =  -590.258046238     A.U. after   12 cycles
 SCF Done:  E(RB3LYP) =  -590.258706764     A.U. after   12 cycles
 SCF Done:  E(RB3LYP) =  -590.259196983     A.U. after   11 cycles
 SCF Done:  E(RB3LYP) =  -590.259241576     A.U. after   10 cycles
 SCF Done:  E(RB3LYP) =  -590.259236541     A.U. after   10 cycles
 SCF Done:  E(RB3LYP) =  -590.259247989     A.U. after    9 cycles
 SCF Done:  E(RB3LYP) =  -590.263850483     A.U. after   10 cycles
 SCF Done:  E(RB3LYP) =  -590.263889099     A.U. after   10 cycles
 SCF Done:  E(RB3LYP) =  -590.263912296     A.U. after   10 cycles
 SCF Done:  E(RB3LYP) =  -590.263918295     A.U. after   10 cycles
 SCF Done:  E(RB3LYP) =  -590.263919067     A.U. after    8 cycles
 SCF Done:  E(RB3LYP) =  -590.263919244     A.U. after    7 cycles
 Optimization completed.
    -- Stationary point found.
 Normal termination of Gaussian 16 at Sun Dec 13 12:45:56 2020.

 --------------------------------------------------------------------
 #N Geom=AllCheck Guess=TCheck SCRF=Check GenChk RB3LYP/6-31G(d) Freq
 --------------------------------------------------------------------

 Structure from the checkpoint file:  "JID_3855.chk"
 -------------------------------
 CID_130659132_JID_3855_neutraal
 -------------------------------
 Charge =  0 Multiplicity = 1

 SCF Done:  E(RB3LYP) =  -590.263919244     A.U. after    1 cycles

  Exact polarizability: 110.274 -13.901 108.982  -1.689   1.071  95.143
 Approx polarizability: 159.577 -35.741 159.763  -2.359   1.443 157.823

                      1                      2                      3
                      A                      A                      A
 Frequencies --     46.7138                57.0974                63.1160
 Red. masses --      5.4320                 4.1772                 3.5675
 Frc consts  --      0.0070                 0.0080                 0.0084
 IR Inten    --      1.4844                 1.8867                 0.0252

                      4                      5                      6
                      A                      A                      A
 Frequencies --    103.3125               110.2024               185.5236
 Red. masses --      3.2815                 4.5348                 2.7939
 Frc consts  --      0.0206                 0.0324                 0.0567
 IR Inten    --      1.2205                 1.6161                 0.0401

                      7                      8                      9
                      A                      A                      A
 Frequencies --    213.0877               248.3109               323.7480
 Red. masses --      4.1524                 1.0655                 6.0962
 Frc consts  --      0.1111                 0.0387                 0.3765
 IR Inten    --      0.1897                 0.0060                 1.3009

                     10                     11                     12
                      A                      A                      A
 Frequencies --    350.0733               394.3911               408.2244
 Red. masses --      2.0385                 5.1077                 2.1211
 Frc consts  --      0.1472                 0.4681                 0.2083
 IR Inten    --      0.2176                 2.7568                 0.3326

                     13                     14                     15
                      A                      A                      A
 Frequencies --    436.6549               498.9894               509.2650
 Red. masses --      6.3457                 4.4637                 1.6669
 Frc consts  --      0.7129                 0.6548                 0.2547
 IR Inten    --     14.7215                 0.9460                70.4324

                     16                     17                     18
                      A                      A                      A
 Frequencies --    546.0097               641.2084               695.2995
 Red. masses --      1.1536                 2.7970                 2.7327
 Frc consts  --      0.2026                 0.6775                 0.7784
 IR Inten    --     72.1269                 5.1206                16.1795

                     19                     20                     21
                      A                      A                      A
 Frequencies --    702.2651               725.1481               734.5211
 Red. masses --      3.2891                 3.4279                 2.3690
 Frc consts  --      0.9557                 1.0620                 0.7530
 IR Inten    --     16.3949                18.3580                45.8562

                     22                     23                     24
                      A                      A                      A
 Frequencies --    809.3681               823.8781               851.5472
 Red. masses --      1.4503                 1.5724                 3.0981
 Frc consts  --      0.5598                 0.6288                 1.3236
 IR Inten    --      1.5995                 1.3809                 5.6761

                     25                     26                     27
                      A                      A                      A
 Frequencies --    874.5852               893.1339               919.4951
 Red. masses --      2.7510                 1.7269                 2.0785
 Frc consts  --      1.2398                 0.8116                 1.0354
 IR Inten    --      0.1312                19.0597                 0.0755

                     28                     29                     30
                      A                      A                      A
 Frequencies --    943.3290               945.9249               979.2826
 Red. masses --      1.2714                 6.0529                 2.1854
 Frc consts  --      0.6666                 3.1910                 1.2348
 IR Inten    --      2.4034                14.7685                 0.3507

                     31                     32                     33
                      A                      A                      A
 Frequencies --   1015.4317              1030.9813              1070.2596
 Red. masses --      2.7342                 1.8788                 1.4668
 Frc consts  --      1.6611                 1.1766                 0.9899
 IR Inten    --      1.2399                40.1945                 0.8224

                     34                     35                     36
                      A                      A                      A
 Frequencies --   1078.5810              1097.2718              1141.6984
 Red. masses --      2.5294                 2.3536                 2.1454
 Frc consts  --      1.7337                 1.6696                 1.6476
 IR Inten    --     16.9096                12.9971                21.2598

                     37                     38                     39
                      A                      A                      A
 Frequencies --   1163.1461              1167.8037              1237.8001
 Red. masses --      1.4863                 1.8330                 1.6972
 Frc consts  --      1.1848                 1.4729                 1.5321
 IR Inten    --      0.1741                 7.4264                 4.1796

                     40                     41                     42
                      A                      A                      A
 Frequencies --   1245.9642              1254.1039              1286.9495
 Red. masses --      1.5962                 1.3154                 1.2906
 Frc consts  --      1.4600                 1.2189                 1.2594
 IR Inten    --      8.6184                 0.6508                 0.2900

                     43                     44                     45
                      A                      A                      A
 Frequencies --   1292.2828              1306.0116              1336.2393
 Red. masses --      1.4499                 1.3859                 2.3637
 Frc consts  --      1.4266                 1.3928                 2.4866
 IR Inten    --      7.6782                 1.1507                17.4780

                     46                     47                     48
                      A                      A                      A
 Frequencies --   1356.6503              1374.1837              1389.4460
 Red. masses --      1.6693                 2.6913                 1.4875
 Frc consts  --      1.8101                 2.9943                 1.6920
 IR Inten    --     29.0942               113.0955                 4.8416

                     49                     50                     51
                      A                      A                      A
 Frequencies --   1391.0770              1417.8434              1438.3912
 Red. masses --      2.9632                 3.6221                 1.2723
 Frc consts  --      3.3785                 4.2901                 1.5509
 IR Inten    --     49.0311                 9.3838                 1.1752

                     52                     53                     54
                      A                      A                      A
 Frequencies --   1476.2514              1502.8217              1515.1545
 Red. masses --      2.3034                 1.0928                 2.2027
 Frc consts  --      2.9576                 1.4542                 2.9794
 IR Inten    --     29.9747                 6.2029                 7.3827

                     55                     56                     57
                      A                      A                      A
 Frequencies --   1522.0616              1527.0918              1527.3759
 Red. masses --      1.1204                 1.0663                 1.0521
 Frc consts  --      1.5293                 1.4651                 1.4461
 IR Inten    --      5.8636                14.2836                 2.4427

                     58                     59                     60
                      A                      A                      A
 Frequencies --   1628.2907              1777.2651              3034.1489
 Red. masses --      4.7274                 7.9383                 1.0353
 Frc consts  --      7.3848                14.7734                 5.6154
 IR Inten    --     24.9157               351.8399                30.7420

                     61                     62                     63
                      A                      A                      A
 Frequencies --   3075.3348              3078.3617              3085.6384
 Red. masses --      1.0638                 1.0688                 1.0889
 Frc consts  --      5.9280                 5.9672                 6.1085
 IR Inten    --     41.1097                14.5411                 3.0552

                     64                     65                     66
                      A                      A                      A
 Frequencies --   3102.6881              3106.7833              3125.7424
 Red. masses --      1.1011                 1.0963                 1.0887
 Frc consts  --      6.2452                 6.2347                 6.2672
 IR Inten    --     34.3593                40.0537                 4.1508

                     67                     68                     69
                      A                      A                      A
 Frequencies --   3139.2473              3145.2625              3263.6617
 Red. masses --      1.1012                 1.0996                 1.0970
 Frc consts  --      6.3939                 6.4091                 6.8842
 IR Inten    --     15.0247                57.0540                 1.6018

                     70                     71                     72
                      A                      A                      A
 Frequencies --   3286.5924              3564.0393              3666.0971
 Red. masses --      1.0990                 1.0747                 1.0820
 Frc consts  --      6.9941                 8.0433                 8.5682
 IR Inten    --      0.0644                23.6579                83.4206

 - Thermochemistry -
 -------------------
 Temperature   298.150 Kelvin.  Pressure   1.00000 Atm.
 Atom     1 has atomic number  6 and mass  12.00000

 Molecular mass:   179.10586 amu.
 Principal axes and moments of inertia in atomic units:
                           1         2         3
     Eigenvalues --  1891.787432356.882093564.73291
           X            0.98853   0.15082  -0.00777
           Y           -0.15079   0.98856   0.00438
           Z            0.00834  -0.00316   0.99996
 This molecule is an asymmetric top.
 Rotational symmetry number  1.
 Warning -- assumption of classical behavior for rotation
           may cause significant error
 Rotational temperatures (Kelvin)      0.04578     0.03675     0.02430
 Rotational constants (GHZ):           0.95399     0.76573     0.50628
 Zero-point vibrational energy     575856.8 (Joules/Mol)
                                  137.63307 (Kcal/Mol)
 Warning -- explicit consideration of  16 degrees of freedom as
           vibrations may cause significant error
 Vibrational temperatures:     67.21    82.15    90.81   148.64   158.56
          (Kelvin)            266.93   306.59   357.26   465.80   503.68
                              567.44   587.34   628.25   717.93   732.72
                              785.59   922.56  1000.38  1010.40  1043.33
                             1056.81  1164.50  1185.38  1225.19  1258.33
                             1285.02  1322.95  1357.24  1360.97  1408.97
                             1460.98  1483.35  1539.86  1551.84  1578.73
                             1642.65  1673.51  1680.21  1780.92  1792.66
                             1804.38  1851.63  1859.31  1879.06  1922.55
                             1951.92  1977.14  1999.10  2001.45  2039.96
                             2069.52  2124.00  2162.23  2179.97  2189.91
                             2197.14  2197.55  2342.75  2557.09  4365.46
                             4424.72  4429.08  4439.55  4464.08  4469.97
                             4497.25  4516.68  4525.33  4695.68  4728.67
                             5127.86  5274.70

 Zero-point correction=                           0.219332 (Hartree/Particle)
 Thermal correction to Energy=                    0.231417
 Thermal correction to Enthalpy=                  0.232361
 Thermal correction to Gibbs Free Energy=         0.180101
 Sum of electronic and zero-point Energies=           -590.044587
 Sum of electronic and thermal Energies=              -590.032502
 Sum of electronic and thermal Enthalpies=            -590.031558
 Sum of electronic and thermal Free Energies=         -590.083819

                     E (Thermal)             CV                S
                      KCal/Mol        Cal/Mol-Kelvin    Cal/Mol-Kelvin
 Total                  145.216             45.721            109.991
 Electronic               0.000              0.000              0.000
 Translational            0.889              2.981             41.455
 Rotational               0.889              2.981             31.142
 Vibrational            143.439             39.760             37.394
 Vibration     1          0.595              1.979              4.952
 Vibration     2          0.596              1.975              4.555
 Vibration     3          0.597              1.972              4.357
 Vibration     4          0.605              1.947              3.391
 Vibration     5          0.606              1.941              3.265
 Vibration     6          0.632              1.860              2.272
 Vibration     7          0.644              1.821              2.017
 Vibration     8          0.662              1.766              1.743
 Vibration     9          0.708              1.628              1.291
 Vibration    10          0.727              1.575              1.166
 Vibration    11          0.761              1.482              0.983
 Vibration    12          0.773              1.452              0.933
 Vibration    13          0.797              1.390              0.837
 Vibration    14          0.854              1.252              0.661
 Vibration    15          0.864              1.229              0.635
 Vibration    16          0.901              1.148              0.553

                           ! Non-Optimized Parameters !
 Normal termination of Gaussian 16 at Sun Dec 13 12:52:52 2020.

 ----------------------------------------------------------------------
 # B3LYP/6-311++G(d,p) empiricaldispersion=gd3bj scf=xqc pop=npa geom=c
 heck
 ----------------------------------------------------------------------

 ---------------------------------------
 CID_130659132_JID_3855_Energie_neutraal
 ---------------------------------------
 Structure from the checkpoint file:  "JID_3855.chk"
 Charge =  0 Multiplicity = 1

 SCF Done:  E(RB3LYP) =  -590.433368106     A.U. after   15 cycles
 Normal termination of Gaussian 16 at Sun Dec 13 12:55:55 2020.

 ----------------------------------------------------------------------
 # B3LYP/6-311++G(d,p) empiricaldispersion=gd3bj scf=xqc pop=npa geom=c
 heck
 ----------------------------------------------------------------------

 -------------------------------------
 CID_130659132_JID_3855_Energie_kation
 -------------------------------------
 Structure from the checkpoint file:  "JID_3855.chk"
 Charge =  1 Multiplicity = 2

 SCF Done:  E(UB3LYP) =  -590.111625916     A.U. after   29 cycles
 Normal termination of Gaussian 16 at Sun Dec 13 13:04:11 2020.
 Gaussian 16:  ES64L-G16RevA.03 25-Dec-2016

 ----------------------------------------------------------------------
 # B3LYP/6-311++G(d,p) empiricaldispersion=gd3bj scf=xqc pop=npa geom=c
 heck
 ----------------------------------------------------------------------

 ------------------------------------
 CID_130659132_JID_3855_Energie_anion
 ------------------------------------
 Structure from the checkpoint file:  "JID_3855.chk"
 Charge = -1 Multiplicity = 2

                         Standard orientation:
 ---------------------------------------------------------------------
 Center     Atomic      Atomic             Coordinates (Angstroms)
 Number     Number       Type             X           Y           Z
 ---------------------------------------------------------------------
      1          6           0       -1.763808   -2.930931    0.003960
      2          6           0       -1.042082   -1.591250    0.001565
      3          6           0       -1.471296   -0.563018    1.086503
      4          6           0       -1.775050    0.500736   -0.018337
      5          6           0       -1.453148   -0.576395   -1.103724
      6          6           0       -1.017181    1.816627   -0.010576
      7          8           0       -1.615827    2.884610    0.016705
      8          7           0        0.367913    1.832752   -0.039810
      9          6           0        1.296851    0.771136   -0.009143
     10          6           0        1.898627    0.153201   -1.095264
     11          7           0        2.735404   -0.777824   -0.578688
     12          7           0        2.738534   -0.808384    0.775624
     13          6           0        1.870952    0.137906    1.123614
     14          1           0       -1.510501   -3.515799    0.896562
     15          1           0       -2.852302   -2.791390   -0.006606
     16          1           0       -1.495866   -3.528777   -0.876062
     17          1           0        0.039156   -1.756070    0.016974
     18          1           0       -2.373979   -0.855940    1.632253
     19          1           0       -0.705846   -0.292353    1.816209
     20          1           0       -2.820739    0.809778   -0.028338
     21          1           0       -0.678453   -0.312649   -1.826443
     22          1           0       -2.347944   -0.877230   -1.658386
     23          1           0        0.728289    2.779955   -0.004064
     24          1           0        1.780498    0.308839   -2.157379
     25          1           0        3.333428   -1.418816   -1.077914
     26          1           0        1.674733    0.339686    2.168086
 ---------------------------------------------------------------------

 SCF Done:  E(UB3LYP) =  -590.424971209     A.U. after   30 cycles

 The electronic state is 2-A.
 Alpha  occ. eigenvalues --  -18.99695 -14.28941 -14.25049 -14.23972 -10.18287
 Alpha  occ. eigenvalues --  -10.11440 -10.11226 -10.09950 -10.08893 -10.07753
 Alpha  occ. eigenvalues --  -10.07613 -10.07323 -10.06379  -0.95486  -0.94814
 Alpha  occ. eigenvalues --   -0.83322  -0.75502  -0.72677  -0.68057  -0.64001
 Alpha  occ. eigenvalues --   -0.57321  -0.56466  -0.53368  -0.51425  -0.48598
 Alpha  occ. eigenvalues --   -0.46381  -0.44280  -0.40080  -0.39631  -0.37432
 Alpha  occ. eigenvalues --   -0.35912  -0.35185  -0.34082  -0.33795  -0.32557
 Alpha  occ. eigenvalues --   -0.31602  -0.30494  -0.29924  -0.27580  -0.24223
 Alpha  occ. eigenvalues --   -0.23901  -0.21629  -0.21193  -0.20844  -0.17499
 Alpha  occ. eigenvalues --   -0.16856  -0.16710  -0.15359   0.04395
 Alpha virt. eigenvalues --    0.06616   0.07627   0.08052   0.08713   0.09054
 Alpha virt. eigenvalues --    0.09507   0.10126   0.10443   0.11034   0.11568
 Alpha virt. eigenvalues --    0.12196   0.12650   0.13007   0.13754   0.14395

  Beta  occ. eigenvalues --  -18.99694 -14.28868 -14.25044 -14.23971 -10.18288
  Beta  occ. eigenvalues --  -10.11404 -10.11227 -10.09941 -10.08890 -10.07746
  Beta  occ. eigenvalues --  -10.07607 -10.07308 -10.06352  -0.95436  -0.94805
  Beta  occ. eigenvalues --   -0.83311  -0.75488  -0.72599  -0.68002  -0.63975
  Beta  occ. eigenvalues --   -0.57292  -0.56435  -0.53300  -0.51349  -0.48572
  Beta  occ. eigenvalues --   -0.46291  -0.44244  -0.40012  -0.39600  -0.37404
  Beta  occ. eigenvalues --   -0.35836  -0.35159  -0.34059  -0.33772  -0.32527
  Beta  occ. eigenvalues --   -0.31585  -0.30470  -0.29908  -0.27555  -0.24209
  Beta  occ. eigenvalues --   -0.23878  -0.21612  -0.21176  -0.20826  -0.17470
  Beta  occ. eigenvalues --   -0.16845  -0.16698  -0.15350
  Beta virt. eigenvalues --    0.06661   0.07696   0.08337   0.08372   0.08974
  Beta virt. eigenvalues --    0.09479   0.10366   0.10474   0.10655   0.11397
  Beta virt. eigenvalues --    0.11726   0.12295   0.12813   0.13318   0.14096

 Mulliken charges and spin densities:
               1          2
     1  C    0.539901  -1.065698
     2  C   -0.564590   1.110959
     3  C    0.148285  -0.698499
     4  C   -0.074968   0.386456
     5  C    0.273903  -0.864760
     6  C   -0.212919   0.040016
     7  O   -0.351377   0.001316
     8  N   -0.352345   0.156756
     9  C    0.368640  -0.778912
    10  C    0.621956  -0.799309
    11  N    0.434950  -0.436708
    12  N   -0.302308   0.207082
    13  C    0.152142  -0.393607
    14  H   -0.100174   0.234465
    15  H   -0.032719   0.156062
    16  H   -0.279838   0.431827
    17  H    0.152736  -0.007181
    18  H   -0.049521   0.204288
    19  H    0.125521   0.011355
    20  H    0.239647   0.015278
    21  H    0.179668  -0.011173
    22  H   -0.219541   0.378299
    23  H    0.241052   0.066679
    24  H   -1.292524   1.482310
    25  H   -0.761036   1.136500
    26  H    0.115460   0.036197
 Sum of Mulliken charges =  -1.00000   1.00000

 Dipole moment (field-independent basis, Debye):
    X=             -4.7305    Y=              3.6172    Z=              5.7160  Tot=              8.2544
 Quadrupole moment (field-independent basis, Debye-Ang):
   XX=           -137.5922   YY=           -129.1219   ZZ=           -117.5724
   XY=             15.8395   XZ=             12.4055   YZ=             -5.4690

 Summary of Natural Population Analysis:

                                       Natural Population
                Natural  -----------------------------------------------
    Atom  No    Charge         Core      Valence    Rydberg      Total
 -----------------------------------------------------------------------
      C    1   -0.28248      0.99965     2.27725    0.00558     3.28248
      C    2   -0.11883      0.99961     2.10828    0.01094     3.11883
      C    3   -0.17938      0.99962     2.17296    0.00681     3.17938
      C    4   -0.15250      0.99956     2.14198    0.01096     3.15250
      C    5   -0.17932      0.99962     2.17133    0.00837     3.17932
      C    6    0.35273      0.99963     1.62553    0.02210     2.64727
      O    7   -0.32475      0.99988     3.31912    0.00576     4.32475
      N    8   -0.32119      0.99964     2.81169    0.00985     3.82119
      C    9   -0.00299      0.99946     1.98970    0.01383     3.00299
      C   10   -0.00010      0.99951     1.98642    0.01417     3.00010
      N   11   -0.15973      0.99970     2.64505    0.01498     3.65973
      N   12   -0.15102      0.99974     2.63750    0.01379     3.65102
      C   13   -0.01556      0.99956     2.00244    0.01356     3.01556
      H   14    0.09886      0.00000     0.40023    0.00091     0.40114
      H   15    0.09261      0.00000     0.40622    0.00116     0.40739
      H   16    0.10335      0.00000     0.39559    0.00106     0.39665
      H   17    0.10431      0.00000     0.39274    0.00296     0.39569
      H   18    0.09724      0.00000     0.40182    0.00094     0.40276
      H   19    0.10146      0.00000     0.39730    0.00124     0.39854
      H   20    0.10941      0.00000     0.38953    0.00106     0.39059
      H   21    0.10502      0.00000     0.39315    0.00183     0.39498
      H   22    0.09837      0.00000     0.40058    0.00105     0.40163
      H   23    0.19541      0.00000     0.30211    0.00248     0.30459
      H   24    0.11621      0.00000     0.37741    0.00637     0.38379
      H   25    0.21431      0.00000     0.25405    0.03164     0.28569
      H   26    0.09857      0.00000     0.40044    0.00099     0.40143
 =======================================================================
   * Total *    0.00000     12.99518    34.80045    0.20437    48.00000

 Normal termination of Gaussian 16 at Sun Dec 13 13:12:46 2020.
