 Gaussian 16, Revision A.03,

 -----------------------------------------------------------
 # opt freq B3LYP/6-31G(d) empiricaldispersion=gd3bj scf=xqc
 -----------------------------------------------------------

 --------------------------------
 CID_108138467_JID_10627_neutraal
 --------------------------------
 Symbolic Z-matrix:
 Charge =  0 Multiplicity = 1

 SCF Done:  E(RB3LYP) =  -968.120855764     A.U. after   15 cycles
 SCF Done:  E(RB3LYP) =  -968.129228824     A.U. after   15 cycles
 SCF Done:  E(RB3LYP) =  -968.125422046     A.U. after   16 cycles
 SCF Done:  E(RB3LYP) =  -968.133751710     A.U. after   14 cycles
 SCF Done:  E(RB3LYP) =  -968.136519117     A.U. after   15 cycles
 SCF Done:  E(RB3LYP) =  -968.138760211     A.U. after   17 cycles
 SCF Done:  E(RB3LYP) =  -968.141121346     A.U. after   14 cycles
 SCF Done:  E(RB3LYP) =  -968.143597518     A.U. after   16 cycles
 SCF Done:  E(RB3LYP) =  -968.144254772     A.U. after   14 cycles
 SCF Done:  E(RB3LYP) =  -968.144434670     A.U. after   14 cycles
 SCF Done:  E(RB3LYP) =  -968.146726056     A.U. after   10 cycles
 SCF Done:  E(RB3LYP) =  -968.146725124     A.U. after   10 cycles
 SCF Done:  E(RB3LYP) =  -968.146727194     A.U. after   10 cycles
 SCF Done:  E(RB3LYP) =  -968.146727234     A.U. after    7 cycles
 SCF Done:  E(RB3LYP) =  -968.146727240     A.U. after    6 cycles
 SCF Done:  E(RB3LYP) =  -968.146727246     A.U. after    7 cycles
 Optimization completed.
    -- Stationary point found.
 Normal termination of Gaussian 16 at Sun Dec 13 21:18:38 2020.

 --------------------------------------------------------------------
 #N Geom=AllCheck Guess=TCheck SCRF=Check GenChk RB3LYP/6-31G(d) Freq
 --------------------------------------------------------------------

 Structure from the checkpoint file:  "JID_10627.chk"
 --------------------------------
 CID_108138467_JID_10627_neutraal
 --------------------------------
 Charge =  0 Multiplicity = 1

 SCF Done:  E(RB3LYP) =  -968.146727246     A.U. after    1 cycles

  Exact polarizability: 233.842  -6.955 203.452   1.929  -3.703 111.447
 Approx polarizability: 339.495 -18.577 301.206  -7.697 -15.364 186.672

                      1                      2                      3
                      A                      A                      A
 Frequencies --     20.7911                42.7930                46.8408
 Red. masses --      2.5396                 3.0223                 5.5855
 Frc consts  --      0.0006                 0.0033                 0.0072
 IR Inten    --      0.1588                 0.3752                 2.3709

                      4                      5                      6
                      A                      A                      A
 Frequencies --     65.6930                81.3142                94.7565
 Red. masses --      6.1636                 3.1474                 4.9045
 Frc consts  --      0.0157                 0.0123                 0.0259
 IR Inten    --      2.1469                 5.7747                 0.8912

                      7                      8                      9
                      A                      A                      A
 Frequencies --    104.5935               165.9592               168.3303
 Red. masses --      3.5076                 5.2707                 3.9063
 Frc consts  --      0.0226                 0.0855                 0.0652
 IR Inten    --      1.7866                 1.9817                 1.5122

                     10                     11                     12
                      A                      A                      A
 Frequencies --    188.9117               193.9072               215.1140
 Red. masses --      2.6763                 1.7711                 2.5542
 Frc consts  --      0.0563                 0.0392                 0.0696
 IR Inten    --      4.2493                 1.5827                 2.5708

                     13                     14                     15
                      A                      A                      A
 Frequencies --    223.8470               242.6075               255.9399
 Red. masses --      3.7728                 4.3362                 3.2816
 Frc consts  --      0.1114                 0.1504                 0.1267
 IR Inten    --      5.1547                 2.5670                 7.3751

                     16                     17                     18
                      A                      A                      A
 Frequencies --    270.3538               295.5821               306.8835
 Red. masses --      1.5486                 4.1164                 3.5518
 Frc consts  --      0.0667                 0.2119                 0.1971
 IR Inten    --      1.0366                 4.7894                 0.6648

                     19                     20                     21
                      A                      A                      A
 Frequencies --    329.2735               340.1864               350.0509
 Red. masses --      2.6438                 1.3070                 2.9772
 Frc consts  --      0.1689                 0.0891                 0.2149
 IR Inten    --     20.0961               137.9410                 8.7901

                     22                     23                     24
                      A                      A                      A
 Frequencies --    379.8937               427.7773               433.3884
 Red. masses --      3.2997                 2.5292                 2.0626
 Frc consts  --      0.2806                 0.2727                 0.2283
 IR Inten    --      7.5739                 3.4568                 3.0119

                     25                     26                     27
                      A                      A                      A
 Frequencies --    471.7877               480.5360               486.2584
 Red. masses --      3.0079                 1.3346                 3.7709
 Frc consts  --      0.3945                 0.1816                 0.5253
 IR Inten    --     21.0542                58.9114                12.7432

                     28                     29                     30
                      A                      A                      A
 Frequencies --    511.5075               574.0971               597.8466
 Red. masses --      2.2157                 6.9774                 4.0119
 Frc consts  --      0.3416                 1.3549                 0.8448
 IR Inten    --      1.6345                 2.5901                 6.4875

                     31                     32                     33
                      A                      A                      A
 Frequencies --    613.8271               631.7495               721.2101
 Red. masses --      5.7401                 5.4299                 6.9777
 Frc consts  --      1.2743                 1.2768                 2.1384
 IR Inten    --      3.0488                 3.3269                 4.5788

                     34                     35                     36
                      A                      A                      A
 Frequencies --    733.1854               746.2411               771.5900
 Red. masses --      2.8108                 5.4920                10.8905
 Frc consts  --      0.8902                 1.8019                 3.8201
 IR Inten    --      0.3778                 9.0120                 6.0610

                     37                     38                     39
                      A                      A                      A
 Frequencies --    796.8842               815.5884               821.5549
 Red. masses --      8.7047                 1.4496                 2.3443
 Frc consts  --      3.2568                 0.5681                 0.9323
 IR Inten    --     30.9731                 0.8348                 5.3357

                     40                     41                     42
                      A                      A                      A
 Frequencies --    850.0685               870.7364               875.0319
 Red. masses --      9.5461                 2.7442                 1.8435
 Frc consts  --      4.0643                 1.2259                 0.8316
 IR Inten    --     11.0612                 7.6816                10.3840

                     43                     44                     45
                      A                      A                      A
 Frequencies --    901.0761               930.3965               934.5961
 Red. masses --      2.0600                 1.9777                 1.9701
 Frc consts  --      0.9855                 1.0086                 1.0139
 IR Inten    --      9.3863                 1.5545                 3.0017

                     46                     47                     48
                      A                      A                      A
 Frequencies --   1013.6836              1019.7164              1036.8046
 Red. masses --      2.2077                 3.8066                 2.1287
 Frc consts  --      1.3366                 2.3321                 1.3482
 IR Inten    --     52.6549                 3.6718                11.4691

                     49                     50                     51
                      A                      A                      A
 Frequencies --   1042.9028              1057.8844              1069.3635
 Red. masses --      2.3967                 1.9272                 1.5917
 Frc consts  --      1.5359                 1.2708                 1.0724
 IR Inten    --     13.8365                10.2149                 3.8762

                     52                     53                     54
                      A                      A                      A
 Frequencies --   1091.3041              1098.9927              1125.6913
 Red. masses --      1.9627                 1.9449                 3.3527
 Frc consts  --      1.3772                 1.3840                 2.5031
 IR Inten    --     16.5808                12.4774                52.3354

                     55                     56                     57
                      A                      A                      A
 Frequencies --   1152.2949              1170.7369              1178.2898
 Red. masses --      2.5863                 2.1019                 1.7233
 Frc consts  --      2.0233                 1.6974                 1.4097
 IR Inten    --      6.8729                20.4961                 8.5332

                     58                     59                     60
                      A                      A                      A
 Frequencies --   1199.3867              1221.9552              1231.0576
 Red. masses --      2.7307                 1.7629                 1.8631
 Frc consts  --      2.3144                 1.5509                 1.6636
 IR Inten    --     22.9848                 5.4002                25.4293

                     61                     62                     63
                      A                      A                      A
 Frequencies --   1267.4621              1289.4046              1299.4226
 Red. masses --      2.1420                 1.1719                 1.3981
 Frc consts  --      2.0274                 1.1479                 1.3908
 IR Inten    --     23.0894                61.6572                31.1439

                     64                     65                     66
                      A                      A                      A
 Frequencies --   1311.9754              1318.7571              1329.3628
 Red. masses --      1.6221                 1.2103                 1.9627
 Frc consts  --      1.6450                 1.2401                 2.0436
 IR Inten    --    191.9727                23.3483               146.3418

                     67                     68                     69
                      A                      A                      A
 Frequencies --   1367.2837              1372.1900              1379.4321
 Red. masses --      2.3496                 1.5688                 2.4896
 Frc consts  --      2.5879                 1.7404                 2.7911
 IR Inten    --      8.4825                75.8186               255.5376

                     70                     71                     72
                      A                      A                      A
 Frequencies --   1395.4883              1402.5867              1408.4871
 Red. masses --      1.6908                 1.6504                 1.5107
 Frc consts  --      1.9400                 1.9129                 1.7658
 IR Inten    --    149.7183                 8.2673                 7.7272

                     73                     74                     75
                      A                      A                      A
 Frequencies --   1414.2754              1424.5781              1434.6877
 Red. masses --      1.6626                 1.4456                 1.3291
 Frc consts  --      1.9594                 1.7286                 1.6118
 IR Inten    --      6.5575                96.8742                16.6383

                     76                     77                     78
                      A                      A                      A
 Frequencies --   1445.3956              1452.8582              1465.6783
 Red. masses --      1.3455                 2.6221                 1.5422
 Frc consts  --      1.6561                 3.2610                 1.9520
 IR Inten    --     22.3041                 6.6795                52.5345

                     79                     80                     81
                      A                      A                      A
 Frequencies --   1490.7715              1505.9013              1509.3171
 Red. masses --      1.1894                 1.0951                 1.0527
 Frc consts  --      1.5574                 1.4632                 1.4129
 IR Inten    --     19.0226                24.5809                11.6639

                     82                     83                     84
                      A                      A                      A
 Frequencies --   1514.0621              1523.2466              1524.7083
 Red. masses --      1.1292                 1.1124                 1.0444
 Frc consts  --      1.5251                 1.5207                 1.4305
 IR Inten    --     58.8476                 7.4356                 8.0205

                     85                     86                     87
                      A                      A                      A
 Frequencies --   1528.2147              1531.7147              1549.7809
 Red. masses --      1.3218                 1.1576                 2.1719
 Frc consts  --      1.8188                 1.6002                 3.0735
 IR Inten    --    235.4689                57.9856                85.0582

                     88                     89                     90
                      A                      A                      A
 Frequencies --   1552.8309              1562.7182              1596.1246
 Red. masses --      1.1412                 3.6091                 7.4694
 Frc consts  --      1.6213                 5.1929                11.2116
 IR Inten    --     95.3489                61.2829               208.8644

                     91                     92                     93
                      A                      A                      A
 Frequencies --   1622.7971              1627.8191              2976.0541
 Red. masses --      6.7312                 5.4964                 1.0827
 Frc consts  --     10.4441                 8.5810                 5.6502
 IR Inten    --    920.1124               720.8898                54.0756

                     94                     95                     96
                      A                      A                      A
 Frequencies --   2993.7344              2997.8532              3028.2301
 Red. masses --      1.0747                 1.0764                 1.0723
 Frc consts  --      5.6750                 5.6996                 5.7934
 IR Inten    --     25.2002                84.6879                35.8338

                     97                     98                     99
                      A                      A                      A
 Frequencies --   3041.8700              3052.8048              3065.7766
 Red. masses --      1.0678                 1.0379                 1.0637
 Frc consts  --      5.8214                 5.6993                 5.8906
 IR Inten    --     57.1025                26.4619                34.5499

                    100                    101                    102
                      A                      A                      A
 Frequencies --   3077.4381              3097.5515              3103.4817
 Red. masses --      1.0359                 1.0918                 1.0966
 Frc consts  --      5.7805                 6.1719                 6.2232
 IR Inten    --      4.0809                 1.4131                31.5690

                    103                    104                    105
                      A                      A                      A
 Frequencies --   3119.7303              3122.7647              3137.5612
 Red. masses --      1.1013                 1.1008                 1.1021
 Frc consts  --      6.3153                 6.3249                 6.3925
 IR Inten    --     23.5117                38.5967                23.7313

                    106                    107                    108
                      A                      A                      A
 Frequencies --   3138.9548              3172.8170              3173.1382
 Red. masses --      1.0995                 1.0896                 1.1044
 Frc consts  --      6.3829                 6.4627                 6.5515
 IR Inten    --      5.1817                 5.3853                11.3075

                    109                    110                    111
                      A                      A                      A
 Frequencies --   3188.7609              3632.2253              3695.9014
 Red. masses --      1.0872                 1.0769                 1.0665
 Frc consts  --      6.5134                 8.3710                 8.5831
 IR Inten    --      9.4603                79.3545               221.3353

 - Thermochemistry -
 -------------------
 Temperature   298.150 Kelvin.  Pressure   1.00000 Atm.
 Atom     1 has atomic number  6 and mass  12.00000

 Molecular mass:   281.14879 amu.
 Principal axes and moments of inertia in atomic units:
                           1         2         3
     Eigenvalues --  4028.009956893.71427**********
           X            0.99998  -0.00085   0.00611
           Y            0.00086   1.00000  -0.00242
           Z           -0.00611   0.00243   0.99998
 This molecule is an asymmetric top.
 Rotational symmetry number  1.
 Warning -- assumption of classical behavior for rotation
           may cause significant error
 Rotational temperatures (Kelvin)      0.02150     0.01256     0.00833
 Rotational constants (GHZ):           0.44805     0.26180     0.17365
 Zero-point vibrational energy     857283.5 (Joules/Mol)
                                  204.89567 (Kcal/Mol)
 Warning -- explicit consideration of  31 degrees of freedom as
           vibrations may cause significant error
 Vibrational temperatures:     29.91    61.57    67.39    94.52   116.99
          (Kelvin)            136.33   150.49   238.78   242.19   271.80
                              278.99   309.50   322.07   349.06   368.24
                              388.98   425.28   441.54   473.75   489.45
                              503.65   546.58   615.48   623.55   678.80
                              691.38   699.62   735.95   826.00   860.17
                              883.16   908.95  1037.66  1054.89  1073.67
                             1110.15  1146.54  1173.45  1182.03  1223.06
                             1252.80  1258.98  1296.45  1338.63  1344.68
                             1458.46  1467.14  1491.73  1500.50  1522.06
                             1538.58  1570.14  1581.21  1619.62  1657.90
                             1684.43  1695.30  1725.65  1758.12  1771.22
                             1823.60  1855.17  1869.58  1887.64  1897.40
                             1912.66  1967.22  1974.28  1984.70  2007.80
                             2018.01  2026.50  2034.83  2049.65  2064.20
                             2079.60  2090.34  2108.78  2144.89  2166.66
                             2171.57  2178.40  2191.61  2193.72  2198.76
                             2203.80  2229.79  2234.18  2248.40  2296.47
                             2334.84  2342.07  4281.88  4307.32  4313.24
                             4356.95  4376.57  4392.31  4410.97  4427.75
                             4456.69  4465.22  4488.60  4492.96  4514.25
                             4516.26  4564.98  4565.44  4587.92  5225.96
                             5317.58

 Zero-point correction=                           0.326522 (Hartree/Particle)
 Thermal correction to Energy=                    0.345797
 Thermal correction to Enthalpy=                  0.346741
 Thermal correction to Gibbs Free Energy=         0.278060
 Sum of electronic and zero-point Energies=           -967.820205
 Sum of electronic and thermal Energies=              -967.800931
 Sum of electronic and thermal Enthalpies=            -967.799986
 Sum of electronic and thermal Free Energies=         -967.868667

                     E (Thermal)             CV                S
                      KCal/Mol        Cal/Mol-Kelvin    Cal/Mol-Kelvin
 Total                  216.991             72.804            144.551
 Electronic               0.000              0.000              0.000
 Translational            0.889              2.981             42.799
 Rotational               0.889              2.981             34.022
 Vibrational            215.213             66.843             67.729
 Vibration     1          0.593              1.986              6.557
 Vibration     2          0.595              1.980              5.125
 Vibration     3          0.595              1.979              4.946
 Vibration     4          0.597              1.971              4.278
 Vibration     5          0.600              1.962              3.859
 Vibration     6          0.603              1.953              3.559
 Vibration     7          0.605              1.946              3.367
 Vibration     8          0.624              1.884              2.481
 Vibration     9          0.625              1.881              2.454
 Vibration    10          0.633              1.855              2.238
 Vibration    11          0.635              1.848              2.190
 Vibration    12          0.645              1.818              2.000
 Vibration    13          0.649              1.805              1.928
 Vibration    14          0.659              1.775              1.784
 Vibration    15          0.666              1.753              1.689
 Vibration    16          0.674              1.728              1.594
 Vibration    17          0.690              1.682              1.442
 Vibration    18          0.697              1.661              1.379
 Vibration    19          0.712              1.617              1.264
 Vibration    20          0.720              1.595              1.211
 Vibration    21          0.727              1.575              1.166
 Vibration    22          0.750              1.513              1.040
 Vibration    23          0.789              1.410              0.866
 Vibration    24          0.794              1.397              0.848
 Vibration    25          0.829              1.313              0.733
 Vibration    26          0.837              1.293              0.709
 Vibration    27          0.842              1.281              0.693
 Vibration    28          0.867              1.224              0.630
 Vibration    29          0.930              1.087              0.496
 Vibration    30          0.956              1.036              0.453
 Vibration    31          0.973              1.003              0.426

 Optimization completed.
    -- Stationary point found.
 Normal termination of Gaussian 16 at Sun Dec 13 21:38:01 2020.

 ----------------------------------------------------------------------
 # B3LYP/6-311++G(d,p) empiricaldispersion=gd3bj scf=xqc pop=npa geom=c
 heck
 ----------------------------------------------------------------------

 ----------------------------------------
 CID_108138467_JID_10627_Energie_neutraal
 ----------------------------------------
 Structure from the checkpoint file:  "JID_10627.chk"
 Charge =  0 Multiplicity = 1

 SCF Done:  E(RB3LYP) =  -968.425784157     A.U. after   16 cycles
 Normal termination of Gaussian 16 at Sun Dec 13 21:45:47 2020.

 ----------------------------------------------------------------------
 # B3LYP/6-311++G(d,p) empiricaldispersion=gd3bj scf=xqc pop=npa geom=c
 heck
 ----------------------------------------------------------------------

 --------------------------------------
 CID_108138467_JID_10627_Energie_kation
 --------------------------------------
 Structure from the checkpoint file:  "JID_10627.chk"
 Charge =  1 Multiplicity = 2

 SCF Done:  E(UB3LYP) =  -968.132681287     A.U. after   29 cycles
 Normal termination of Gaussian 16 at Sun Dec 13 22:04:52 2020.
 Gaussian 16:  ES64L-G16RevA.03 25-Dec-2016

 ----------------------------------------------------------------------
 # B3LYP/6-311++G(d,p) empiricaldispersion=gd3bj scf=xqc pop=npa geom=c
 heck
 ----------------------------------------------------------------------

 -------------------------------------
 CID_108138467_JID_10627_Energie_anion
 -------------------------------------
 Structure from the checkpoint file:  "JID_10627.chk"
 Charge = -1 Multiplicity = 2

                         Standard orientation:
 ---------------------------------------------------------------------
 Center     Atomic      Atomic             Coordinates (Angstroms)
 Number     Number       Type             X           Y           Z
 ---------------------------------------------------------------------
      1          6           0        5.144661   -2.383803    0.002066
      2          6           0        3.710366   -1.950160    0.284986
      3          7           0        3.568896   -0.515369    0.098972
      4          6           0        2.387796    0.130937   -0.009046
      5          7           0        2.471449    1.479132   -0.137564
      6          6           0        1.322096    2.146296   -0.138069
      7          6           0        0.086236    1.463986   -0.043464
      8          6           0        0.097686    0.030881   -0.085143
      9          7           0        1.273316   -0.608483   -0.020361
     10          7           0       -1.014382   -0.742048   -0.230186
     11          6           0       -0.897873   -2.202588   -0.115016
     12          6           0       -2.186081   -2.793786    0.463231
     13          6           0       -3.414183   -2.387051   -0.356485
     14          6           0       -3.487430   -0.861369   -0.460193
     15          6           0       -2.169894   -0.322956   -1.030868
     16          8           0       -3.778116   -0.361720    0.831111
     17          7           0       -1.103981    2.202991    0.265915
     18          8           0       -1.295962    3.294538   -0.278646
     19          8           0       -1.884435    1.720131    1.106742
     20          6           0        1.443011    3.645462   -0.191953
     21          1           0        5.430290   -2.147616   -1.028572
     22          1           0        5.249281   -3.463013    0.148594
     23          1           0        5.851046   -1.886622    0.677895
     24          1           0        3.008657   -2.449372   -0.390110
     25          1           0        3.418713   -2.232667    1.306653
     26          1           0        4.383726    0.080456    0.141199
     27          1           0       -0.688926   -2.629800   -1.109673
     28          1           0       -0.040492   -2.423877    0.517629
     29          1           0       -2.311014   -2.433457    1.488897
     30          1           0       -2.085543   -3.884880    0.499059
     31          1           0       -4.332612   -2.757343    0.110472
     32          1           0       -3.360198   -2.815236   -1.367179
     33          1           0       -4.280883   -0.576411   -1.172037
     34          1           0       -2.205721    0.759235   -1.129736
     35          1           0       -2.046439   -0.727714   -2.048862
     36          1           0       -3.323913    0.489921    0.952183
     37          1           0        0.883638    4.128535    0.614667
     38          1           0        2.500271    3.903066   -0.114598
     39          1           0        1.032791    4.034550   -1.127852
 ---------------------------------------------------------------------

 SCF Done:  E(UB3LYP) =  -968.459073479     A.U. after   26 cycles

 The electronic state is 2-A.
 Alpha  occ. eigenvalues --  -18.98293 -18.93613 -18.93581 -14.30386 -14.21685
 Alpha  occ. eigenvalues --  -14.21500 -14.17319 -14.16997 -10.13741 -10.12360
 Alpha  occ. eigenvalues --  -10.11395 -10.10871 -10.09239 -10.09123 -10.08958
 Alpha  occ. eigenvalues --  -10.08809 -10.06542 -10.06424 -10.06376 -10.03632
 Alpha  occ. eigenvalues --   -1.01580  -0.89522  -0.88336  -0.84512  -0.83922
 Alpha  occ. eigenvalues --   -0.79888  -0.75544  -0.69552  -0.67915  -0.65375
 Alpha  occ. eigenvalues --   -0.64316  -0.60386  -0.57939  -0.55188  -0.52670
 Alpha  occ. eigenvalues --   -0.52286  -0.48379  -0.46586  -0.45171  -0.43333
 Alpha  occ. eigenvalues --   -0.41189  -0.38700  -0.38574  -0.38249  -0.36581
 Alpha  occ. eigenvalues --   -0.36004  -0.35302  -0.34357  -0.34049  -0.32859
 Alpha  occ. eigenvalues --   -0.31449  -0.31290  -0.31136  -0.30488  -0.29650
 Alpha  occ. eigenvalues --   -0.29228  -0.28758  -0.28595  -0.27057  -0.26688
 Alpha  occ. eigenvalues --   -0.25894  -0.24473  -0.23365  -0.23187  -0.21658
 Alpha  occ. eigenvalues --   -0.20067  -0.19612  -0.17532  -0.15066  -0.13508
 Alpha  occ. eigenvalues --   -0.13082  -0.12401  -0.11683  -0.10016  -0.08008
 Alpha  occ. eigenvalues --    0.02960
 Alpha virt. eigenvalues --    0.05869   0.07287   0.08447   0.08922   0.09342
 Alpha virt. eigenvalues --    0.09426   0.10168   0.10522   0.10679   0.11596
 Alpha virt. eigenvalues --    0.11947   0.12195   0.12472   0.12972   0.13194

  Beta  occ. eigenvalues --  -18.98270 -18.93126 -18.92950 -14.29442 -14.21619
  Beta  occ. eigenvalues --  -14.21470 -14.17391 -14.17079 -10.13553 -10.12183
  Beta  occ. eigenvalues --  -10.11399 -10.10868 -10.09238 -10.08971 -10.08959
  Beta  occ. eigenvalues --  -10.08804 -10.06636 -10.06424 -10.06375 -10.03639
  Beta  occ. eigenvalues --   -1.00186  -0.89462  -0.88188  -0.84248  -0.82986
  Beta  occ. eigenvalues --   -0.79801  -0.75527  -0.69446  -0.67859  -0.65113
  Beta  occ. eigenvalues --   -0.64274  -0.60230  -0.57641  -0.55124  -0.52602
  Beta  occ. eigenvalues --   -0.51976  -0.48149  -0.45992  -0.45059  -0.43238
  Beta  occ. eigenvalues --   -0.40923  -0.38566  -0.38430  -0.38150  -0.36127
  Beta  occ. eigenvalues --   -0.35927  -0.34762  -0.33934  -0.32823  -0.32671
  Beta  occ. eigenvalues --   -0.31144  -0.30927  -0.30515  -0.30148  -0.29467
  Beta  occ. eigenvalues --   -0.28794  -0.28679  -0.27787  -0.26894  -0.26604
  Beta  occ. eigenvalues --   -0.25795  -0.24391  -0.23278  -0.23175  -0.21317
  Beta  occ. eigenvalues --   -0.19846  -0.19609  -0.17282  -0.15037  -0.13081
  Beta  occ. eigenvalues --   -0.12251  -0.11265  -0.09758  -0.09608  -0.07473
  Beta virt. eigenvalues --    0.05818   0.07172   0.08400   0.08854   0.09282
  Beta virt. eigenvalues --    0.09324   0.10135   0.10486   0.10846   0.10942
  Beta virt. eigenvalues --    0.11711   0.11916   0.12279   0.12502   0.12962

 Mulliken charges and spin densities:
               1          2
     1  C   -0.605292   0.001647
     2  C   -0.020795  -0.007736
     3  N   -0.208313   0.026929
     4  C   -0.155935   0.085969
     5  N   -0.128244  -0.040215
     6  C    0.142161   0.032186
     7  C   -0.048995  -0.096651
     8  C   -0.315639   0.135866
     9  N   -0.264383  -0.041850
    10  N    0.438532   0.012352
    11  C   -0.171684  -0.039680
    12  C   -0.206198   0.007687
    13  C   -0.376115  -0.023040
    14  C   -0.103077  -0.047801
    15  C   -0.526116   0.021205
    16  O   -0.276514  -0.001031
    17  N   -0.505987   0.318475
    18  O   -0.119926   0.253307
    19  O   -0.136789   0.168600
    20  C   -0.519672   0.018379
    21  H    0.141126   0.005263
    22  H    0.127986   0.007900
    23  H    0.130487  -0.002743
    24  H    0.173399  -0.003620
    25  H    0.136029   0.019797
    26  H    0.306708  -0.001513
    27  H    0.089885   0.029296
    28  H    0.205881  -0.005427
    29  H    0.180912  -0.001495
    30  H    0.120551   0.009936
    31  H    0.175030   0.003058
    32  H    0.077373   0.014503
    33  H    0.144786   0.019302
    34  H    0.190864   0.056648
    35  H    0.099833   0.038744
    36  H    0.330187   0.010307
    37  H    0.180256   0.006802
    38  H    0.109943   0.005676
    39  H    0.187745   0.002966
 Sum of Mulliken charges =  -1.00000   1.00000

 Dipole moment (field-independent basis, Debye):
    X=              5.5450    Y=             -8.2002    Z=             -2.1564  Tot=             10.1312
 Quadrupole moment (field-independent basis, Debye-Ang):
   XX=           -154.6462   YY=           -154.2615   ZZ=           -130.5616
   XY=              6.6162   XZ=             10.4374   YZ=             -0.4791

 Summary of Natural Population Analysis:

                                       Natural Population
                Natural  -----------------------------------------------
    Atom  No    Charge         Core      Valence    Rydberg      Total
 -----------------------------------------------------------------------
      C    1   -0.28908      0.99967     2.28558    0.00383     3.28908
      C    2   -0.08581      0.99965     2.07733    0.00883     3.08581
      N    3   -0.30405      0.99965     2.79349    0.01091     3.80405
      C    4    0.33670      0.99961     1.64738    0.01631     2.66330
      N    5   -0.31567      0.99966     2.80507    0.01093     3.81567
      C    6    0.16238      0.99955     1.82570    0.01237     2.83762
      C    7   -0.04591      0.99936     2.03233    0.01422     3.04591
      C    8    0.26319      0.99951     1.72073    0.01658     2.73681
      N    9   -0.32189      0.99963     2.81372    0.00854     3.82189
      N   10   -0.24115      0.99962     2.72860    0.01292     3.74115
      C   11   -0.08222      0.99962     2.07304    0.00956     3.08222
      C   12   -0.19628      0.99963     2.18985    0.00681     3.19628
      C   13   -0.19509      0.99961     2.18797    0.00750     3.19509
      C   14    0.06365      0.99956     1.92226    0.01452     2.93635
      C   15   -0.09342      0.99959     2.08374    0.01010     3.09342
      O   16   -0.38859      0.99989     3.38151    0.00719     4.38859
      N   17    0.33768      0.99970     2.13726    0.02537     3.16232
      O   18   -0.17122      0.99990     3.16374    0.00759     4.17122
      O   19   -0.23364      0.99988     3.22587    0.00788     4.23364
      C   20   -0.30177      0.99963     2.29717    0.00497     3.30177
      H   21    0.09787      0.00000     0.40108    0.00105     0.40213
      H   22    0.09800      0.00000     0.40126    0.00074     0.40200
      H   23    0.09344      0.00000     0.40545    0.00110     0.40656
      H   24    0.10151      0.00000     0.39692    0.00157     0.39849
      H   25    0.08601      0.00000     0.41233    0.00166     0.41399
      H   26    0.19082      0.00000     0.30768    0.00150     0.30918
      H   27    0.08011      0.00000     0.41757    0.00232     0.41989
      H   28    0.11270      0.00000     0.38593    0.00137     0.38730
      H   29    0.10784      0.00000     0.39090    0.00126     0.39216
      H   30    0.09161      0.00000     0.40734    0.00104     0.40839
      H   31    0.09979      0.00000     0.39913    0.00109     0.40021
      H   32    0.08986      0.00000     0.40826    0.00188     0.41014
      H   33    0.07188      0.00000     0.42607    0.00204     0.42812
      H   34    0.11707      0.00000     0.38005    0.00288     0.38293
      H   35    0.08463      0.00000     0.41307    0.00230     0.41537
      H   36    0.25511      0.00000     0.24222    0.00267     0.24489
      H   37    0.11399      0.00000     0.38495    0.00105     0.38601
      H   38    0.09661      0.00000     0.40224    0.00114     0.40339
      H   39    0.11332      0.00000     0.38572    0.00096     0.38668
 =======================================================================
   * Total *    0.00000     19.99292    54.76055    0.24654    75.00000

 Normal termination of Gaussian 16 at Sun Dec 13 22:22:19 2020.
