 Gaussian 16, Revision A.03,

 -----------------------------------------------------------
 # opt freq B3LYP/6-31G(d) empiricaldispersion=gd3bj scf=xqc
 -----------------------------------------------------------

 -------------------------------
 CID_102100548_JID_4881_neutraal
 -------------------------------
 Symbolic Z-matrix:
 Charge =  0 Multiplicity = 1

 SCF Done:  E(RB3LYP) =  -597.511501129     A.U. after   14 cycles
 SCF Done:  E(RB3LYP) =  -597.515363830     A.U. after   12 cycles
 SCF Done:  E(RB3LYP) =  -597.515707621     A.U. after   11 cycles
 SCF Done:  E(RB3LYP) =  -597.515695331     A.U. after   11 cycles
 SCF Done:  E(RB3LYP) =  -597.515841840     A.U. after   11 cycles
 SCF Done:  E(RB3LYP) =  -597.515858876     A.U. after   10 cycles
 SCF Done:  E(RB3LYP) =  -597.515865013     A.U. after   10 cycles
 SCF Done:  E(RB3LYP) =  -597.515866942     A.U. after    8 cycles
 SCF Done:  E(RB3LYP) =  -597.515870723     A.U. after    9 cycles
 SCF Done:  E(RB3LYP) =  -597.515876529     A.U. after    9 cycles
 SCF Done:  E(RB3LYP) =  -597.515937161     A.U. after    8 cycles
 SCF Done:  E(RB3LYP) =  -597.515937288     A.U. after    7 cycles
 SCF Done:  E(RB3LYP) =  -597.515937367     A.U. after    8 cycles
 SCF Done:  E(RB3LYP) =  -597.515937376     A.U. after    6 cycles
 SCF Done:  E(RB3LYP) =  -597.515937381     A.U. after    6 cycles
 Optimization completed.
    -- Stationary point found.
 Normal termination of Gaussian 16 at Thu Dec 10 10:58:25 2020.

 --------------------------------------------------------------------
 #N Geom=AllCheck Guess=TCheck SCRF=Check GenChk RB3LYP/6-31G(d) Freq
 --------------------------------------------------------------------

 Structure from the checkpoint file:  "JID_4881.chk"
 -------------------------------
 CID_102100548_JID_4881_neutraal
 -------------------------------
 Charge =  0 Multiplicity = 1

 SCF Done:  E(RB3LYP) =  -597.515937381     A.U. after    1 cycles

  Exact polarizability: 177.849   4.203 136.774  -5.771   6.796  98.488
 Approx polarizability: 239.604   7.515 208.722  -1.347  16.814 150.553

                      1                      2                      3
                      A                      A                      A
 Frequencies --     21.7862                25.3886                32.4541
 Red. masses --      1.0489                 1.0553                 3.6950
 Frc consts  --      0.0003                 0.0004                 0.0023
 IR Inten    --      0.1421                 0.3201                 0.1915

                      4                      5                      6
                      A                      A                      A
 Frequencies --     51.9490                82.2669               114.7513
 Red. masses --      3.8274                 3.0043                 4.2151
 Frc consts  --      0.0061                 0.0120                 0.0327
 IR Inten    --      0.4254                 0.6253                 1.4143

                      7                      8                      9
                      A                      A                      A
 Frequencies --    123.9026               173.3058               210.1817
 Red. masses --      3.0148                 3.2925                 3.2590
 Frc consts  --      0.0273                 0.0583                 0.0848
 IR Inten    --      3.6021                 4.5645                 0.8834

                     10                     11                     12
                      A                      A                      A
 Frequencies --    230.7283               247.4316               267.4674
 Red. masses --      2.9471                 2.4958                 3.2880
 Frc consts  --      0.0924                 0.0900                 0.1386
 IR Inten    --      0.2948                 0.3328                 1.8340

                     13                     14                     15
                      A                      A                      A
 Frequencies --    297.0585               298.4663               373.2314
 Red. masses --      3.2645                 2.3139                 2.7523
 Frc consts  --      0.1697                 0.1214                 0.2259
 IR Inten    --      4.0852                 1.1369                 0.5771

                     16                     17                     18
                      A                      A                      A
 Frequencies --    411.1453               465.3340               491.5775
 Red. masses --      2.5325                 1.9731                 1.6529
 Frc consts  --      0.2522                 0.2517                 0.2353
 IR Inten    --      3.8040                52.3392                74.2511

                     19                     20                     21
                      A                      A                      A
 Frequencies --    521.9683               528.3967               547.4253
 Red. masses --      4.9760                 3.0379                 4.0970
 Frc consts  --      0.7988                 0.4997                 0.7234
 IR Inten    --      1.2542                 1.8632                 4.7405

                     22                     23                     24
                      A                      A                      A
 Frequencies --    583.7139               603.7667               698.8282
 Red. masses --      1.8914                 3.0407                 1.8610
 Frc consts  --      0.3797                 0.6531                 0.5355
 IR Inten    --     40.3237                30.2511                34.7149

                     25                     26                     27
                      A                      A                      A
 Frequencies --    704.9213               718.1128               742.4865
 Red. masses --      2.7142                 2.2513                 2.9187
 Frc consts  --      0.7947                 0.6840                 0.9480
 IR Inten    --      3.3364                 7.3717                27.4716

                     28                     29                     30
                      A                      A                      A
 Frequencies --    843.3939               848.9549               865.6409
 Red. masses --      1.4300                 1.3200                 1.5470
 Frc consts  --      0.5993                 0.5605                 0.6830
 IR Inten    --     36.0704                 3.4171                 0.2499

                     31                     32                     33
                      A                      A                      A
 Frequencies --    872.4702               925.1013               958.2979
 Red. masses --      2.0773                 2.1439                 1.3538
 Frc consts  --      0.9316                 1.0810                 0.7325
 IR Inten    --     10.5952                 8.2348                33.1249

                     34                     35                     36
                      A                      A                      A
 Frequencies --    978.6237               988.1850              1013.3047
 Red. masses --      3.5325                 1.7994                 2.8891
 Frc consts  --      1.9933                 1.0353                 1.7478
 IR Inten    --      4.7226                 3.0425                 2.4707

                     37                     38                     39
                      A                      A                      A
 Frequencies --   1017.5717              1049.1615              1049.7599
 Red. masses --      1.8916                 1.3724                 1.2256
 Frc consts  --      1.1540                 0.8901                 0.7957
 IR Inten    --      1.9355                 7.3806                 9.7692

                     40                     41                     42
                      A                      A                      A
 Frequencies --   1070.7100              1072.5829              1074.5496
 Red. masses --      1.9710                 1.5201                 1.5007
 Frc consts  --      1.3313                 1.0303                 1.0209
 IR Inten    --     10.9094                 9.7669                 0.4097

                     43                     44                     45
                      A                      A                      A
 Frequencies --   1091.0930              1133.9910              1184.4745
 Red. masses --      2.8641                 3.8945                 1.9711
 Frc consts  --      2.0089                 2.9507                 1.6293
 IR Inten    --     88.4206                55.1687                 6.0558

                     46                     47                     48
                      A                      A                      A
 Frequencies --   1204.2636              1216.3316              1238.4535
 Red. masses --      1.4265                 1.5596                 1.2840
 Frc consts  --      1.2189                 1.3595                 1.1603
 IR Inten    --      0.8146                65.5446                13.4123

                     49                     50                     51
                      A                      A                      A
 Frequencies --   1302.9870              1316.0087              1333.0991
 Red. masses --      1.6496                 1.6487                 1.2835
 Frc consts  --      1.6501                 1.6823                 1.3439
 IR Inten    --      1.2541                28.8700                15.0829

                     52                     53                     54
                      A                      A                      A
 Frequencies --   1347.7848              1360.3266              1393.9753
 Red. masses --      1.4286                 1.6190                 4.9922
 Frc consts  --      1.5290                 1.7652                 5.7155
 IR Inten    --     29.5354                 1.6113                57.4436

                     55                     56                     57
                      A                      A                      A
 Frequencies --   1403.1193              1440.3169              1442.4141
 Red. masses --      1.2676                 1.2349                 1.2764
 Frc consts  --      1.4703                 1.5094                 1.5646
 IR Inten    --      2.7077                 0.0804                 4.3900

                     58                     59                     60
                      A                      A                      A
 Frequencies --   1450.9661              1458.9506              1485.8625
 Red. masses --      1.2901                 1.7411                 1.3667
 Frc consts  --      1.6003                 2.1835                 1.7778
 IR Inten    --     88.8092                40.5139                 8.6775

                     61                     62                     63
                      A                      A                      A
 Frequencies --   1489.0259              1514.2525              1515.5207
 Red. masses --      1.9344                 1.0447                 1.0444
 Frc consts  --      2.5269                 1.4114                 1.4134
 IR Inten    --     16.3417                 8.2147                 2.8350

                     64                     65                     66
                      A                      A                      A
 Frequencies --   1525.1564              1537.1020              1540.8587
 Red. masses --      1.0758                 1.0917                 1.3956
 Frc consts  --      1.4744                 1.5198                 1.9523
 IR Inten    --      9.2281                 4.6370                58.8556

                     67                     68                     69
                      A                      A                      A
 Frequencies --   1560.5177              1664.0283              1667.6538
 Red. masses --      1.8425                 5.2498                 5.5188
 Frc consts  --      2.6436                 8.5647                 9.0429
 IR Inten    --     59.6881                87.8955               116.3148

                     70                     71                     72
                      A                      A                      A
 Frequencies --   1735.5976              3009.5643              3025.2038
 Red. masses --      4.6043                 1.0709                 1.0833
 Frc consts  --      8.1717                 5.7150                 5.8411
 IR Inten    --      2.1160                49.0556                38.0457

                     73                     74                     75
                      A                      A                      A
 Frequencies --   3043.2381              3044.3925              3094.4984
 Red. masses --      1.0375                 1.0371                 1.1008
 Frc consts  --      5.6615                 5.6636                 6.2108
 IR Inten    --     39.2897                28.5035                19.6046

                     76                     77                     78
                      A                      A                      A
 Frequencies --   3096.6357              3107.4273              3125.5258
 Red. masses --      1.1008                 1.0944                 1.1012
 Frc consts  --      6.2195                 6.2263                 6.3381
 IR Inten    --     21.8743                48.1207                16.7681

                     79                     80                     81
                      A                      A                      A
 Frequencies --   3127.7902              3156.6838              3164.1973
 Red. masses --      1.1006                 1.0586                 1.0896
 Frc consts  --      6.3441                 6.2149                 6.4273
 IR Inten    --     19.1227                 9.5791                21.3662

                     82                     83                     84
                      A                      A                      A
 Frequencies --   3174.4310              3176.9156              3212.0024
 Red. masses --      1.0920                 1.0900                 1.0888
 Frc consts  --      6.4831                 6.4818                 6.6183
 IR Inten    --      4.8976                17.1408                13.1760

                     85                     86                     87
                      A                      A                      A
 Frequencies --   3238.3590              3563.8835              3649.4109
 Red. masses --      1.1157                 1.0757                 1.0643
 Frc consts  --      6.8937                 8.0499                 8.3518
 IR Inten    --     18.5441                12.0036                54.7158

 - Thermochemistry -
 -------------------
 Temperature   298.150 Kelvin.  Pressure   1.00000 Atm.
 Atom     1 has atomic number  6 and mass  12.00000

 Molecular mass:   191.13101 amu.
 Principal axes and moments of inertia in atomic units:
                           1         2         3
     Eigenvalues --  1720.175174979.506015578.09391
           X            0.99996   0.00091  -0.00841
           Y           -0.00068   0.99962   0.02766
           Z            0.00843  -0.02765   0.99958
 This molecule is an asymmetric top.
 Rotational symmetry number  1.
 Warning -- assumption of classical behavior for rotation
           may cause significant error
 Rotational temperatures (Kelvin)      0.05035     0.01739     0.01553
 Rotational constants (GHZ):           1.04916     0.36243     0.32354
 Zero-point vibrational energy     704365.1 (Joules/Mol)
                                  168.34729 (Kcal/Mol)
 Warning -- explicit consideration of  23 degrees of freedom as
           vibrations may cause significant error
 Vibrational temperatures:     31.35    36.53    46.69    74.74   118.36
          (Kelvin)            165.10   178.27   249.35   302.40   331.97
                              356.00   384.83   427.40   429.43   537.00
                              591.55   669.51   707.27   751.00   760.24
                              787.62   839.83   868.69  1005.46  1014.22
                             1033.20  1068.27  1213.46  1221.46  1245.46
                             1255.29  1331.01  1378.78  1408.02  1421.78
                             1457.92  1464.06  1509.51  1510.37  1540.51
                             1543.21  1546.04  1569.84  1631.56  1704.19
                             1732.67  1750.03  1781.86  1874.71  1893.44
                             1918.03  1939.16  1957.21  2005.62  2018.78
                             2072.29  2075.31  2087.62  2099.10  2137.82
                             2142.38  2178.67  2180.50  2194.36  2211.55
                             2216.95  2245.24  2394.17  2399.38  2497.14
                             4330.09  4352.59  4378.54  4380.20  4452.29
                             4455.37  4470.89  4496.93  4500.19  4541.76
                             4552.57  4567.30  4570.87  4621.36  4659.28
                             5127.63  5250.69

 Zero-point correction=                           0.268278 (Hartree/Particle)
 Thermal correction to Energy=                    0.283579
 Thermal correction to Enthalpy=                  0.284523
 Thermal correction to Gibbs Free Energy=         0.223235
 Sum of electronic and zero-point Energies=           -597.247659
 Sum of electronic and thermal Energies=              -597.232359
 Sum of electronic and thermal Enthalpies=            -597.231414
 Sum of electronic and thermal Free Energies=         -597.292703

                     E (Thermal)             CV                S
                      KCal/Mol        Cal/Mol-Kelvin    Cal/Mol-Kelvin
 Total                  177.948             55.918            128.992
 Electronic               0.000              0.000              0.000
 Translational            0.889              2.981             41.649
 Rotational               0.889              2.981             32.235
 Vibrational            176.171             49.956             55.108
 Vibration     1          0.593              1.985              6.464
 Vibration     2          0.593              1.985              6.161
 Vibration     3          0.594              1.983              5.673
 Vibration     4          0.596              1.977              4.742
 Vibration     5          0.600              1.961              3.836
 Vibration     6          0.608              1.937              3.187
 Vibration     7          0.610              1.929              3.039
 Vibration     8          0.627              1.875              2.399
 Vibration     9          0.642              1.825              2.042
 Vibration    10          0.652              1.794              1.873
 Vibration    11          0.661              1.767              1.749
 Vibration    12          0.673              1.733              1.613
 Vibration    13          0.691              1.679              1.433
 Vibration    14          0.692              1.677              1.425
 Vibration    15          0.745              1.527              1.066
 Vibration    16          0.775              1.446              0.923
 Vibration    17          0.823              1.327              0.751
 Vibration    18          0.847              1.269              0.680
 Vibration    19          0.877              1.201              0.605
 Vibration    20          0.883              1.187              0.591
 Vibration    21          0.903              1.145              0.550
 Vibration    22          0.941              1.067              0.479
 Vibration    23          0.962              1.024              0.443

 Optimization completed.
    -- Stationary point found.
 Normal termination of Gaussian 16 at Thu Dec 10 11:06:22 2020.

 ----------------------------------------------------------------------
 # B3LYP/6-311++G(d,p) empiricaldispersion=gd3bj scf=xqc pop=npa geom=c
 heck
 ----------------------------------------------------------------------

 ---------------------------------------
 CID_102100548_JID_4881_Energie_neutraal
 ---------------------------------------
 Structure from the checkpoint file:  "JID_4881.chk"
 Charge =  0 Multiplicity = 1

 SCF Done:  E(RB3LYP) =  -597.691726924     A.U. after   14 cycles
 Normal termination of Gaussian 16 at Thu Dec 10 11:09:44 2020.

 ----------------------------------------------------------------------
 # B3LYP/6-311++G(d,p) empiricaldispersion=gd3bj scf=xqc pop=npa geom=c
 heck
 ----------------------------------------------------------------------

 -------------------------------------
 CID_102100548_JID_4881_Energie_kation
 -------------------------------------
 Structure from the checkpoint file:  "JID_4881.chk"
 Charge =  1 Multiplicity = 2

 SCF Done:  E(UB3LYP) =  -597.415505858     A.U. after   23 cycles
 Normal termination of Gaussian 16 at Thu Dec 10 11:16:23 2020.
 Gaussian 16:  ES64L-G16RevA.03 25-Dec-2016

 ----------------------------------------------------------------------
 # B3LYP/6-311++G(d,p) empiricaldispersion=gd3bj scf=xqc pop=npa geom=c
 heck
 ----------------------------------------------------------------------

 ------------------------------------
 CID_102100548_JID_4881_Energie_anion
 ------------------------------------
 Structure from the checkpoint file:  "JID_4881.chk"
 Charge = -1 Multiplicity = 2

                         Standard orientation:
 ---------------------------------------------------------------------
 Center     Atomic      Atomic             Coordinates (Angstroms)
 Number     Number       Type             X           Y           Z
 ---------------------------------------------------------------------
      1          6           0        3.664401   -2.141704   -0.318507
      2          6           0        2.630471   -1.055552   -0.143719
      3          6           0        3.027440    0.255884    0.160887
      4          6           0        2.084158    1.267029    0.327740
      5          6           0        0.720983    0.968848    0.189578
      6          6           0        0.302571   -0.330718   -0.114117
      7          6           0        1.275406   -1.335157   -0.277913
      8          7           0       -1.047879   -0.673820   -0.294390
      9          6           0       -2.129002    0.157204    0.270037
     10          6           0       -2.564150    1.179748   -0.803246
     11          8           0       -2.875380    0.519783   -2.014428
     12          6           0       -3.286452   -0.731259    0.641130
     13          6           0       -3.660850   -0.989286    1.893125
     14          6           0        2.508693    2.679124    0.653663
     15          1           0        4.358417   -1.900783   -1.133001
     16          1           0        4.266768   -2.266715    0.589591
     17          1           0        3.199931   -3.105537   -0.548339
     18          1           0        4.085257    0.484678    0.267465
     19          1           0       -0.003760    1.765151    0.317358
     20          1           0        0.955245   -2.347786   -0.516397
     21          1           0       -1.207972   -1.661098   -0.131657
     22          1           0       -1.774464    0.685460    1.166965
     23          1           0       -3.466680    1.704090   -0.474184
     24          1           0       -1.770236    1.927774   -0.951570
     25          1           0       -2.119361   -0.079769   -2.159683
     26          1           0       -3.829614   -1.157206   -0.201222
     27          1           0       -4.509996   -1.630043    2.114742
     28          1           0       -3.135930   -0.564250    2.746250
     29          1           0        3.595681    2.756088    0.751317
     30          1           0        2.191366    3.380501   -0.127937
     31          1           0        2.061538    3.022961    1.594495
 ---------------------------------------------------------------------

 SCF Done:  E(UB3LYP) =  -597.676944090     A.U. after   33 cycles
 SCF Done:  E(UB3LYP) =  -597.676944090     a.u. after    1 cycles

 The electronic state is 2-A.
 Alpha  occ. eigenvalues --  -19.03116 -14.23625 -10.12814 -10.12673 -10.12035
 Alpha  occ. eigenvalues --  -10.09243 -10.08708 -10.08670 -10.08497 -10.07214
 Alpha  occ. eigenvalues --  -10.07201 -10.06907 -10.06850 -10.06326  -0.93794
 Alpha  occ. eigenvalues --   -0.84733  -0.75905  -0.70945  -0.68745  -0.65386
 Alpha  occ. eigenvalues --   -0.62944  -0.59517  -0.58866  -0.54630  -0.50050
 Alpha  occ. eigenvalues --   -0.49056  -0.47027  -0.42426  -0.41822  -0.40618
 Alpha  occ. eigenvalues --   -0.38936  -0.38142  -0.36231  -0.35474  -0.33091
 Alpha  occ. eigenvalues --   -0.32426  -0.31997  -0.31742  -0.31623  -0.30951
 Alpha  occ. eigenvalues --   -0.30156  -0.27983  -0.27364  -0.26823  -0.25834
 Alpha  occ. eigenvalues --   -0.24629  -0.24203  -0.20823  -0.19507  -0.17977
 Alpha  occ. eigenvalues --   -0.14567  -0.11621   0.04219
 Alpha virt. eigenvalues --    0.05943   0.06345   0.07195   0.07645   0.07728
 Alpha virt. eigenvalues --    0.08106   0.08517   0.08817   0.09303   0.09745
 Alpha virt. eigenvalues --    0.10340   0.10683   0.11197   0.11763   0.11997

  Beta  occ. eigenvalues --  -19.03110 -14.23610 -10.12804 -10.12668 -10.12036
  Beta  occ. eigenvalues --  -10.09238 -10.08708 -10.08668 -10.08467 -10.07185
  Beta  occ. eigenvalues --  -10.07169 -10.06890 -10.06837 -10.06311  -0.93781
  Beta  occ. eigenvalues --   -0.84713  -0.75892  -0.70927  -0.68722  -0.65361
  Beta  occ. eigenvalues --   -0.62912  -0.59472  -0.58821  -0.54597  -0.50010
  Beta  occ. eigenvalues --   -0.49015  -0.46986  -0.42402  -0.41785  -0.40596
  Beta  occ. eigenvalues --   -0.38891  -0.38114  -0.36210  -0.35443  -0.33060
  Beta  occ. eigenvalues --   -0.32388  -0.31964  -0.31710  -0.31592  -0.30922
  Beta  occ. eigenvalues --   -0.30118  -0.27955  -0.27339  -0.26799  -0.25809
  Beta  occ. eigenvalues --   -0.24607  -0.24183  -0.20802  -0.19488  -0.17958
  Beta  occ. eigenvalues --   -0.14545  -0.11602
  Beta virt. eigenvalues --    0.06217   0.06861   0.07085   0.07239   0.07978
  Beta virt. eigenvalues --    0.08244   0.08295   0.08886   0.09001   0.09749
  Beta virt. eigenvalues --    0.09982   0.10663   0.11067   0.11361   0.12072

 Mulliken charges and spin densities:
               1          2
     1  C    2.957340  -3.440887
     2  C   -0.896985   1.551541
     3  C   -3.563511   1.419268
     4  C    0.005818   1.088349
     5  C    1.122233  -0.513063
     6  C   -0.387813   0.372414
     7  C    0.724638  -1.537346
     8  N   -0.143240   0.114319
     9  C    0.743987  -0.782282
    10  C    0.428377  -0.862176
    11  O   -0.223558   0.006031
    12  C   -2.255901   2.422443
    13  C    1.354501  -1.983926
    14  C    1.524820  -2.003620
    15  H   -0.064557   0.222411
    16  H   -0.108438   0.270002
    17  H   -0.387718   0.534416
    18  H   -0.174717   0.274560
    19  H    0.601347  -0.540162
    20  H   -0.557844   0.685159
    21  H    0.211573   0.054924
    22  H   -0.288862   0.456428
    23  H    0.035733   0.135167
    24  H   -0.141874   0.307198
    25  H    0.194614   0.064966
    26  H   -0.243592   0.458430
    27  H   -0.548344   0.701600
    28  H   -0.145228   0.268466
    29  H   -0.453112   0.613298
    30  H   -0.127970   0.289378
    31  H   -0.191718   0.352694
 Sum of Mulliken charges =  -1.00000   1.00000

 Dipole moment (field-independent basis, Debye):
    X=             -0.7822    Y=              1.6653    Z=             -1.3403  Tot=              2.2763
 Quadrupole moment (field-independent basis, Debye-Ang):
   XX=           -172.5641   YY=           -139.1025   ZZ=           -124.8459
   XY=             -6.2308   XZ=              1.6616   YZ=              1.0652

 Summary of Natural Population Analysis:

                                       Natural Population
                Natural  -----------------------------------------------
    Atom  No    Charge         Core      Valence    Rydberg      Total
 -----------------------------------------------------------------------
      C    1   -0.29036      0.99964     2.28548    0.00525     3.29036
      C    2   -0.00293      0.99952     1.99411    0.00930     3.00293
      C    3   -0.12012      0.99946     2.11128    0.00938     3.12012
      C    4   -0.00067      0.99953     1.99201    0.00913     3.00067
      C    5   -0.13743      0.99947     2.13034    0.00762     3.13743
      C    6    0.09615      0.99948     1.89224    0.01213     2.90385
      C    7   -0.12249      0.99948     2.11391    0.00911     3.12249
      N    8   -0.33065      0.99967     2.81853    0.01245     3.83065
      C    9   -0.04156      0.99957     2.02810    0.01389     3.04156
      C   10   -0.00853      0.99958     1.99719    0.01175     3.00853
      O   11   -0.37258      0.99990     3.36605    0.00663     4.37258
      C   12   -0.09792      0.99955     2.08599    0.01239     3.09792
      C   13   -0.17491      0.99956     2.16819    0.00716     3.17491
      C   14   -0.29061      0.99964     2.28577    0.00521     3.29061
      H   15    0.10281      0.00000     0.39580    0.00139     0.39719
      H   16    0.10404      0.00000     0.39443    0.00153     0.39596
      H   17    0.10282      0.00000     0.39582    0.00136     0.39718
      H   18    0.09781      0.00000     0.40088    0.00131     0.40219
      H   19    0.09831      0.00000     0.39941    0.00229     0.40169
      H   20    0.09919      0.00000     0.39900    0.00180     0.40081
      H   21    0.19104      0.00000     0.30560    0.00336     0.30896
      H   22    0.09713      0.00000     0.39993    0.00294     0.40287
      H   23    0.08757      0.00000     0.41123    0.00120     0.41243
      H   24    0.07984      0.00000     0.41863    0.00153     0.42016
      H   25    0.23366      0.00000     0.26304    0.00330     0.26634
      H   26    0.10193      0.00000     0.39662    0.00145     0.39807
      H   27    0.09680      0.00000     0.40173    0.00147     0.40320
      H   28    0.09266      0.00000     0.40601    0.00133     0.40734
      H   29    0.10231      0.00000     0.39637    0.00131     0.39769
      H   30    0.10310      0.00000     0.39530    0.00160     0.39690
      H   31    0.10357      0.00000     0.39485    0.00158     0.39643
 =======================================================================
   * Total *   -0.00000     13.99404    37.84379    0.16217    52.00000

 Normal termination of Gaussian 16 at Thu Dec 10 11:25:51 2020.
