 Gaussian 16, Revision A.03,

 -----------------------------------------------------------
 # opt freq B3LYP/6-31G(d) empiricaldispersion=gd3bj scf=xqc
 -----------------------------------------------------------

 ------------------------------
 CID_65992902_JID_5882_neutraal
 ------------------------------
 Symbolic Z-matrix:
 Charge =  0 Multiplicity = 1

 SCF Done:  E(RB3LYP) =  -684.939049607     A.U. after   15 cycles
 SCF Done:  E(RB3LYP) =  -684.952688635     A.U. after   13 cycles
 SCF Done:  E(RB3LYP) =  -684.954313664     A.U. after   13 cycles
 SCF Done:  E(RB3LYP) =  -684.954851037     A.U. after   11 cycles
 SCF Done:  E(RB3LYP) =  -684.955046230     A.U. after   12 cycles
 SCF Done:  E(RB3LYP) =  -684.955271300     A.U. after   12 cycles
 SCF Done:  E(RB3LYP) =  -684.955394452     A.U. after   11 cycles
 SCF Done:  E(RB3LYP) =  -684.955480429     A.U. after   11 cycles
 SCF Done:  E(RB3LYP) =  -684.955487783     A.U. after    9 cycles
 SCF Done:  E(RB3LYP) =  -684.955492078     A.U. after    9 cycles
 SCF Done:  E(RB3LYP) =  -684.955493027     A.U. after    8 cycles
 SCF Done:  E(RB3LYP) =  -684.955493726     A.U. after    9 cycles
 Optimization completed.
    -- Stationary point found.
 Normal termination of Gaussian 16 at Thu Dec 10 17:23:04 2020.

 --------------------------------------------------------------------
 #N Geom=AllCheck Guess=TCheck SCRF=Check GenChk RB3LYP/6-31G(d) Freq
 --------------------------------------------------------------------

 Structure from the checkpoint file:  "JID_5882.chk"
 ------------------------------
 CID_65992902_JID_5882_neutraal
 ------------------------------
 Charge =  0 Multiplicity = 1

 SCF Done:  E(RB3LYP) =  -684.955493726     A.U. after    1 cycles

  Exact polarizability: 194.256  -8.135 137.755   0.694   6.594  84.078
 Approx polarizability: 261.126 -29.357 232.331   1.864  16.919 126.757

                      1                      2                      3
                      A                      A                      A
 Frequencies --     32.1304                63.1211                65.8185
 Red. masses --      4.2883                 3.3833                 2.7134
 Frc consts  --      0.0026                 0.0079                 0.0069
 IR Inten    --      1.3373                 0.2238                 0.6980

                      4                      5                      6
                      A                      A                      A
 Frequencies --     69.7060               105.0513               130.1056
 Red. masses --      4.1968                 2.7862                 3.9661
 Frc consts  --      0.0120                 0.0181                 0.0396
 IR Inten    --      4.5011                 7.3003                 6.4817

                      7                      8                      9
                      A                      A                      A
 Frequencies --    147.5182               172.8600               220.9166
 Red. masses --      3.9432                 3.6973                 1.5075
 Frc consts  --      0.0506                 0.0651                 0.0433
 IR Inten    --      3.9258                12.6671                12.6249

                     10                     11                     12
                      A                      A                      A
 Frequencies --    237.2671               257.6525               281.6152
 Red. masses --      1.2133                 3.8010                 1.5344
 Frc consts  --      0.0402                 0.1487                 0.0717
 IR Inten    --      0.8261                 1.8500                38.6295

                     13                     14                     15
                      A                      A                      A
 Frequencies --    300.6533               361.0813               379.1242
 Red. masses --      3.7471                 2.7905                 3.1946
 Frc consts  --      0.1996                 0.2144                 0.2705
 IR Inten    --      9.2620                 7.9305                11.0917

                     16                     17                     18
                      A                      A                      A
 Frequencies --    398.2412               443.4303               469.1142
 Red. masses --      3.4418                 2.9498                 3.7527
 Frc consts  --      0.3216                 0.3417                 0.4866
 IR Inten    --      4.9998                 1.3969                12.4527

                     19                     20                     21
                      A                      A                      A
 Frequencies --    502.8497               554.1440               584.0019
 Red. masses --      5.5509                 5.8346                 4.7760
 Frc consts  --      0.8270                 1.0556                 0.9597
 IR Inten    --     11.5632                18.7747                 4.2239

                     22                     23                     24
                      A                      A                      A
 Frequencies --    608.6329               666.4470               747.7808
 Red. masses --      5.2447                 6.2191                 1.2911
 Frc consts  --      1.1447                 1.6275                 0.4254
 IR Inten    --      8.8078                 1.0148                21.8815

                     25                     26                     27
                      A                      A                      A
 Frequencies --    776.8737               797.2486               800.3987
 Red. masses --      8.4931                 2.0960                 1.3613
 Frc consts  --      3.0201                 0.7849                 0.5138
 IR Inten    --      6.4178                 2.4873                 1.4446

                     28                     29                     30
                      A                      A                      A
 Frequencies --    840.6108               867.1639               876.4086
 Red. masses --      3.0138                 1.2770                 4.5036
 Frc consts  --      1.2547                 0.5658                 2.0381
 IR Inten    --      2.2077               123.1720                 4.7685

                     31                     32                     33
                      A                      A                      A
 Frequencies --    892.8482               894.1260               924.1573
 Red. masses --      1.2800                 1.4496                 2.2146
 Frc consts  --      0.6012                 0.6828                 1.1144
 IR Inten    --      2.8309                 0.9302                43.7663

                     34                     35                     36
                      A                      A                      A
 Frequencies --    953.2050               996.0394              1020.6288
 Red. masses --      2.0118                 2.5819                 2.2428
 Frc consts  --      1.0770                 1.5092                 1.3765
 IR Inten    --     14.1484                10.4943                 0.1580

                     37                     38                     39
                      A                      A                      A
 Frequencies --   1042.6108              1084.8254              1092.0702
 Red. masses --      1.8541                 2.6281                 2.5539
 Frc consts  --      1.1875                 1.8223                 1.7945
 IR Inten    --      6.3859                15.0189                 7.7239

                     40                     41                     42
                      A                      A                      A
 Frequencies --   1114.7671              1126.8007              1150.0830
 Red. masses --      2.5513                 2.1629                 1.0788
 Frc consts  --      1.8680                 1.6180                 0.8407
 IR Inten    --     15.6048                 5.3308                 0.9188

                     43                     44                     45
                      A                      A                      A
 Frequencies --   1165.0114              1168.7884              1191.7412
 Red. masses --      2.0301                 1.9375                 1.3546
 Frc consts  --      1.6234                 1.5594                 1.1335
 IR Inten    --     23.5602                 4.4857                 6.0483

                     46                     47                     48
                      A                      A                      A
 Frequencies --   1194.7219              1221.4710              1258.6554
 Red. masses --      1.6693                 1.5379                 1.9908
 Frc consts  --      1.4038                 1.3519                 1.8582
 IR Inten    --     14.7597                 7.3231                66.1696

                     49                     50                     51
                      A                      A                      A
 Frequencies --   1284.7966              1292.5247              1303.4008
 Red. masses --      1.5312                 1.3959                 1.9198
 Frc consts  --      1.4892                 1.3739                 1.9216
 IR Inten    --     13.7638                 3.2396                 7.3997

                     52                     53                     54
                      A                      A                      A
 Frequencies --   1317.7027              1330.1538              1348.5830
 Red. masses --      1.6836                 1.5806                 1.9475
 Frc consts  --      1.7224                 1.6477                 2.0869
 IR Inten    --     17.8354                 5.3933                41.1372

                     55                     56                     57
                      A                      A                      A
 Frequencies --   1386.5211              1402.9989              1409.3611
 Red. masses --      1.3633                 1.5127                 1.6732
 Frc consts  --      1.5442                 1.7544                 1.9581
 IR Inten    --      7.2361                45.9360                 1.7687

                     58                     59                     60
                      A                      A                      A
 Frequencies --   1435.8128              1448.9738              1459.8168
 Red. masses --      1.2908                 1.8041                 2.0011
 Frc consts  --      1.5678                 2.2316                 2.5126
 IR Inten    --     29.9209               121.2615                50.6814

                     61                     62                     63
                      A                      A                      A
 Frequencies --   1490.3733              1508.0938              1520.2962
 Red. masses --      3.4250                 1.1224                 1.0492
 Frc consts  --      4.4823                 1.5040                 1.4287
 IR Inten    --      8.4749                19.1183                 9.5133

                     64                     65                     66
                      A                      A                      A
 Frequencies --   1528.2798              1537.5574              1539.1618
 Red. masses --      1.0817                 1.0543                 1.0901
 Frc consts  --      1.4886                 1.4686                 1.5215
 IR Inten    --      6.6674                 5.9758                16.0050

                     67                     68                     69
                      A                      A                      A
 Frequencies --   1548.4850              1594.9004              1651.8854
 Red. masses --      1.1623                 7.0078                 5.2252
 Frc consts  --      1.6420                10.5026                 8.4007
 IR Inten    --     84.2724               427.2381               125.3453

                     70                     71                     72
                      A                      A                      A
 Frequencies --   1699.1373              1730.6634              2945.6494
 Red. masses --      1.0884                10.8968                 1.0732
 Frc consts  --      1.8513                19.2298                 5.4863
 IR Inten    --     33.6817               254.2298                70.5226

                     73                     74                     75
                      A                      A                      A
 Frequencies --   3047.1539              3059.9499              3063.2200
 Red. masses --      1.0557                 1.0360                 1.0879
 Frc consts  --      5.7753                 5.7154                 6.0145
 IR Inten    --     49.5919                23.3986                39.7238

                     76                     77                     78
                      A                      A                      A
 Frequencies --   3070.0731              3086.9382              3087.1937
 Red. masses --      1.0582                 1.1099                 1.0634
 Frc consts  --      5.8764                 6.2317                 5.9715
 IR Inten    --     35.0828                27.2187                29.7124

                     79                     80                     81
                      A                      A                      A
 Frequencies --   3111.2694              3122.8836              3124.0889
 Red. masses --      1.1033                 1.0945                 1.1032
 Frc consts  --      6.2925                 6.2889                 6.3437
 IR Inten    --     17.9671                48.8982                22.8758

                     82                     83                     84
                      A                      A                      A
 Frequencies --   3144.4752              3158.4426              3208.8325
 Red. masses --      1.0997                 1.1049                 1.0887
 Frc consts  --      6.4066                 6.4941                 6.6048
 IR Inten    --     12.1816                13.5499                18.9479

                     85                     86                     87
                      A                      A                      A
 Frequencies --   3240.2678              3463.1228              3547.1807
 Red. masses --      1.0969                 1.0501                 1.0917
 Frc consts  --      6.7852                 7.4201                 8.0934
 IR Inten    --     12.8386                 1.9560                 0.9672

 - Thermochemistry -
 -------------------
 Temperature   298.150 Kelvin.  Pressure   1.00000 Atm.
 Atom     1 has atomic number  6 and mass  12.00000

 Molecular mass:   208.13241 amu.
 Principal axes and moments of inertia in atomic units:
                           1         2         3
     Eigenvalues --  1382.982495766.441796835.59900
           X            0.99997   0.00730   0.00014
           Y           -0.00729   0.99991  -0.01101
           Z           -0.00022   0.01100   0.99994
 This molecule is an asymmetric top.
 Rotational symmetry number  1.
 Warning -- assumption of classical behavior for rotation
           may cause significant error
 Rotational temperatures (Kelvin)      0.06263     0.01502     0.01267
 Rotational constants (GHZ):           1.30496     0.31297     0.26402
 Zero-point vibrational energy     696829.2 (Joules/Mol)
                                  166.54617 (Kcal/Mol)
 Warning -- explicit consideration of  22 degrees of freedom as
           vibrations may cause significant error
 Vibrational temperatures:     46.23    90.82    94.70   100.29   151.15
          (Kelvin)            187.19   212.25   248.71   317.85   341.37
                              370.70   405.18   432.57   519.52   545.48
                              572.98   638.00   674.95   723.49   797.29
                              840.25   875.69   958.87  1075.89  1117.75
                             1147.06  1151.60  1209.45  1247.66  1260.96
                             1284.61  1286.45  1329.66  1371.45  1433.08
                             1468.46  1500.08  1560.82  1571.25  1603.90
                             1621.21  1654.71  1676.19  1681.63  1714.65
                             1718.94  1757.42  1810.92  1848.54  1859.65
                             1875.30  1895.88  1913.79  1940.31  1994.89
                             2018.60  2027.76  2065.81  2084.75  2100.35
                             2144.31  2169.81  2187.37  2198.85  2212.20
                             2214.51  2227.92  2294.71  2376.69  2444.68
                             2490.04  4238.13  4384.17  4402.59  4407.29
                             4417.15  4441.42  4441.78  4476.42  4493.13
                             4494.87  4524.20  4544.29  4616.79  4662.02
                             4982.66  5103.60

 Zero-point correction=                           0.265408 (Hartree/Particle)
 Thermal correction to Energy=                    0.280111
 Thermal correction to Enthalpy=                  0.281055
 Thermal correction to Gibbs Free Energy=         0.222728
 Sum of electronic and zero-point Energies=           -684.690086
 Sum of electronic and thermal Energies=              -684.675382
 Sum of electronic and thermal Enthalpies=            -684.674438
 Sum of electronic and thermal Free Energies=         -684.732766

                     E (Thermal)             CV                S
                      KCal/Mol        Cal/Mol-Kelvin    Cal/Mol-Kelvin
 Total                  175.772             54.871            122.761
 Electronic               0.000              0.000              0.000
 Translational            0.889              2.981             41.903
 Rotational               0.889              2.981             32.366
 Vibrational            173.995             48.909             48.492
 Vibration     1          0.594              1.983              5.693
 Vibration     2          0.597              1.972              4.357
 Vibration     3          0.597              1.971              4.275
 Vibration     4          0.598              1.969              4.162
 Vibration     5          0.605              1.945              3.358
 Vibration     6          0.612              1.923              2.944
 Vibration     7          0.617              1.905              2.704
 Vibration     8          0.626              1.876              2.404
 Vibration     9          0.648              1.809              1.952
 Vibration    10          0.656              1.784              1.823
 Vibration    11          0.667              1.750              1.678
 Vibration    12          0.681              1.708              1.524
 Vibration    13          0.693              1.672              1.413
 Vibration    14          0.735              1.552              1.117
 Vibration    15          0.749              1.515              1.043
 Vibration    16          0.765              1.474              0.969
 Vibration    17          0.803              1.375              0.816
 Vibration    18          0.826              1.319              0.740
 Vibration    19          0.858              1.244              0.651
 Vibration    20          0.910              1.131              0.536
 Vibration    21          0.941              1.066              0.478
 Vibration    22          0.968              1.014              0.435

                           ! Non-Optimized Parameters !
 Normal termination of Gaussian 16 at Thu Dec 10 17:31:59 2020.

 ----------------------------------------------------------------------
 # B3LYP/6-311++G(d,p) empiricaldispersion=gd3bj scf=xqc pop=npa geom=c
 heck
 ----------------------------------------------------------------------

 --------------------------------------
 CID_65992902_JID_5882_Energie_neutraal
 --------------------------------------
 Structure from the checkpoint file:  "JID_5882.chk"
 Charge =  0 Multiplicity = 1

 SCF Done:  E(RB3LYP) =  -685.151266944     A.U. after   15 cycles
 Normal termination of Gaussian 16 at Thu Dec 10 17:35:46 2020.

 ----------------------------------------------------------------------
 # B3LYP/6-311++G(d,p) empiricaldispersion=gd3bj scf=xqc pop=npa geom=c
 heck
 ----------------------------------------------------------------------

 ------------------------------------
 CID_65992902_JID_5882_Energie_kation
 ------------------------------------
 Structure from the checkpoint file:  "JID_5882.chk"
 Charge =  1 Multiplicity = 2

 SCF Done:  E(UB3LYP) =  -684.888354999     A.U. after   22 cycles
 Normal termination of Gaussian 16 at Thu Dec 10 17:43:51 2020.
 Gaussian 16:  ES64L-G16RevA.03 25-Dec-2016

 ----------------------------------------------------------------------
 # B3LYP/6-311++G(d,p) empiricaldispersion=gd3bj scf=xqc pop=npa geom=c
 heck
 ----------------------------------------------------------------------

 -----------------------------------
 CID_65992902_JID_5882_Energie_anion
 -----------------------------------
 Structure from the checkpoint file:  "JID_5882.chk"
 Charge = -1 Multiplicity = 2

                         Standard orientation:
 ---------------------------------------------------------------------
 Center     Atomic      Atomic             Coordinates (Angstroms)
 Number     Number       Type             X           Y           Z
 ---------------------------------------------------------------------
      1          6           0       -3.839049   -1.828829    0.880673
      2          6           0       -3.524656   -1.114890   -0.432652
      3          7           0       -2.535906   -0.045403   -0.252019
      4          6           0       -2.943302    1.260136   -0.033313
      5          6           0       -2.011964    2.223574    0.181599
      6          7           0       -0.667394    1.970040    0.189954
      7          6           0       -0.280886    0.727538   -0.001908
      8          6           0       -1.201493   -0.412767   -0.219778
      9          8           0       -0.835785   -1.583998   -0.362672
     10          7           0        1.043442    0.436793    0.049772
     11          6           0        2.130801    1.415206    0.019395
     12          6           0        3.089488    0.283800   -0.444389
     13          6           0        1.835108   -0.628931   -0.585762
     14          6           0        4.095308   -0.167278    0.603986
     15          7           0        4.843962   -1.331423    0.121124
     16          1           0       -2.931769   -2.290945    1.278156
     17          1           0       -4.584805   -2.613801    0.714802
     18          1           0       -4.234049   -1.127719    1.623761
     19          1           0       -3.106897   -1.818243   -1.155344
     20          1           0       -4.421019   -0.659819   -0.863871
     21          1           0       -4.010768    1.440782   -0.052671
     22          1           0       -2.312766    3.252735    0.348860
     23          1           0        1.961033    2.216318   -0.710421
     24          1           0        2.344840    1.870727    0.993665
     25          1           0        3.605014    0.477870   -1.387673
     26          1           0        1.837140   -1.568329   -0.025149
     27          1           0        1.534960   -0.840917   -1.616997
     28          1           0        4.812406    0.644109    0.782473
     29          1           0        3.559262   -0.333960    1.557405
     30          1           0        5.537896   -1.606537    0.814085
     31          1           0        4.210942   -2.125694    0.031366
 ---------------------------------------------------------------------

 SCF Done:  E(UB3LYP) =  -685.143938303     A.U. after   33 cycles
 SCF Done:  E(UB3LYP) =  -685.143938303     a.u. after    1 cycles

 The electronic state is 2-A.
 Alpha  occ. eigenvalues --  -18.96240 -14.24665 -14.21471 -14.20225 -14.17546
 Alpha  occ. eigenvalues --  -10.14647 -10.11386 -10.10203 -10.09913 -10.09720
 Alpha  occ. eigenvalues --  -10.09546 -10.08775 -10.07965 -10.07776 -10.06160
 Alpha  occ. eigenvalues --   -0.92354  -0.86319  -0.84702  -0.79746  -0.78610
 Alpha  occ. eigenvalues --   -0.68111  -0.66179  -0.62409  -0.58672  -0.57651
 Alpha  occ. eigenvalues --   -0.55323  -0.51452  -0.49001  -0.45062  -0.42720
 Alpha  occ. eigenvalues --   -0.42215  -0.40840  -0.38882  -0.37012  -0.35581
 Alpha  occ. eigenvalues --   -0.34921  -0.34219  -0.32896  -0.32474  -0.31271
 Alpha  occ. eigenvalues --   -0.30299  -0.29307  -0.28881  -0.28413  -0.26984
 Alpha  occ. eigenvalues --   -0.25813  -0.25513  -0.24006  -0.23504  -0.22463
 Alpha  occ. eigenvalues --   -0.20797  -0.17612  -0.15537  -0.14781  -0.12430
 Alpha  occ. eigenvalues --   -0.08091   0.04289
 Alpha virt. eigenvalues --    0.05614   0.06901   0.07876   0.08287   0.08825
 Alpha virt. eigenvalues --    0.08975   0.09710   0.10350   0.11279   0.11497
 Alpha virt. eigenvalues --    0.11839   0.12173   0.12558   0.12910   0.13313

  Beta  occ. eigenvalues --  -18.96145 -14.24515 -14.21434 -14.20195 -14.17365
  Beta  occ. eigenvalues --  -10.14581 -10.11246 -10.10195 -10.09899 -10.09718
  Beta  occ. eigenvalues --  -10.09531 -10.08672 -10.08013 -10.07771 -10.06129
  Beta  occ. eigenvalues --   -0.92143  -0.86180  -0.84479  -0.79591  -0.78451
  Beta  occ. eigenvalues --   -0.68002  -0.66067  -0.62265  -0.58615  -0.57495
  Beta  occ. eigenvalues --   -0.55194  -0.51396  -0.48812  -0.44971  -0.42647
  Beta  occ. eigenvalues --   -0.42095  -0.40785  -0.38754  -0.36905  -0.35314
  Beta  occ. eigenvalues --   -0.34805  -0.34154  -0.32635  -0.32406  -0.31185
  Beta  occ. eigenvalues --   -0.30250  -0.29217  -0.28620  -0.28286  -0.26895
  Beta  occ. eigenvalues --   -0.25717  -0.25428  -0.23947  -0.23040  -0.22400
  Beta  occ. eigenvalues --   -0.20218  -0.17429  -0.15478  -0.14299  -0.12246
  Beta  occ. eigenvalues --   -0.07389
  Beta virt. eigenvalues --    0.06390   0.07029   0.07952   0.08269   0.08619
  Beta virt. eigenvalues --    0.09165   0.09405   0.09789   0.10594   0.11357
  Beta virt. eigenvalues --    0.11703   0.12065   0.12181   0.12600   0.12989

 Mulliken charges and spin densities:
               1          2
     1  C    0.475032  -0.889028
     2  C   -0.404128   0.251122
     3  N    0.151268   0.075701
     4  C   -0.292029   0.140248
     5  C    0.440495  -0.475486
     6  N   -0.190464   0.100305
     7  C    0.645611  -0.612947
     8  C   -0.653029   0.418050
     9  O   -0.376741   0.034522
    10  N    0.059055   0.044807
    11  C   -0.291143  -0.271192
    12  C    0.128371   0.350761
    13  C   -0.329594  -0.281139
    14  C    0.291779  -0.905473
    15  N   -0.354526   0.013083
    16  H    0.056686   0.126201
    17  H   -0.317070   0.449453
    18  H    0.094971   0.035917
    19  H    0.127424   0.057469
    20  H   -0.571306   0.718368
    21  H   -0.179839   0.309924
    22  H    0.109743   0.053959
    23  H    0.135901   0.019826
    24  H    0.133851   0.035807
    25  H    0.043431   0.165288
    26  H    0.087014   0.115091
    27  H    0.068913   0.105256
    28  H   -0.083713   0.230652
    29  H   -0.016054   0.161863
    30  H   -0.131090   0.362895
    31  H    0.141181   0.058697
 Sum of Mulliken charges =  -1.00000   1.00000

 Dipole moment (field-independent basis, Debye):
    X=              1.2333    Y=              2.2570    Z=              0.6359  Tot=              2.6494
 Quadrupole moment (field-independent basis, Debye-Ang):
   XX=           -184.5648   YY=           -123.5042   ZZ=           -110.6129
   XY=             -0.2248   XZ=             -4.5467   YZ=              0.5305

 Summary of Natural Population Analysis:

                                       Natural Population
                Natural  -----------------------------------------------
    Atom  No    Charge         Core      Valence    Rydberg      Total
 -----------------------------------------------------------------------
      C    1   -0.29086      0.99966     2.28580    0.00540     3.29086
      C    2   -0.08671      0.99963     2.07530    0.01178     3.08671
      N    3   -0.20384      0.99963     2.69333    0.01087     3.70384
      C    4   -0.00523      0.99954     1.99367    0.01202     3.00523
      C    5   -0.03279      0.99957     2.01944    0.01377     3.03279
      N    6   -0.24135      0.99967     2.73079    0.01088     3.74135
      C    7    0.20290      0.99951     1.78213    0.01546     2.79710
      C    8    0.31198      0.99960     1.66812    0.02030     2.68802
      O    9   -0.33276      0.99989     3.32711    0.00576     4.33276
      N   10   -0.23923      0.99964     2.72820    0.01139     3.73923
      C   11   -0.07053      0.99965     2.06171    0.00917     3.07053
      C   12   -0.12320      0.99958     2.11286    0.01076     3.12320
      C   13   -0.06651      0.99964     2.05792    0.00895     3.06651
      C   14   -0.08917      0.99961     2.07683    0.01273     3.08917
      N   15   -0.42304      0.99977     2.91256    0.01071     3.92304
      H   16    0.10756      0.00000     0.39151    0.00093     0.39244
      H   17    0.09938      0.00000     0.39931    0.00132     0.40062
      H   18    0.09557      0.00000     0.40353    0.00090     0.40443
      H   19    0.10848      0.00000     0.39025    0.00126     0.39152
      H   20    0.09571      0.00000     0.40172    0.00257     0.40429
      H   21    0.09755      0.00000     0.40133    0.00112     0.40245
      H   22    0.08964      0.00000     0.40928    0.00107     0.41036
      H   23    0.09503      0.00000     0.40321    0.00177     0.40497
      H   24    0.09149      0.00000     0.40681    0.00170     0.40851
      H   25    0.10011      0.00000     0.39876    0.00114     0.39989
      H   26    0.09651      0.00000     0.40185    0.00164     0.40349
      H   27    0.09570      0.00000     0.40298    0.00132     0.40430
      H   28    0.08977      0.00000     0.40903    0.00120     0.41023
      H   29    0.08045      0.00000     0.41791    0.00164     0.41955
      H   30    0.17516      0.00000     0.32251    0.00233     0.32484
      H   31    0.17222      0.00000     0.32585    0.00193     0.32778
 =======================================================================
   * Total *   -0.00000     14.99459    40.81160    0.19381    56.00000

 Normal termination of Gaussian 16 at Thu Dec 10 17:55:56 2020.
