 Gaussian 16, Revision A.03,

 -----------------------------------------------------------
 # opt freq B3LYP/6-31G(d) empiricaldispersion=gd3bj scf=xqc
 -----------------------------------------------------------

 ------------------------------
 CID_62118454_JID_3394_neutraal
 ------------------------------
 Symbolic Z-matrix:
 Charge =  0 Multiplicity = 1

 SCF Done:  E(RB3LYP) =  -608.703972515     A.U. after   14 cycles
 SCF Done:  E(RB3LYP) =  -608.707411219     A.U. after   12 cycles
 SCF Done:  E(RB3LYP) =  -608.708287489     A.U. after   12 cycles
 SCF Done:  E(RB3LYP) =  -608.708740867     A.U. after   12 cycles
 SCF Done:  E(RB3LYP) =  -608.709141188     A.U. after   13 cycles
 SCF Done:  E(RB3LYP) =  -608.709202948     A.U. after   12 cycles
 SCF Done:  E(RB3LYP) =  -608.709297472     A.U. after   13 cycles
 SCF Done:  E(RB3LYP) =  -608.709427590     A.U. after   12 cycles
 SCF Done:  E(RB3LYP) =  -608.709437372     A.U. after   10 cycles
 SCF Done:  E(RB3LYP) =  -608.709470757     A.U. after   10 cycles
 SCF Done:  E(RB3LYP) =  -608.709852156     A.U. after   10 cycles
 SCF Done:  E(RB3LYP) =  -608.709852965     A.U. after    8 cycles
 SCF Done:  E(RB3LYP) =  -608.709853745     A.U. after    9 cycles
 SCF Done:  E(RB3LYP) =  -608.709853774     A.U. after    7 cycles
 SCF Done:  E(RB3LYP) =  -608.709853791     A.U. after    8 cycles
 Optimization completed.
    -- Stationary point found.
 Normal termination of Gaussian 16 at Wed Dec  9 23:15:32 2020.

 --------------------------------------------------------------------
 #N Geom=AllCheck Guess=TCheck SCRF=Check GenChk RB3LYP/6-31G(d) Freq
 --------------------------------------------------------------------

 Structure from the checkpoint file:  "JID_3394.chk"
 ------------------------------
 CID_62118454_JID_3394_neutraal
 ------------------------------
 Charge =  0 Multiplicity = 1

 SCF Done:  E(RB3LYP) =  -608.709853791     A.U. after    1 cycles

  Exact polarizability: 137.072   2.946 112.038  -3.479  -0.583  78.788
 Approx polarizability: 178.553  -0.904 173.034  -6.694  -0.657 120.710

                      1                      2                      3
                      A                      A                      A
 Frequencies --     19.9235                33.1733                46.0623
 Red. masses --      4.1849                 4.5290                 4.2258
 Frc consts  --      0.0010                 0.0029                 0.0053
 IR Inten    --      4.3287                 2.9672                 3.2050

                      4                      5                      6
                      A                      A                      A
 Frequencies --     80.8517               102.5911               129.1645
 Red. masses --      3.5921                 4.0749                 2.0441
 Frc consts  --      0.0138                 0.0253                 0.0201
 IR Inten    --      0.0966                 3.7479                 3.1361

                      7                      8                      9
                      A                      A                      A
 Frequencies --    133.9040               195.8278               200.4323
 Red. masses --      1.3752                 2.6317                 3.5853
 Frc consts  --      0.0145                 0.0595                 0.0849
 IR Inten    --      1.4762                 7.7393                 0.2492

                     10                     11                     12
                      A                      A                      A
 Frequencies --    242.5791               269.2051               301.1866
 Red. masses --      2.1928                 2.3175                 1.5338
 Frc consts  --      0.0760                 0.0990                 0.0820
 IR Inten    --     15.3129                 6.0555                39.2561

                     13                     14                     15
                      A                      A                      A
 Frequencies --    324.7125               361.8127               386.8364
 Red. masses --      1.6250                 3.5474                 2.4304
 Frc consts  --      0.1010                 0.2736                 0.2143
 IR Inten    --     59.2924                 0.3107                 1.0315

                     16                     17                     18
                      A                      A                      A
 Frequencies --    419.8348               471.7877               570.6329
 Red. masses --      2.9484                 2.0732                 2.6253
 Frc consts  --      0.3062                 0.2719                 0.5037
 IR Inten    --      7.1182                 2.0953                 5.9102

                     19                     20                     21
                      A                      A                      A
 Frequencies --    659.2215               682.2760               702.7565
 Red. masses --      3.8423                 5.9975                 2.6798
 Frc consts  --      0.9838                 1.6449                 0.7797
 IR Inten    --     23.4387                 1.9460                45.1183

                     22                     23                     24
                      A                      A                      A
 Frequencies --    713.5225               755.2827               796.6359
 Red. masses --      1.5737                 1.7230                 2.3974
 Frc consts  --      0.4720                 0.5791                 0.8964
 IR Inten    --     19.7241                14.0513                 6.9898

                     25                     26                     27
                      A                      A                      A
 Frequencies --    809.9434               823.2235               890.3705
 Red. masses --      1.5985                 2.6472                 1.9050
 Frc consts  --      0.6178                 1.0570                 0.8898
 IR Inten    --     18.4152                18.4432                 3.7843

                     28                     29                     30
                      A                      A                      A
 Frequencies --    929.4432               963.6564               991.0440
 Red. masses --      2.0601                 3.5702                 2.6880
 Frc consts  --      1.0485                 1.9534                 1.5555
 IR Inten    --     20.1845                 9.4674                 3.2273

                     31                     32                     33
                      A                      A                      A
 Frequencies --   1004.2630              1031.5701              1055.9166
 Red. masses --      1.9072                 1.7841                 4.1584
 Frc consts  --      1.1333                 1.1186                 2.7317
 IR Inten    --      6.6004                17.5058                 2.9871

                     34                     35                     36
                      A                      A                      A
 Frequencies --   1083.3101              1093.6988              1106.6186
 Red. masses --      1.6402                 3.0972                 2.2537
 Frc consts  --      1.1341                 2.1828                 1.6261
 IR Inten    --      7.7690               116.5148                 5.4269

                     37                     38                     39
                      A                      A                      A
 Frequencies --   1116.0054              1151.5472              1157.4887
 Red. masses --      1.9440                 2.9030                 1.3356
 Frc consts  --      1.4265                 2.2681                 1.0543
 IR Inten    --     21.2003                23.6872                 6.5534

                     40                     41                     42
                      A                      A                      A
 Frequencies --   1191.9799              1225.0481              1230.7764
 Red. masses --      1.2584                 1.4120                 1.6280
 Frc consts  --      1.0534                 1.2485                 1.4529
 IR Inten    --      9.7229                14.2268                14.3313

                     43                     44                     45
                      A                      A                      A
 Frequencies --   1243.4855              1265.3083              1314.5957
 Red. masses --      1.9719                 1.6281                 1.2418
 Frc consts  --      1.7965                 1.5357                 1.2644
 IR Inten    --     10.0598                 8.4169                 0.4212

                     46                     47                     48
                      A                      A                      A
 Frequencies --   1336.0282              1384.6206              1386.1715
 Red. masses --      1.1855                 2.1034                 2.0156
 Frc consts  --      1.2468                 2.3760                 2.2818
 IR Inten    --      4.7739                13.0438                 2.6089

                     49                     50                     51
                      A                      A                      A
 Frequencies --   1393.0293              1406.3995              1410.6881
 Red. masses --      1.5515                 1.3930                 1.1941
 Frc consts  --      1.7739                 1.6234                 1.4001
 IR Inten    --      3.2314                12.2703                22.5519

                     52                     53                     54
                      A                      A                      A
 Frequencies --   1422.9722              1441.5096              1442.7688
 Red. masses --      1.3618                 1.7164                 2.3978
 Frc consts  --      1.6246                 2.1014                 2.9407
 IR Inten    --     12.2918                15.8890                54.2285

                     55                     56                     57
                      A                      A                      A
 Frequencies --   1476.5970              1505.2569              1509.8532
 Red. masses --      1.4001                 1.0821                 1.0907
 Frc consts  --      1.7985                 1.4445                 1.4649
 IR Inten    --      8.4329                 2.2745                 3.0448

                     58                     59                     60
                      A                      A                      A
 Frequencies --   1514.9837              1520.4767              1530.0733
 Red. masses --      1.1262                 1.1123                 1.0777
 Frc consts  --      1.5229                 1.5151                 1.4865
 IR Inten    --     10.1818                27.3605                 1.7613

                     61                     62                     63
                      A                      A                      A
 Frequencies --   1530.8001              1536.3267              1540.0897
 Red. masses --      1.1041                 1.1726                 1.0912
 Frc consts  --      1.5244                 1.6307                 1.5250
 IR Inten    --     22.9199                 6.2719                 1.1740

                     64                     65                     66
                      A                      A                      A
 Frequencies --   1556.0199              1576.1941              2937.2439
 Red. masses --      3.1060                 5.3242                 1.0728
 Frc consts  --      4.4308                 7.7934                 5.4531
 IR Inten    --     58.4889                10.3083                52.2721

                     67                     68                     69
                      A                      A                      A
 Frequencies --   2987.8026              3028.8529              3038.1512
 Red. masses --      1.0725                 1.0677                 1.0629
 Frc consts  --      5.6412                 5.7708                 5.7804
 IR Inten    --     60.0726                43.0765                17.1661

                     70                     71                     72
                      A                      A                      A
 Frequencies --   3045.8889              3059.6262              3073.7024
 Red. masses --      1.0631                 1.0368                 1.0999
 Frc consts  --      5.8109                 5.7184                 6.1227
 IR Inten    --     40.6959                32.4343                23.9719

                     73                     74                     75
                      A                      A                      A
 Frequencies --   3086.4507              3088.7102              3102.2943
 Red. masses --      1.0945                 1.1015                 1.0931
 Frc consts  --      6.1430                 6.1915                 6.1982
 IR Inten    --     45.7211                70.3892                43.0572

                     76                     77                     78
                      A                      A                      A
 Frequencies --   3112.8369              3127.6667              3157.4245
 Red. masses --      1.0871                 1.1015                 1.1040
 Frc consts  --      6.2063                 6.3484                 6.4849
 IR Inten    --      6.6329                13.9844                11.6459

                     79                     80                     81
                      A                      A                      A
 Frequencies --   3272.2868              3503.8934              3754.6904
 Red. masses --      1.0979                 1.0733                 1.0661
 Frc consts  --      6.9268                 7.7636                 8.8550
 IR Inten    --      1.4747                 1.6743                 8.5279

 - Thermochemistry -
 -------------------
 Temperature   298.150 Kelvin.  Pressure   1.00000 Atm.
 Atom     1 has atomic number  6 and mass  12.00000

 Molecular mass:   184.13241 amu.
 Principal axes and moments of inertia in atomic units:
                           1         2         3
     Eigenvalues --   964.847475405.703185994.86083
           X            0.99992   0.01274  -0.00067
           Y           -0.01275   0.99990  -0.00538
           Z            0.00061   0.00539   0.99999
 This molecule is an asymmetric top.
 Rotational symmetry number  1.
 Warning -- assumption of classical behavior for rotation
           may cause significant error
 Rotational temperatures (Kelvin)      0.08977     0.01602     0.01445
 Rotational constants (GHZ):           1.87049     0.33386     0.30105
 Zero-point vibrational energy     664393.3 (Joules/Mol)
                                  158.79381 (Kcal/Mol)
 Warning -- explicit consideration of  18 degrees of freedom as
           vibrations may cause significant error
 Vibrational temperatures:     28.67    47.73    66.27   116.33   147.61
          (Kelvin)            185.84   192.66   281.75   288.38   349.02
                              387.33   433.34   467.19   520.57   556.57
                              604.05   678.80   821.01   948.47   981.64
                             1011.11  1026.60  1086.68  1146.18  1165.33
                             1184.43  1281.04  1337.26  1386.49  1425.89
                             1444.91  1484.20  1519.23  1558.64  1573.59
                             1592.18  1605.68  1656.82  1665.37  1714.99
                             1762.57  1770.81  1789.10  1820.50  1891.41
                             1922.25  1992.16  1994.39  2004.26  2023.50
                             2029.67  2047.34  2074.01  2075.82  2124.49
                             2165.73  2172.34  2179.72  2187.63  2201.43
                             2202.48  2210.43  2215.85  2238.77  2267.79
                             4226.04  4298.78  4357.84  4371.22  4382.35
                             4402.12  4422.37  4440.71  4443.97  4463.51
                             4478.68  4500.01  4542.83  4708.09  5041.32
                             5402.16

 Zero-point correction=                           0.253054 (Hartree/Particle)
 Thermal correction to Energy=                    0.267043
 Thermal correction to Enthalpy=                  0.267987
 Thermal correction to Gibbs Free Energy=         0.209998
 Sum of electronic and zero-point Energies=           -608.456800
 Sum of electronic and thermal Energies=              -608.442811
 Sum of electronic and thermal Enthalpies=            -608.441867
 Sum of electronic and thermal Free Energies=         -608.499855

                     E (Thermal)             CV                S
                      KCal/Mol        Cal/Mol-Kelvin    Cal/Mol-Kelvin
 Total                  167.572             50.249            122.047
 Electronic               0.000              0.000              0.000
 Translational            0.889              2.981             41.538
 Rotational               0.889              2.981             31.814
 Vibrational            165.794             44.287             48.695
 Vibration     1          0.593              1.986              6.642
 Vibration     2          0.594              1.983              5.630
 Vibration     3          0.595              1.979              4.980
 Vibration     4          0.600              1.962              3.870
 Vibration     5          0.605              1.947              3.404
 Vibration     6          0.612              1.924              2.958
 Vibration     7          0.613              1.919              2.889
 Vibration     8          0.636              1.846              2.172
 Vibration     9          0.638              1.839              2.129
 Vibration    10          0.659              1.775              1.784
 Vibration    11          0.674              1.730              1.601
 Vibration    12          0.693              1.671              1.410
 Vibration    13          0.709              1.626              1.286
 Vibration    14          0.736              1.551              1.114
 Vibration    15          0.755              1.498              1.012
 Vibration    16          0.783              1.427              0.893
 Vibration    17          0.829              1.313              0.733
 Vibration    18          0.927              1.095              0.503

 Optimization completed.
    -- Stationary point found.
 Normal termination of Gaussian 16 at Wed Dec  9 23:22:37 2020.

 ----------------------------------------------------------------------
 # B3LYP/6-311++G(d,p) empiricaldispersion=gd3bj scf=xqc pop=npa geom=c
 heck
 ----------------------------------------------------------------------

 --------------------------------------
 CID_62118454_JID_3394_Energie_neutraal
 --------------------------------------
 Structure from the checkpoint file:  "JID_3394.chk"
 Charge =  0 Multiplicity = 1

 SCF Done:  E(RB3LYP) =  -608.893715395     A.U. after   14 cycles
 Normal termination of Gaussian 16 at Wed Dec  9 23:25:47 2020.

 ----------------------------------------------------------------------
 # B3LYP/6-311++G(d,p) empiricaldispersion=gd3bj scf=xqc pop=npa geom=c
 heck
 ----------------------------------------------------------------------

 ------------------------------------
 CID_62118454_JID_3394_Energie_kation
 ------------------------------------
 Structure from the checkpoint file:  "JID_3394.chk"
 Charge =  1 Multiplicity = 2

 SCF Done:  E(UB3LYP) =  -608.572613165     A.U. after   33 cycles
 SCF Done:  E(UB3LYP) =  -608.572613825     a.u. after    2 cycles
 Normal termination of Gaussian 16 at Wed Dec  9 23:45:35 2020.
 Gaussian 16:  ES64L-G16RevA.03 25-Dec-2016

 ----------------------------------------------------------------------
 # B3LYP/6-311++G(d,p) empiricaldispersion=gd3bj scf=xqc pop=npa geom=c
 heck
 ----------------------------------------------------------------------

 -----------------------------------
 CID_62118454_JID_3394_Energie_anion
 -----------------------------------
 Structure from the checkpoint file:  "JID_3394.chk"
 Charge = -1 Multiplicity = 2

                         Standard orientation:
 ---------------------------------------------------------------------
 Center     Atomic      Atomic             Coordinates (Angstroms)
 Number     Number       Type             X           Y           Z
 ---------------------------------------------------------------------
      1          6           0        1.465373    1.991045    0.205043
      2          7           0        2.346904    0.846608    0.063688
      3          6           0        3.687905    0.859537   -0.220554
      4          7           0        4.163386   -0.358278   -0.289563
      5          7           0        3.106617   -1.219757   -0.052224
      6          6           0        2.031847   -0.491090    0.152235
      7          6           0        0.667764   -1.018087    0.456316
      8          7           0       -0.259001   -0.816069   -0.659521
      9          6           0       -1.561313   -1.456115   -0.478037
     10          6           0       -2.386811   -1.023754    0.750759
     11          6           0       -2.626899    0.488943    0.858413
     12          6           0       -3.364304    1.096942   -0.338437
     13          8           0       -4.650477    0.528075   -0.547255
     14          1           0        0.740684    1.806221    1.002663
     15          1           0        2.056507    2.868972    0.474258
     16          1           0        0.929282    2.201551   -0.727068
     17          1           0        4.250594    1.772654   -0.358527
     18          1           0        0.780195   -2.094615    0.613956
     19          1           0        0.313811   -0.589325    1.413040
     20          1           0       -0.389682    0.178730   -0.828919
     21          1           0       -2.132431   -1.276065   -1.397784
     22          1           0       -1.392243   -2.539212   -0.431774
     23          1           0       -3.354120   -1.543880    0.721621
     24          1           0       -1.896341   -1.371554    1.667783
     25          1           0       -3.206798    0.695369    1.765475
     26          1           0       -1.666620    1.012741    0.975214
     27          1           0       -3.540782    2.162392   -0.160213
     28          1           0       -2.749665    1.022605   -1.250948
     29          1           0       -4.525296   -0.383235   -0.851821
 ---------------------------------------------------------------------

 SCF Done:  E(UB3LYP) =  -608.891276073     A.U. after   30 cycles

 The electronic state is 2-A.
 Alpha  occ. eigenvalues --  -19.03377 -14.28776 -14.22589 -14.22380 -14.21476
 Alpha  occ. eigenvalues --  -10.13960 -10.13503 -10.12292 -10.12258 -10.11986
 Alpha  occ. eigenvalues --  -10.10827 -10.08080 -10.07661  -0.96654  -0.93458
 Alpha  occ. eigenvalues --   -0.83372  -0.82372  -0.72616  -0.69581  -0.64193
 Alpha  occ. eigenvalues --   -0.63289  -0.59923  -0.54597  -0.53358  -0.48859
 Alpha  occ. eigenvalues --   -0.48150  -0.43867  -0.42511  -0.40524  -0.39509
 Alpha  occ. eigenvalues --   -0.38372  -0.37395  -0.36367  -0.34760  -0.34317
 Alpha  occ. eigenvalues --   -0.33002  -0.32235  -0.31726  -0.30627  -0.29287
 Alpha  occ. eigenvalues --   -0.27090  -0.26123  -0.25533  -0.23380  -0.21801
 Alpha  occ. eigenvalues --   -0.19445  -0.18868  -0.16642  -0.16551  -0.14365
 Alpha  occ. eigenvalues --    0.03656
 Alpha virt. eigenvalues --    0.05615   0.06964   0.07444   0.08336   0.09046
 Alpha virt. eigenvalues --    0.09546   0.09857   0.10480   0.10969   0.11666
 Alpha virt. eigenvalues --    0.11892   0.12374   0.13006   0.13652   0.13915

  Beta  occ. eigenvalues --  -19.03353 -14.28773 -14.22587 -14.22377 -14.21461
  Beta  occ. eigenvalues --  -10.13957 -10.13490 -10.12228 -10.12193 -10.11968
  Beta  occ. eigenvalues --  -10.10810 -10.08065 -10.07633  -0.96643  -0.93403
  Beta  occ. eigenvalues --   -0.83352  -0.82346  -0.72598  -0.69535  -0.64093
  Beta  occ. eigenvalues --   -0.63225  -0.59869  -0.54528  -0.53337  -0.48805
  Beta  occ. eigenvalues --   -0.48085  -0.43785  -0.42444  -0.40479  -0.39449
  Beta  occ. eigenvalues --   -0.38324  -0.37351  -0.36304  -0.34708  -0.34276
  Beta  occ. eigenvalues --   -0.32924  -0.32203  -0.31678  -0.30584  -0.29251
  Beta  occ. eigenvalues --   -0.27064  -0.26086  -0.25487  -0.23348  -0.21790
  Beta  occ. eigenvalues --   -0.19417  -0.18817  -0.16629  -0.16543  -0.14343
  Beta virt. eigenvalues --    0.05918   0.06914   0.07515   0.08152   0.08693
  Beta virt. eigenvalues --    0.09315   0.09988   0.10286   0.10734   0.11155
  Beta virt. eigenvalues --    0.11927   0.12256   0.12610   0.13371   0.14043

 Mulliken charges and spin densities:
               1          2
     1  C    1.826646  -2.257997
     2  N   -0.312288   0.289450
     3  C    0.198748   0.058667
     4  N   -0.166676  -0.038287
     5  N   -0.076035   0.058705
     6  C   -0.125906   0.154375
     7  C   -0.024320  -0.994037
     8  N   -0.076514   0.060097
     9  C    0.217644  -0.532434
    10  C   -0.444605   0.183696
    11  C   -0.449949   0.287540
    12  C    0.939189  -1.413486
    13  O   -0.270593   0.033541
    14  H   -0.803145   1.003181
    15  H   -0.848825   1.022215
    16  H   -0.459515   0.669926
    17  H   -0.241611   0.437077
    18  H    0.157573   0.030647
    19  H   -0.009767   0.162641
    20  H    0.353050  -0.128854
    21  H   -0.198230   0.377476
    22  H    0.086064   0.058503
    23  H   -0.085655   0.244492
    24  H   -0.096300   0.242432
    25  H   -0.253841   0.437162
    26  H    0.447272  -0.312593
    27  H   -0.213719   0.396029
    28  H   -0.179225   0.338334
    29  H    0.110535   0.131502
 Sum of Mulliken charges =  -1.00000   1.00000

 Dipole moment (field-independent basis, Debye):
    X=             -1.8777    Y=             -4.4889    Z=              0.4397  Tot=              4.8856
 Quadrupole moment (field-independent basis, Debye-Ang):
   XX=           -165.0439   YY=           -129.8617   ZZ=           -110.6465
   XY=              8.7377   XZ=              0.3508   YZ=             -3.8741

 Summary of Natural Population Analysis:

                                       Natural Population
                Natural  -----------------------------------------------
    Atom  No    Charge         Core      Valence    Rydberg      Total
 -----------------------------------------------------------------------
      C    1   -0.17906      0.99963     2.17036    0.00906     3.17906
      N    2   -0.21216      0.99962     2.70159    0.01095     3.71216
      C    3    0.09791      0.99963     1.88511    0.01734     2.90209
      N    4   -0.16418      0.99973     2.65116    0.01330     3.66418
      N    5   -0.16346      0.99968     2.65162    0.01216     3.66346
      C    6    0.18787      0.99960     1.79409    0.01844     2.81213
      C    7   -0.11442      0.99958     2.10313    0.01171     3.11442
      N    8   -0.33539      0.99975     2.82529    0.01036     3.83539
      C    9   -0.08735      0.99963     2.07672    0.01100     3.08735
      C   10   -0.20506      0.99962     2.19774    0.00769     3.20506
      C   11   -0.20891      0.99962     2.19891    0.01037     3.20891
      C   12   -0.00903      0.99960     1.99781    0.01162     3.00903
      O   13   -0.36844      0.99990     3.36164    0.00690     4.36844
      H   14    0.10599      0.00000     0.39097    0.00303     0.39401
      H   15    0.11041      0.00000     0.38490    0.00469     0.38959
      H   16    0.10337      0.00000     0.39361    0.00303     0.39663
      H   17    0.09846      0.00000     0.40002    0.00152     0.40154
      H   18    0.10878      0.00000     0.38972    0.00150     0.39122
      H   19    0.09000      0.00000     0.40828    0.00172     0.41000
      H   20    0.17274      0.00000     0.32201    0.00525     0.32726
      H   21    0.09275      0.00000     0.40595    0.00130     0.40725
      H   22    0.09251      0.00000     0.40633    0.00116     0.40749
      H   23    0.09685      0.00000     0.40164    0.00151     0.40315
      H   24    0.09936      0.00000     0.39950    0.00114     0.40064
      H   25    0.10151      0.00000     0.39731    0.00118     0.39849
      H   26    0.09893      0.00000     0.39859    0.00248     0.40107
      H   27    0.08947      0.00000     0.40904    0.00150     0.41053
      H   28    0.07470      0.00000     0.42345    0.00185     0.42530
      H   29    0.22587      0.00000     0.27090    0.00323     0.27413
 =======================================================================
   * Total *    0.00000     12.99559    36.81742    0.18700    50.00000

 Normal termination of Gaussian 16 at Wed Dec  9 23:55:26 2020.
