 Gaussian 16, Revision A.03,

 -----------------------------------------------------------
 # opt freq B3LYP/6-31G(d) empiricaldispersion=gd3bj scf=xqc
 -----------------------------------------------------------

 -------------------------------
 CID_139200055_JID_1803_neutraal
 -------------------------------
 Symbolic Z-matrix:
 Charge =  0 Multiplicity = 1

 SCF Done:  E(RB3LYP) =  -426.392109596     A.U. after   14 cycles
 SCF Done:  E(RB3LYP) =  -426.394501971     A.U. after   12 cycles
 SCF Done:  E(RB3LYP) =  -426.394625371     A.U. after   11 cycles
 SCF Done:  E(RB3LYP) =  -426.394637647     A.U. after    9 cycles
 SCF Done:  E(RB3LYP) =  -426.394638214     A.U. after    8 cycles
 SCF Done:  E(RB3LYP) =  -426.394638391     A.U. after    8 cycles
 Optimization completed.
    -- Stationary point found.
 Normal termination of Gaussian 16 at Tue Dec  8 21:06:21 2020.

 --------------------------------------------------------------------
 #N Geom=AllCheck Guess=TCheck SCRF=Check GenChk RB3LYP/6-31G(d) Freq
 --------------------------------------------------------------------

 Structure from the checkpoint file:  "JID_1803.chk"
 -------------------------------
 CID_139200055_JID_1803_neutraal
 -------------------------------
 Charge =  0 Multiplicity = 1

 SCF Done:  E(RB3LYP) =  -426.394638391     A.U. after    1 cycles

  Exact polarizability: 132.201   3.384 152.856  -6.269   0.919  56.332
 Approx polarizability: 202.006  14.674 274.927 -15.089   2.148  86.354

                      1                      2                      3
                      A                      A                      A
 Frequencies --     61.0457               120.0128               159.8705
 Red. masses --      2.9870                 1.2197                 2.1439
 Frc consts  --      0.0066                 0.0104                 0.0323
 IR Inten    --      0.2392                 1.0051                 0.2428

                      4                      5                      6
                      A                      A                      A
 Frequencies --    183.9729               244.3963               262.7280
 Red. masses --      2.9342                 2.5075                 1.1909
 Frc consts  --      0.0585                 0.0882                 0.0484
 IR Inten    --      1.0049                 0.2638                 0.0493

                      7                      8                      9
                      A                      A                      A
 Frequencies --    282.0393               320.3460               432.3889
 Red. masses --      2.8380                 3.0554                 4.2796
 Frc consts  --      0.1330                 0.1847                 0.4714
 IR Inten    --      0.3833                 2.5599                 4.1797

                     10                     11                     12
                      A                      A                      A
 Frequencies --    473.1435               505.5622               568.8796
 Red. masses --      2.8080                 3.8889                 4.0248
 Frc consts  --      0.3704                 0.5856                 0.7674
 IR Inten    --      1.3775                 2.3213                 5.3608

                     13                     14                     15
                      A                      A                      A
 Frequencies --    576.5913               600.9944               631.0644
 Red. masses --      2.9112                 3.7359                 4.1256
 Frc consts  --      0.5702                 0.7950                 0.9680
 IR Inten    --      0.7721                 2.2145                 4.0814

                     16                     17                     18
                      A                      A                      A
 Frequencies --    696.6878               757.6324               784.8064
 Red. masses --      1.5477                 2.2403                 1.7371
 Frc consts  --      0.4426                 0.7577                 0.6304
 IR Inten    --     13.1498                33.8936                 3.9028

                     19                     20                     21
                      A                      A                      A
 Frequencies --    792.1289               842.0518               847.8765
 Red. masses --      2.7497                 1.4828                 3.8143
 Frc consts  --      1.0166                 0.6195                 1.6156
 IR Inten    --     17.2754                 6.8041                 5.5392

                     22                     23                     24
                      A                      A                      A
 Frequencies --    911.1267               913.7558               952.9962
 Red. masses --      1.3487                 1.9959                 2.4594
 Frc consts  --      0.6597                 0.9818                 1.3160
 IR Inten    --      0.2563                 5.8770                 1.1630

                     25                     26                     27
                      A                      A                      A
 Frequencies --    984.3780               997.4583              1026.3882
 Red. masses --      1.3073                 1.5977                 1.8169
 Frc consts  --      0.7463                 0.9366                 1.1277
 IR Inten    --      2.0165                 2.7110                 3.5255

                     28                     29                     30
                      A                      A                      A
 Frequencies --   1049.8619              1064.9056              1074.2135
 Red. masses --      1.9467                 1.5750                 2.1469
 Frc consts  --      1.2642                 1.0523                 1.4597
 IR Inten    --      5.0689                 2.2489                 5.0194

                     31                     32                     33
                      A                      A                      A
 Frequencies --   1115.1670              1137.3372              1180.0220
 Red. masses --      1.5503                 1.3816                 1.9258
 Frc consts  --      1.1359                 1.0530                 1.5799
 IR Inten    --      0.3035                10.4245                 0.3016

                     34                     35                     36
                      A                      A                      A
 Frequencies --   1221.1347              1227.1151              1274.1409
 Red. masses --      2.3890                 1.2689                 1.8290
 Frc consts  --      2.0989                 1.1257                 1.7494
 IR Inten    --     26.6309                 0.7612                 4.9310

                     37                     38                     39
                      A                      A                      A
 Frequencies --   1294.9377              1348.9710              1355.2280
 Red. masses --      1.3287                 1.8696                 5.1769
 Frc consts  --      1.3127                 2.0045                 5.6020
 IR Inten    --      0.1613                 7.9743                13.8461

                     40                     41                     42
                      A                      A                      A
 Frequencies --   1402.7851              1425.3198              1437.0057
 Red. masses --      2.0791                 1.2397                 1.2622
 Frc consts  --      2.4105                 1.4838                 1.5356
 IR Inten    --     20.4143                 3.9700                 5.3574

                     43                     44                     45
                      A                      A                      A
 Frequencies --   1455.8333              1507.0718              1511.5827
 Red. masses --      1.7256                 1.0450                 1.1023
 Frc consts  --      2.1548                 1.3984                 1.4839
 IR Inten    --      7.5797                 6.8242                22.2015

                     46                     47                     48
                      A                      A                      A
 Frequencies --   1521.8167              1524.0022              1534.2265
 Red. masses --      1.4167                 1.0655                 2.2573
 Frc consts  --      1.9331                 1.4580                 3.1305
 IR Inten    --      6.5207                 7.1985                36.6011

                     49                     50                     51
                      A                      A                      A
 Frequencies --   1633.3343              1637.2839              1724.8779
 Red. masses --      7.6444                 5.9089                 6.8894
 Frc consts  --     12.0155                 9.3326                12.0766
 IR Inten    --     34.8623                10.3191                41.4773

                     52                     53                     54
                      A                      A                      A
 Frequencies --   2976.4294              3038.5566              3051.8070
 Red. masses --      1.0807                 1.0410                 1.0352
 Frc consts  --      5.6408                 5.6628                 5.6803
 IR Inten    --     16.9583                21.8658                43.9402

                     55                     56                     57
                      A                      A                      A
 Frequencies --   3083.7188              3122.7110              3138.9330
 Red. masses --      1.0995                 1.1014                 1.1039
 Frc consts  --      6.1602                 6.3276                 6.4080
 IR Inten    --     16.2854                23.6458                19.5266

                     58                     59                     60
                      A                      A                      A
 Frequencies --   3157.3418              3164.8168              3186.1125
 Red. masses --      1.0970                 1.0849                 1.0962
 Frc consts  --      6.4430                 6.4022                 6.5563
 IR Inten    --     11.4209                 8.9382                37.7683

                     61                     62                     63
                      A                      A                      A
 Frequencies --   3213.9074              3227.7705              3251.4337
 Red. masses --      1.0899                 1.0929                 1.1007
 Frc consts  --      6.6329                 6.7088                 6.8559
 IR Inten    --     10.6928                20.8935                17.8835

 - Thermochemistry -
 -------------------
 Temperature   298.150 Kelvin.  Pressure   1.00000 Atm.
 Atom     1 has atomic number  6 and mass  12.00000

 Molecular mass:   144.09390 amu.
 Principal axes and moments of inertia in atomic units:
                           1         2         3
     Eigenvalues --  1280.284561385.186852534.67651
           X            0.99574   0.09223   0.00178
           Y           -0.09222   0.99574  -0.00127
           Z           -0.00189   0.00110   1.00000
 This molecule is an asymmetric top.
 Rotational symmetry number  1.
 Warning -- assumption of classical behavior for rotation
           may cause significant error
 Rotational temperatures (Kelvin)      0.06765     0.06253     0.03417
 Rotational constants (GHZ):           1.40964     1.30289     0.71202
 Zero-point vibrational energy     515602.7 (Joules/Mol)
                                  123.23200 (Kcal/Mol)
 Warning -- explicit consideration of  14 degrees of freedom as
           vibrations may cause significant error
 Vibrational temperatures:     87.83   172.67   230.02   264.70   351.63
          (Kelvin)            378.01   405.79   460.91   622.11   680.75
                              727.39   818.49   829.59   864.70   907.96
                             1002.38  1090.06  1129.16  1139.70  1211.52
                             1219.91  1310.91  1314.69  1371.15  1416.30
                             1435.12  1476.74  1510.52  1532.16  1545.55
                             1604.48  1636.37  1697.79  1756.94  1765.54
                             1833.20  1863.13  1940.87  1949.87  2018.29
                             2050.72  2067.53  2094.62  2168.34  2174.83
                             2189.55  2192.70  2207.41  2350.00  2355.69
                             2481.71  4282.42  4371.81  4390.87  4436.78
                             4492.88  4516.22  4542.71  4553.47  4584.11
                             4624.10  4644.04  4678.09

 Zero-point correction=                           0.196383 (Hartree/Particle)
 Thermal correction to Energy=                    0.206174
 Thermal correction to Enthalpy=                  0.207118
 Thermal correction to Gibbs Free Energy=         0.161482
 Sum of electronic and zero-point Energies=           -426.198256
 Sum of electronic and thermal Energies=              -426.188464
 Sum of electronic and thermal Enthalpies=            -426.187520
 Sum of electronic and thermal Free Energies=         -426.233156

                     E (Thermal)             CV                S
                      KCal/Mol        Cal/Mol-Kelvin    Cal/Mol-Kelvin
 Total                  129.376             38.653             96.049
 Electronic               0.000              0.000              0.000
 Translational            0.889              2.981             40.807
 Rotational               0.889              2.981             29.887
 Vibrational            127.599             32.691             25.355
 Vibration     1          0.597              1.973              4.423
 Vibration     2          0.609              1.933              3.100
 Vibration     3          0.622              1.892              2.551
 Vibration     4          0.631              1.862              2.288
 Vibration     5          0.660              1.772              1.771
 Vibration     6          0.670              1.741              1.644
 Vibration     7          0.681              1.707              1.521
 Vibration     8          0.706              1.635              1.308
 Vibration     9          0.793              1.400              0.851
 Vibration    10          0.830              1.310              0.729
 Vibration    11          0.861              1.238              0.644
 Vibration    12          0.925              1.099              0.506
 Vibration    13          0.933              1.082              0.492
 Vibration    14          0.959              1.030              0.448

                           ! Non-Optimized Parameters !
 Normal termination of Gaussian 16 at Tue Dec  8 21:11:30 2020.

 ----------------------------------------------------------------------
 # B3LYP/6-311++G(d,p) empiricaldispersion=gd3bj scf=xqc pop=npa geom=c
 heck
 ----------------------------------------------------------------------

 ---------------------------------------
 CID_139200055_JID_1803_Energie_neutraal
 ---------------------------------------
 Structure from the checkpoint file:  "JID_1803.chk"
 Charge =  0 Multiplicity = 1

 SCF Done:  E(RB3LYP) =  -426.503988927     A.U. after   15 cycles
 Normal termination of Gaussian 16 at Tue Dec  8 21:14:28 2020.

 ----------------------------------------------------------------------
 # B3LYP/6-311++G(d,p) empiricaldispersion=gd3bj scf=xqc pop=npa geom=c
 heck
 ----------------------------------------------------------------------

 -------------------------------------
 CID_139200055_JID_1803_Energie_kation
 -------------------------------------
 Structure from the checkpoint file:  "JID_1803.chk"
 Charge =  1 Multiplicity = 2

 SCF Done:  E(UB3LYP) =  -426.231205512     A.U. after   23 cycles
 Normal termination of Gaussian 16 at Tue Dec  8 21:20:56 2020.
 Gaussian 16:  ES64L-G16RevA.03 25-Dec-2016

 ----------------------------------------------------------------------
 # B3LYP/6-311++G(d,p) empiricaldispersion=gd3bj scf=xqc pop=npa geom=c
 heck
 ----------------------------------------------------------------------

 ------------------------------------
 CID_139200055_JID_1803_Energie_anion
 ------------------------------------
 Structure from the checkpoint file:  "JID_1803.chk"
 Charge = -1 Multiplicity = 2

                         Standard orientation:
 ---------------------------------------------------------------------
 Center     Atomic      Atomic             Coordinates (Angstroms)
 Number     Number       Type             X           Y           Z
 ---------------------------------------------------------------------
      1          6           0        2.757750   -0.424413    0.681718
      2          6           0        1.630643   -0.489687   -0.377649
      3          6           0        0.958878   -1.835016   -0.329821
      4          6           0       -0.363521   -1.999535   -0.141146
      5          6           0       -1.285639   -0.877355    0.020473
      6          6           0       -0.786758    0.390175   -0.022645
      7          6           0        0.651559    0.638086   -0.225010
      8          6           0        0.837163    1.988169   -0.214969
      9          6           0       -0.458425    2.636952   -0.010588
     10          6           0       -1.432053    1.687724    0.104853
     11          6           0       -2.738794   -1.193315    0.226922
     12          1           0        3.284811    0.531940    0.613066
     13          1           0        3.484275   -1.232430    0.536505
     14          1           0        2.335696   -0.510202    1.687609
     15          1           0        2.120467   -0.416078   -1.363702
     16          1           0        1.603655   -2.704425   -0.440912
     17          1           0       -0.785407   -3.001834   -0.106054
     18          1           0        1.777372    2.514465   -0.339471
     19          1           0       -0.604753    3.710367    0.038368
     20          1           0       -2.489298    1.857533    0.261090
     21          1           0       -3.131226   -1.772025   -0.619749
     22          1           0       -2.874656   -1.814978    1.121792
     23          1           0       -3.345754   -0.293044    0.338637
 ---------------------------------------------------------------------

 SCF Done:  E(UB3LYP) =  -426.522383564     A.U. after   23 cycles

 The electronic state is 2-A.
 Alpha  occ. eigenvalues --  -10.02929 -10.02710 -10.02314 -10.00912 -10.00532
 Alpha  occ. eigenvalues --  -10.00495  -9.98670  -9.98528  -9.98452  -9.98115
 Alpha  occ. eigenvalues --   -9.98083  -0.70156  -0.65032  -0.63509  -0.57447
 Alpha  occ. eigenvalues --   -0.53201  -0.52461  -0.49059  -0.42810  -0.40296
 Alpha  occ. eigenvalues --   -0.36875  -0.34401  -0.30965  -0.29585  -0.28446
 Alpha  occ. eigenvalues --   -0.27897  -0.27320  -0.26465  -0.24100  -0.22689
 Alpha  occ. eigenvalues --   -0.21837  -0.21213  -0.18891  -0.18451  -0.17147
 Alpha  occ. eigenvalues --   -0.15471  -0.14206  -0.06030  -0.04027   0.04097
 Alpha virt. eigenvalues --    0.09211   0.09761   0.10581   0.11441   0.11878
 Alpha virt. eigenvalues --    0.12117   0.12898   0.13709   0.14125   0.14490
 Alpha virt. eigenvalues --    0.15902   0.16731   0.17261   0.18668   0.18738

  Beta  occ. eigenvalues --  -10.02983 -10.02747 -10.02218 -10.01005 -10.00077
  Beta  occ. eigenvalues --  -10.00000  -9.98536  -9.98517  -9.98276  -9.98065
  Beta  occ. eigenvalues --   -9.97992  -0.69688  -0.64607  -0.63012  -0.57204
  Beta  occ. eigenvalues --   -0.52857  -0.52230  -0.48744  -0.42244  -0.39944
  Beta  occ. eigenvalues --   -0.36625  -0.34212  -0.30683  -0.29309  -0.28082
  Beta  occ. eigenvalues --   -0.27450  -0.27157  -0.26380  -0.23731  -0.22486
  Beta  occ. eigenvalues --   -0.21601  -0.21109  -0.18710  -0.17513  -0.16916
  Beta  occ. eigenvalues --   -0.15254  -0.12707  -0.04214  -0.03178
  Beta virt. eigenvalues --    0.08919   0.09570   0.10378   0.10709   0.11449
  Beta virt. eigenvalues --    0.11831   0.12086   0.13026   0.13655   0.14059
  Beta virt. eigenvalues --    0.14439   0.15850   0.16673   0.18207   0.18632

 Mulliken charges and spin densities:
               1          2
     1  C   -0.530627  -0.187038
     2  C   -0.095463  -0.087665
     3  C   -0.240578   0.492768
     4  C   -0.113502  -0.136648
     5  C    0.020040   0.346479
     6  C    0.746586   0.014544
     7  C    0.289641   0.098960
     8  C   -0.367562   0.102202
     9  C   -0.156460   0.102492
    10  C   -0.859313   0.067063
    11  C   -0.680334  -0.028328
    12  H    0.089999   0.022436
    13  H    0.031727   0.049829
    14  H    0.103257   0.035160
    15  H    0.071364   0.071731
    16  H    0.103327  -0.008459
    17  H    0.089384   0.003530
    18  H    0.044709   0.020677
    19  H    0.084897  -0.010016
    20  H    0.019009  -0.006723
    21  H    0.110743   0.016435
    22  H    0.109690   0.020847
    23  H    0.129467  -0.000275
 Sum of Mulliken charges =  -1.00000   1.00000

 Dipole moment (field-independent basis, Debye):
    X=             -0.0247    Y=             -2.1828    Z=              0.2340  Tot=              2.1955
 Quadrupole moment (field-independent basis, Debye-Ang):
   XX=            -84.1224   YY=            -88.8227   ZZ=            -79.2873
   XY=              1.6535   XZ=             -1.0788   YZ=              0.6415

 Summary of Natural Population Analysis:

                                       Natural Population
                Natural  -----------------------------------------------
    Atom  No    Charge         Core      Valence    Rydberg      Total
 -----------------------------------------------------------------------
      C    1   -0.26166      0.99965     2.25646    0.00555     3.26166
      C    2   -0.14300      0.99956     2.13273    0.01072     3.14300
      C    3    0.02618      0.99956     1.96490    0.00936     2.97382
      C    4   -0.14885      0.99952     2.14002    0.00931     3.14885
      C    5    0.11879      0.99945     1.87378    0.00798     2.88121
      C    6   -0.04929      0.99945     2.04099    0.00885     3.04929
      C    7    0.01331      0.99948     1.97606    0.01115     2.98669
      C    8   -0.13268      0.99949     2.12396    0.00922     3.13268
      C    9   -0.09616      0.99958     2.08552    0.01106     3.09616
      C   10   -0.12715      0.99952     2.11699    0.01064     3.12715
      C   11   -0.29189      0.99959     2.28762    0.00468     3.29189
      H   12    0.09378      0.00000     0.40461    0.00162     0.40622
      H   13    0.08452      0.00000     0.41367    0.00181     0.41548
      H   14    0.09641      0.00000     0.40222    0.00137     0.40359
      H   15    0.10719      0.00000     0.39059    0.00222     0.39281
      H   16    0.07761      0.00000     0.42072    0.00166     0.42239
      H   17    0.08520      0.00000     0.41287    0.00193     0.41480
      H   18    0.08547      0.00000     0.41320    0.00133     0.41453
      H   19    0.08262      0.00000     0.41633    0.00106     0.41738
      H   20    0.08702      0.00000     0.41187    0.00112     0.41298
      H   21    0.09700      0.00000     0.40155    0.00145     0.40300
      H   22    0.09713      0.00000     0.40143    0.00145     0.40287
      H   23    0.09848      0.00000     0.40053    0.00099     0.40152
 =======================================================================
   * Total *    0.00000     10.99486    27.88864    0.11650    39.00000

 Normal termination of Gaussian 16 at Tue Dec  8 21:26:28 2020.
