 Gaussian 16, Revision A.03,

 -----------------------------------------------------------
 # opt freq B3LYP/6-31G(d) empiricaldispersion=gd3bj scf=xqc
 -----------------------------------------------------------

 ------------------------------
 CID_79460377_JID_9143_neutraal
 ------------------------------
 Symbolic Z-matrix:
 Charge =  0 Multiplicity = 1

 SCF Done:  E(RB3LYP) =  -1128.23211022     A.U. after   32 cycles
 SCF Done:  E(RB3LYP) =  -1128.34197904     A.U. after   30 cycles
 SCF Done:  E(RB3LYP) =  -1128.44476942     A.U. after   26 cycles
 SCF Done:  E(RB3LYP) =  -1128.58261794     A.U. after   33 cycles
 SCF Done:  E(RB3LYP) =  -1128.58261794     a.u. after    2 cycles
 SCF Done:  E(RB3LYP) =  -1128.11578884     A.U. after   33 cycles
 SCF Done:  E(RB3LYP) =  -1128.61547698     a.u. after   25 cycles
 SCF Done:  E(RB3LYP) =  -1128.75489392     A.U. after   24 cycles
 SCF Done:  E(RB3LYP) =  -1128.05969336     A.U. after   33 cycles
 SCF Done:  E(RB3LYP) =  -1128.85361728     a.u. after   24 cycles
 SCF Done:  E(RB3LYP) =  -1129.44209926     A.U. after    7 cycles
 SCF Done:  E(RB3LYP) =  -1129.44209988     A.U. after    8 cycles
 SCF Done:  E(RB3LYP) =  -1129.44210024     A.U. after    8 cycles
 SCF Done:  E(RB3LYP) =  -1129.44210066     A.U. after    7 cycles
 SCF Done:  E(RB3LYP) =  -1129.44210081     A.U. after    8 cycles
 Optimization completed.
    -- Stationary point found.
 Normal termination of Gaussian 16 at Sat Dec 12 11:15:57 2020.

 --------------------------------------------------------------------
 #N Geom=AllCheck Guess=TCheck SCRF=Check GenChk RB3LYP/6-31G(d) Freq
 --------------------------------------------------------------------

 Structure from the checkpoint file:  "JID_9143.chk"
 ------------------------------
 CID_79460377_JID_9143_neutraal
 ------------------------------
 Charge =  0 Multiplicity = 1

 SCF Done:  E(RB3LYP) =  -1129.44210081     A.U. after    1 cycles

  Exact polarizability: 200.962  -7.726 186.359  -4.805   9.342 155.433
 Approx polarizability: 289.245 -16.134 296.862 -14.621  33.952 275.646

                      1                      2                      3
                      A                      A                      A
 Frequencies --     36.6598                80.6677               107.3857
 Red. masses --      4.1781                 4.2969                 5.3302
 Frc consts  --      0.0033                 0.0165                 0.0362
 IR Inten    --      0.3101                 0.7997                 1.0783

                      4                      5                      6
                      A                      A                      A
 Frequencies --    133.4410               151.7830               164.9282
 Red. masses --      3.4196                 2.7592                 3.6262
 Frc consts  --      0.0359                 0.0375                 0.0581
 IR Inten    --      1.7975                 0.9629                 3.0122

                      7                      8                      9
                      A                      A                      A
 Frequencies --    192.6030               198.3849               225.9212
 Red. masses --      2.3387                 1.2029                 2.5082
 Frc consts  --      0.0511                 0.0279                 0.0754
 IR Inten    --      0.8997                 1.1272                 0.9288

                     10                     11                     12
                      A                      A                      A
 Frequencies --    237.5477               257.2408               281.0999
 Red. masses --      1.7680                 3.6536                 2.9748
 Frc consts  --      0.0588                 0.1424                 0.1385
 IR Inten    --      1.9644                 0.1763                 2.6861

                     13                     14                     15
                      A                      A                      A
 Frequencies --    298.5897               322.3047               343.8451
 Red. masses --      3.2130                 3.6459                 2.9937
 Frc consts  --      0.1688                 0.2231                 0.2085
 IR Inten    --      0.6256                 1.0870                 1.9987

                     16                     17                     18
                      A                      A                      A
 Frequencies --    367.0131               373.7133               384.3515
 Red. masses --      2.8198                 2.3311                 2.4133
 Frc consts  --      0.2238                 0.1918                 0.2100
 IR Inten    --      0.9802                 1.1255                 1.3978

                     19                     20                     21
                      A                      A                      A
 Frequencies --    388.5163               452.9276               485.9744
 Red. masses --      3.1445                 3.2855                 3.4690
 Frc consts  --      0.2797                 0.3971                 0.4827
 IR Inten    --      0.4077                 0.3264                 1.8416

                     22                     23                     24
                      A                      A                      A
 Frequencies --    503.2280               514.9380               539.4293
 Red. masses --      3.2803                 3.6738                 4.8762
 Frc consts  --      0.4894                 0.5739                 0.8360
 IR Inten    --      5.6919                 1.0847                 3.2105

                     25                     26                     27
                      A                      A                      A
 Frequencies --    546.3735               577.8637               611.6747
 Red. masses --      3.4032                 3.6022                 3.9764
 Frc consts  --      0.5986                 0.7087                 0.8766
 IR Inten    --      1.3709                 5.0344                 0.0954

                     28                     29                     30
                      A                      A                      A
 Frequencies --    640.1679               654.2439               686.6542
 Red. masses --      4.7226                 2.7809                 2.6399
 Frc consts  --      1.1403                 0.7013                 0.7333
 IR Inten    --      4.5067                32.4149                40.9700

                     31                     32                     33
                      A                      A                      A
 Frequencies --    715.4367               741.5527               756.0553
 Red. masses --      5.4147                 1.4937                 3.4370
 Frc consts  --      1.6329                 0.4840                 1.1575
 IR Inten    --      0.4479                30.9196                 6.1942

                     34                     35                     36
                      A                      A                      A
 Frequencies --    772.1597               795.0742               846.5610
 Red. masses --      2.4721                 1.4844                 3.5506
 Frc consts  --      0.8684                 0.5529                 1.4992
 IR Inten    --      3.7095                15.9225                16.3534

                     37                     38                     39
                      A                      A                      A
 Frequencies --    864.4111               877.5206               896.8624
 Red. masses --      3.0646                 1.4991                 2.8357
 Frc consts  --      1.3492                 0.6801                 1.3439
 IR Inten    --     15.2935                19.5724                12.7977

                     40                     41                     42
                      A                      A                      A
 Frequencies --    899.3162               925.5171               934.1375
 Red. masses --      2.1194                 2.1977                 2.4387
 Frc consts  --      1.0099                 1.1092                 1.2538
 IR Inten    --      3.3415                21.3617                 9.7259

                     43                     44                     45
                      A                      A                      A
 Frequencies --    947.5646               967.0215               977.2993
 Red. masses --      1.8272                 1.8138                 1.3228
 Frc consts  --      0.9666                 0.9993                 0.7444
 IR Inten    --      3.9185                 0.5280                 0.1203

                     46                     47                     48
                      A                      A                      A
 Frequencies --    989.4192              1007.9320              1012.5049
 Red. masses --      2.2090                 2.1495                 2.0357
 Frc consts  --      1.2741                 1.2866                 1.2296
 IR Inten    --      2.5073                 0.8843                 5.1480

                     49                     50                     51
                      A                      A                      A
 Frequencies --   1015.9085              1048.7979              1057.7651
 Red. masses --      2.2021                 2.2714                 3.1868
 Frc consts  --      1.3390                 1.4721                 2.1008
 IR Inten    --      1.2439                 4.3014                 4.6855

                     52                     53                     54
                      A                      A                      A
 Frequencies --   1059.2096              1080.0682              1081.8912
 Red. masses --      2.9939                 1.6610                 1.7118
 Frc consts  --      1.9790                 1.1416                 1.1805
 IR Inten    --      2.6298                 2.1700                 9.7054

                     55                     56                     57
                      A                      A                      A
 Frequencies --   1105.9060              1107.1446              1148.6732
 Red. masses --      2.7838                 2.1569                 1.7316
 Frc consts  --      2.0060                 1.5577                 1.3461
 IR Inten    --      1.4696                18.1987                 4.8333

                     58                     59                     60
                      A                      A                      A
 Frequencies --   1155.0957              1169.5378              1183.7287
 Red. masses --      1.7509                 1.8632                 1.5548
 Frc consts  --      1.3764                 1.5016                 1.2836
 IR Inten    --      7.0993                 2.5704                 0.7096

                     61                     62                     63
                      A                      A                      A
 Frequencies --   1208.2889              1213.6709              1232.9151
 Red. masses --      1.5613                 2.1339                 1.2617
 Frc consts  --      1.3430                 1.8520                 1.1300
 IR Inten    --      1.8865                 4.9676                 3.2681

                     64                     65                     66
                      A                      A                      A
 Frequencies --   1249.9077              1264.2842              1270.9077
 Red. masses --      2.1428                 1.9302                 2.1527
 Frc consts  --      1.9724                 1.8178                 2.0486
 IR Inten    --      2.1729                 3.6355                 1.7923

                     67                     68                     69
                      A                      A                      A
 Frequencies --   1300.3131              1304.4060              1313.3011
 Red. masses --      1.2477                 1.5142                 1.4547
 Frc consts  --      1.2430                 1.5179                 1.4782
 IR Inten    --     13.4937                 1.9176                 4.3727

                     70                     71                     72
                      A                      A                      A
 Frequencies --   1332.8358              1342.7452              1367.9710
 Red. masses --      1.6119                 1.6829                 1.8181
 Frc consts  --      1.6871                 1.7877                 2.0046
 IR Inten    --      1.1963                 0.3577                 2.8857

                     73                     74                     75
                      A                      A                      A
 Frequencies --   1379.3669              1391.1819              1396.7440
 Red. masses --      1.5507                 1.3175                 1.5520
 Frc consts  --      1.7384                 1.5023                 1.7839
 IR Inten    --      0.1583                 6.7818                 9.5300

                     76                     77                     78
                      A                      A                      A
 Frequencies --   1412.1244              1427.1223              1432.5425
 Red. masses --      1.3878                 1.3342                 1.3750
 Frc consts  --      1.6306                 1.6011                 1.6626
 IR Inten    --      4.3547                 1.9945                11.4376

                     79                     80                     81
                      A                      A                      A
 Frequencies --   1452.5400              1502.5409              1507.3262
 Red. masses --      1.3404                 1.1258                 3.2165
 Frc consts  --      1.6663                 1.4975                 4.3058
 IR Inten    --      5.5562                 8.6584                47.6357

                     82                     83                     84
                      A                      A                      A
 Frequencies --   1515.7884              1517.6196              1519.3732
 Red. masses --      1.1612                 1.1774                 1.0687
 Frc consts  --      1.5719                 1.5977                 1.4536
 IR Inten    --      2.2102                 9.8548                 4.1392

                     85                     86                     87
                      A                      A                      A
 Frequencies --   1524.6720              1528.7336              1557.3123
 Red. masses --      1.0727                 1.0710                 1.0691
 Frc consts  --      1.4692                 1.4747                 1.5277
 IR Inten    --      5.3677                 2.6733                 4.7487

                     88                     89                     90
                      A                      A                      A
 Frequencies --   1568.1378              1595.1184              1657.8650
 Red. masses --      1.1000                 7.4700                 7.3305
 Frc consts  --      1.5937                11.1984                11.8709
 IR Inten    --      8.3759                20.4921                 6.6313

                     91                     92                     93
                      A                      A                      A
 Frequencies --   1725.1317              3013.7412              3020.0189
 Red. masses --      5.7978                 1.0657                 1.0669
 Frc consts  --     10.1662                 5.7031                 5.7333
 IR Inten    --      7.3339                62.9038                33.1294

                     94                     95                     96
                      A                      A                      A
 Frequencies --   3023.2484              3036.6198              3040.7000
 Red. masses --      1.0471                 1.0811                 1.0621
 Frc consts  --      5.6386                 5.8732                 5.7856
 IR Inten    --     27.8869                21.8652                42.1791

                     97                     98                     99
                      A                      A                      A
 Frequencies --   3060.4025              3068.9628              3072.1345
 Red. masses --      1.0691                 1.0600                 1.0935
 Frc consts  --      5.8995                 5.8823                 6.0807
 IR Inten    --     11.2618                10.3694                36.7782

                    100                    101                    102
                      A                      A                      A
 Frequencies --   3078.5152              3085.6838              3092.3629
 Red. masses --      1.0995                 1.0839                 1.0877
 Frc consts  --      6.1396                 6.0804                 6.1281
 IR Inten    --     64.1378                49.2453                18.2128

                    103                    104                    105
                      A                      A                      A
 Frequencies --   3096.6091              3129.5410              3151.4961
 Red. masses --      1.1009                 1.1029                 1.0883
 Frc consts  --      6.2199                 6.3645                 6.3683
 IR Inten    --     20.9844                14.3451                18.6436

                    106                    107                    108
                      A                      A                      A
 Frequencies --   3169.3470              3180.4752              3184.4199
 Red. masses --      1.0863                 1.0885                 1.1033
 Frc consts  --      6.4291                 6.4870                 6.5919
 IR Inten    --     10.7758                25.8175                10.4002

                    109                    110                    111
                      A                      A                      A
 Frequencies --   3199.2941              3242.5391              3509.9526
 Red. masses --      1.0969                 1.0938                 1.0763
 Frc consts  --      6.6147                 6.7758                 7.8124
 IR Inten    --     25.9729                 2.5915                 4.2066

 - Thermochemistry -
 -------------------
 Temperature   298.150 Kelvin.  Pressure   1.00000 Atm.
 Atom     1 has atomic number  6 and mass  12.00000

 Molecular mass:   272.13472 amu.
 Principal axes and moments of inertia in atomic units:
                           1         2         3
     Eigenvalues --  3409.666165413.910427114.42495
           X            0.99902  -0.04414  -0.00119
           Y            0.04415   0.99893   0.01400
           Z            0.00057  -0.01404   0.99990
 This molecule is an asymmetric top.
 Rotational symmetry number  1.
 Warning -- assumption of classical behavior for rotation
           may cause significant error
 Rotational temperatures (Kelvin)      0.02540     0.01600     0.01217
 Rotational constants (GHZ):           0.52930     0.33335     0.25367
 Zero-point vibrational energy     875477.4 (Joules/Mol)
                                  209.24413 (Kcal/Mol)
 Warning -- explicit consideration of  27 degrees of freedom as
           vibrations may cause significant error
 Vibrational temperatures:     52.75   116.06   154.50   191.99   218.38
          (Kelvin)            237.29   277.11   285.43   325.05   341.78
                              370.11   404.44   429.60   463.72   494.72
                              528.05   537.69   553.00   558.99   651.66
                              699.21   724.03   740.88   776.12   786.11
                              831.42   880.06   921.06   941.31   987.94
                             1029.35  1066.93  1087.79  1110.97  1143.93
                             1218.01  1243.69  1262.56  1290.39  1293.92
                             1331.61  1344.02  1363.33  1391.33  1406.12
                             1423.55  1450.19  1456.77  1461.67  1508.99
                             1521.89  1523.97  1553.98  1556.60  1591.15
                             1592.93  1652.68  1661.93  1682.70  1703.12
                             1738.46  1746.20  1773.89  1798.34  1819.02
                             1828.55  1870.86  1876.75  1889.55  1917.65
                             1931.91  1968.21  1984.60  2001.60  2009.60
                             2031.73  2053.31  2061.11  2089.88  2161.82
                             2168.71  2180.88  2183.52  2186.04  2193.66
                             2199.51  2240.63  2256.20  2295.02  2385.30
                             2482.08  4336.10  4345.13  4349.78  4369.02
                             4374.89  4403.24  4415.55  4420.12  4429.30
                             4439.61  4449.22  4455.33  4502.71  4534.30
                             4559.98  4575.99  4581.67  4603.07  4665.29
                             5050.04

 Zero-point correction=                           0.333452 (Hartree/Particle)
 Thermal correction to Energy=                    0.349833
 Thermal correction to Enthalpy=                  0.350777
 Thermal correction to Gibbs Free Energy=         0.290880
 Sum of electronic and zero-point Energies=          -1129.108649
 Sum of electronic and thermal Energies=             -1129.092268
 Sum of electronic and thermal Enthalpies=           -1129.091324
 Sum of electronic and thermal Free Energies=        -1129.151221

                     E (Thermal)             CV                S
                      KCal/Mol        Cal/Mol-Kelvin    Cal/Mol-Kelvin
 Total                  219.524             67.801            126.065
 Electronic               0.000              0.000              0.000
 Translational            0.889              2.981             42.702
 Rotational               0.889              2.981             33.240
 Vibrational            217.746             61.839             50.123
 Vibration     1          0.594              1.982              5.432
 Vibration     2          0.600              1.962              3.875
 Vibration     3          0.606              1.943              3.316
 Vibration     4          0.613              1.920              2.896
 Vibration     5          0.619              1.901              2.650
 Vibration     6          0.623              1.886              2.493
 Vibration     7          0.635              1.850              2.203
 Vibration     8          0.637              1.842              2.148
 Vibration     9          0.650              1.802              1.911
 Vibration    10          0.656              1.783              1.821
 Vibration    11          0.667              1.751              1.680
 Vibration    12          0.681              1.709              1.527
 Vibration    13          0.692              1.676              1.425
 Vibration    14          0.707              1.631              1.298
 Vibration    15          0.723              1.588              1.194
 Vibration    16          0.740              1.540              1.092
 Vibration    17          0.745              1.526              1.065
 Vibration    18          0.753              1.504              1.022
 Vibration    19          0.757              1.495              1.006
 Vibration    20          0.811              1.354              0.787
 Vibration    21          0.842              1.281              0.694
 Vibration    22          0.859              1.243              0.650
 Vibration    23          0.870              1.217              0.622
 Vibration    24          0.894              1.163              0.567
 Vibration    25          0.902              1.148              0.552
 Vibration    26          0.934              1.079              0.489
 Vibration    27          0.971              1.007              0.430

                           ! Non-Optimized Parameters !
 Normal termination of Gaussian 16 at Sat Dec 12 11:39:53 2020.

 ----------------------------------------------------------------------
 # B3LYP/6-311++G(d,p) empiricaldispersion=gd3bj scf=xqc pop=npa geom=c
 heck
 ----------------------------------------------------------------------

 --------------------------------------
 CID_79460377_JID_9143_Energie_neutraal
 --------------------------------------
 Structure from the checkpoint file:  "JID_9143.chk"
 Charge =  0 Multiplicity = 1

 SCF Done:  E(RB3LYP) =  -1129.65810530     A.U. after   16 cycles
 Normal termination of Gaussian 16 at Sat Dec 12 11:49:22 2020.

 ----------------------------------------------------------------------
 # B3LYP/6-311++G(d,p) empiricaldispersion=gd3bj scf=xqc pop=npa geom=c
 heck
 ----------------------------------------------------------------------

 ------------------------------------
 CID_79460377_JID_9143_Energie_kation
 ------------------------------------
 Structure from the checkpoint file:  "JID_9143.chk"
 Charge =  1 Multiplicity = 2

 SCF Done:  E(UB3LYP) =  -1129.38736295     A.U. after   30 cycles
 Normal termination of Gaussian 16 at Sat Dec 12 12:13:08 2020.
 Gaussian 16:  ES64L-G16RevA.03 25-Dec-2016

 ----------------------------------------------------------------------
 # B3LYP/6-311++G(d,p) empiricaldispersion=gd3bj scf=xqc pop=npa geom=c
 heck
 ----------------------------------------------------------------------

 -----------------------------------
 CID_79460377_JID_9143_Energie_anion
 -----------------------------------
 Structure from the checkpoint file:  "JID_9143.chk"
 Charge = -1 Multiplicity = 2

                         Standard orientation:
 ---------------------------------------------------------------------
 Center     Atomic      Atomic             Coordinates (Angstroms)
 Number     Number       Type             X           Y           Z
 ---------------------------------------------------------------------
      1          6           0        1.289899   -3.149716   -1.173301
      2          6           0        0.721370   -2.221237   -0.147687
      3          6           0        0.167935   -0.863762   -0.617398
      4          6           0       -1.151372   -0.566072    0.153531
      5          6           0       -0.835776   -0.648701    1.644529
      6          6           0        0.040694   -1.560532    2.100102
      7          6           0        0.709182   -2.470034    1.175114
      8          6           0       -1.846184    0.790613   -0.205253
      9          6           0       -2.767279    0.776948   -1.467938
     10          7           0       -3.968968    0.679144   -0.611120
     11          6           0       -3.177784    0.996394    0.598266
     12          6           0       -0.949989    2.043335   -0.238667
     13          6           0        0.214380    2.117077    0.757638
     14          6           0        1.360994    1.300721    0.238328
     15          6           0        1.330146    0.109625   -0.438688
     16          7           0        2.553049   -0.297501   -0.956288
     17          6           0        3.498331    0.545662   -0.680988
     18         16           0        2.989679    1.937541    0.239581
     19          6           0       -2.135135   -1.736345   -0.163698
     20          1           0        0.506695   -3.472564   -1.874924
     21          1           0        2.063926   -2.641205   -1.757791
     22          1           0        1.721456   -4.043545   -0.710884
     23          1           0       -0.065285   -0.925886   -1.688766
     24          1           0       -1.383642   -0.016862    2.337215
     25          1           0        0.222851   -1.668040    3.166576
     26          1           0        1.165063   -3.376701    1.566823
     27          1           0       -2.683385    1.716910   -2.032380
     28          1           0       -2.651847   -0.051748   -2.174903
     29          1           0       -4.702528    1.348576   -0.829747
     30          1           0       -3.368870    0.308685    1.430025
     31          1           0       -3.287514    2.023516    0.973612
     32          1           0       -0.519665    2.137561   -1.243485
     33          1           0       -1.599253    2.917806   -0.108568
     34          1           0        0.531000    3.161327    0.855602
     35          1           0       -0.089009    1.791265    1.758183
     36          1           0        4.531667    0.420808   -0.982667
     37          1           0       -1.778405   -2.663301    0.284649
     38          1           0       -3.137169   -1.525524    0.210708
     39          1           0       -2.216004   -1.897069   -1.244048
 ---------------------------------------------------------------------

 SCF Done:  E(UB3LYP) =  -1129.64843890     A.U. after   33 cycles
 SCF Done:  E(UB3LYP) =  -1129.64843890     a.u. after    1 cycles

 The electronic state is 2-A.
 Alpha  occ. eigenvalues --  -88.76530 -14.19968 -14.18666 -10.11480 -10.08986
 Alpha  occ. eigenvalues --  -10.08607 -10.08345 -10.08199 -10.08126 -10.07932
 Alpha  occ. eigenvalues --  -10.07449 -10.07233 -10.06192 -10.05601 -10.05471
 Alpha  occ. eigenvalues --  -10.04719 -10.04301 -10.04175 -10.04054  -7.85192
 Alpha  occ. eigenvalues --   -5.81452  -5.81118  -5.80821  -0.84978  -0.82227
 Alpha  occ. eigenvalues --   -0.74562  -0.71142  -0.67519  -0.66461  -0.64257
 Alpha  occ. eigenvalues --   -0.63317  -0.58905  -0.57467  -0.56563  -0.56004
 Alpha  occ. eigenvalues --   -0.51778  -0.49542  -0.47611  -0.45742  -0.43228
 Alpha  occ. eigenvalues --   -0.41789  -0.39603  -0.38813  -0.37638  -0.36629
 Alpha  occ. eigenvalues --   -0.34895  -0.34226  -0.33083  -0.32187  -0.31617
 Alpha  occ. eigenvalues --   -0.31160  -0.30203  -0.29650  -0.28918  -0.28440
 Alpha  occ. eigenvalues --   -0.28097  -0.27152  -0.26896  -0.26137  -0.25800
 Alpha  occ. eigenvalues --   -0.25466  -0.24318  -0.23248  -0.21615  -0.21456
 Alpha  occ. eigenvalues --   -0.19420  -0.18608  -0.18095  -0.16763  -0.16238
 Alpha  occ. eigenvalues --   -0.12667  -0.11967  -0.09724   0.04668
 Alpha virt. eigenvalues --    0.06318   0.07594   0.07796   0.08187   0.08271
 Alpha virt. eigenvalues --    0.08812   0.09402   0.09579   0.10283   0.10856
 Alpha virt. eigenvalues --    0.11325   0.11683   0.11944   0.12301   0.13002

  Beta  occ. eigenvalues --  -88.76510 -14.19955 -14.18642 -10.11371 -10.08990
  Beta  occ. eigenvalues --  -10.08478 -10.08335 -10.08181 -10.08132 -10.07926
  Beta  occ. eigenvalues --  -10.07453 -10.07232 -10.06170 -10.05489 -10.05443
  Beta  occ. eigenvalues --  -10.04711 -10.04155 -10.04116 -10.04012  -7.85174
  Beta  occ. eigenvalues --   -5.81438  -5.81109  -5.80757  -0.84884  -0.82194
  Beta  occ. eigenvalues --   -0.74412  -0.71003  -0.67396  -0.66296  -0.64166
  Beta  occ. eigenvalues --   -0.63183  -0.58853  -0.57394  -0.56475  -0.55860
  Beta  occ. eigenvalues --   -0.51711  -0.49481  -0.47430  -0.45542  -0.43105
  Beta  occ. eigenvalues --   -0.41692  -0.39522  -0.38754  -0.37537  -0.36521
  Beta  occ. eigenvalues --   -0.34790  -0.34151  -0.32995  -0.32098  -0.31554
  Beta  occ. eigenvalues --   -0.31042  -0.30090  -0.29566  -0.28852  -0.28264
  Beta  occ. eigenvalues --   -0.28034  -0.27013  -0.26825  -0.26071  -0.25746
  Beta  occ. eigenvalues --   -0.25395  -0.24224  -0.23157  -0.21560  -0.21335
  Beta  occ. eigenvalues --   -0.19355  -0.18372  -0.17807  -0.16444  -0.16193
  Beta  occ. eigenvalues --   -0.12385  -0.11709  -0.08993
  Beta virt. eigenvalues --    0.07283   0.07702   0.07940   0.08250   0.08347
  Beta virt. eigenvalues --    0.08715   0.09361   0.09652   0.09697   0.10439
  Beta virt. eigenvalues --    0.11034   0.11355   0.11811   0.12099   0.12362

 Mulliken charges and spin densities:
               1          2
     1  C   -0.367804  -0.058527
     2  C    0.821051   0.046792
     3  C   -0.653894  -0.007889
     4  C    1.039131   0.191888
     5  C   -0.530406   0.006569
     6  C   -0.779695   0.106876
     7  C   -0.728630   0.186471
     8  C   -1.348384   1.178193
     9  C    0.481409  -0.916900
    10  N   -0.243159   0.114434
    11  C    1.199971  -1.551634
    12  C    0.530175  -0.709115
    13  C    0.197211   0.354822
    14  C    0.878836  -0.260772
    15  C   -1.375451  -0.239682
    16  N    0.142001   0.013520
    17  C    0.083094   0.088285
    18  S   -0.574464  -0.037355
    19  C   -0.520935  -0.190569
    20  H    0.133082   0.000747
    21  H    0.166678   0.011002
    22  H    0.108592   0.013632
    23  H    0.235585   0.030068
    24  H    0.074022   0.046899
    25  H    0.105073   0.020772
    26  H    0.105529   0.012517
    27  H   -0.451316   0.598049
    28  H    0.228938  -0.052999
    29  H   -0.149282   0.406804
    30  H    0.296471  -0.085058
    31  H   -0.506295   0.646096
    32  H    0.221701  -0.055260
    33  H   -0.513358   0.709077
    34  H   -0.238479   0.443545
    35  H    0.265657  -0.091971
    36  H    0.229169  -0.004087
    37  H    0.215002  -0.022635
    38  H    0.120021   0.030920
    39  H    0.103150   0.026476
 Sum of Mulliken charges =  -1.00000   1.00000

 Dipole moment (field-independent basis, Debye):
    X=              5.2929    Y=             -4.0063    Z=              0.4466  Tot=              6.6531
 Quadrupole moment (field-independent basis, Debye-Ang):
   XX=           -185.3189   YY=           -170.9772   ZZ=           -143.2076
   XY=             16.5944   XZ=             -4.0704   YZ=              3.2100

 Summary of Natural Population Analysis:

                                       Natural Population
                Natural  -----------------------------------------------
    Atom  No    Charge         Core      Valence    Rydberg      Total
 -----------------------------------------------------------------------
      C    1   -0.29768      0.99961     2.29333    0.00474     3.29768
      C    2    0.04114      0.99950     1.94601    0.01334     2.95886
      C    3   -0.12384      0.99951     2.11096    0.01338     3.12384
      C    4   -0.04265      0.99953     2.03056    0.01256     3.04265
      C    5   -0.05651      0.99951     2.04528    0.01172     3.05651
      C    6   -0.11496      0.99953     2.10599    0.00944     3.11496
      C    7   -0.11975      0.99939     2.11065    0.00971     3.11975
      C    8   -0.03514      0.99952     2.01842    0.01719     3.03514
      C    9   -0.07711      0.99960     2.06640    0.01111     3.07711
      N   10   -0.34767      0.99976     2.83470    0.01321     3.84767
      C   11   -0.07985      0.99960     2.06900    0.01125     3.07985
      C   12   -0.18040      0.99957     2.17026    0.01056     3.18040
      C   13   -0.20815      0.99957     2.19819    0.01039     3.20815
      C   14   -0.07823      0.99940     2.06667    0.01217     3.07823
      C   15    0.06548      0.99939     1.91998    0.01514     2.93452
      N   16   -0.24277      0.99966     2.73013    0.01298     3.74277
      C   17   -0.04126      0.99966     2.02640    0.01521     3.04126
      S   18    0.18192      4.99943     2.79952    0.01912     7.81808
      C   19   -0.28317      0.99964     2.27720    0.00633     3.28317
      H   20    0.09657      0.00000     0.40232    0.00111     0.40343
      H   21    0.11456      0.00000     0.38407    0.00138     0.38544
      H   22    0.09598      0.00000     0.40318    0.00084     0.40402
      H   23    0.10690      0.00000     0.39150    0.00160     0.39310
      H   24    0.09448      0.00000     0.40398    0.00154     0.40552
      H   25    0.09332      0.00000     0.40517    0.00151     0.40668
      H   26    0.09318      0.00000     0.40601    0.00081     0.40682
      H   27    0.08791      0.00000     0.41048    0.00162     0.41209
      H   28    0.08723      0.00000     0.41148    0.00130     0.41277
      H   29    0.17538      0.00000     0.32065    0.00397     0.32462
      H   30    0.08828      0.00000     0.41029    0.00143     0.41172
      H   31    0.08975      0.00000     0.40801    0.00224     0.41025
      H   32    0.09842      0.00000     0.39997    0.00161     0.40158
      H   33    0.10249      0.00000     0.39574    0.00177     0.39751
      H   34    0.10446      0.00000     0.39445    0.00109     0.39554
      H   35    0.11046      0.00000     0.38815    0.00139     0.38954
      H   36    0.09195      0.00000     0.40696    0.00108     0.40805
      H   37    0.10693      0.00000     0.39228    0.00079     0.39307
      H   38    0.10873      0.00000     0.39025    0.00102     0.39127
      H   39    0.09362      0.00000     0.40555    0.00083     0.40638
 =======================================================================
   * Total *    0.00001     22.99137    49.75013    0.25848    72.99999

 Normal termination of Gaussian 16 at Sat Dec 12 12:39:59 2020.
