 Gaussian 16, Revision A.03,

 -----------------------------------------------------------
 # opt freq B3LYP/6-31G(d) empiricaldispersion=gd3bj scf=xqc
 -----------------------------------------------------------

 ------------------------------
 CID_10822028_JID_5516_neutraal
 ------------------------------
 Symbolic Z-matrix:
 Charge =  0 Multiplicity = 1

 SCF Done:  E(RB3LYP) =  -635.644728215     A.U. after   14 cycles
 SCF Done:  E(RB3LYP) =  -635.648021411     A.U. after   12 cycles
 SCF Done:  E(RB3LYP) =  -635.648448180     A.U. after   11 cycles
 SCF Done:  E(RB3LYP) =  -635.648559106     A.U. after   11 cycles
 SCF Done:  E(RB3LYP) =  -635.648589155     A.U. after   10 cycles
 SCF Done:  E(RB3LYP) =  -635.648602179     A.U. after   10 cycles
 SCF Done:  E(RB3LYP) =  -635.648604561     A.U. after    9 cycles
 SCF Done:  E(RB3LYP) =  -635.648605693     A.U. after    8 cycles
 SCF Done:  E(RB3LYP) =  -635.648605959     A.U. after    7 cycles
 SCF Done:  E(RB3LYP) =  -635.648606077     A.U. after    7 cycles
 SCF Done:  E(RB3LYP) =  -635.648606140     A.U. after    7 cycles
 Optimization completed.
    -- Stationary point found.
 Normal termination of Gaussian 16 at Thu Dec 10 16:25:07 2020.

 --------------------------------------------------------------------
 #N Geom=AllCheck Guess=TCheck SCRF=Check GenChk RB3LYP/6-31G(d) Freq
 --------------------------------------------------------------------

 Structure from the checkpoint file:  "JID_5516.chk"
 ------------------------------
 CID_10822028_JID_5516_neutraal
 ------------------------------
 Charge =  0 Multiplicity = 1

 SCF Done:  E(RB3LYP) =  -635.648606140     A.U. after    1 cycles

  Exact polarizability: 174.306  -2.533 125.079   1.491 -17.083 113.627
 Approx polarizability: 247.115  -4.666 182.809   8.271 -39.141 187.153

                      1                      2                      3
                      A                      A                      A
 Frequencies --     33.0855                59.7466                80.3603
 Red. masses --      3.5849                 3.3649                 4.5413
 Frc consts  --      0.0023                 0.0071                 0.0173
 IR Inten    --      0.0143                 0.0553                 0.7616

                      4                      5                      6
                      A                      A                      A
 Frequencies --    102.4877               170.4551               193.6925
 Red. masses --      3.1626                 1.7251                 1.5399
 Frc consts  --      0.0196                 0.0295                 0.0340
 IR Inten    --      0.2187                 2.6810                 2.8132

                      7                      8                      9
                      A                      A                      A
 Frequencies --    214.1322               226.1979               262.2417
 Red. masses --      3.1894                 2.9881                 2.2655
 Frc consts  --      0.0862                 0.0901                 0.0918
 IR Inten    --      2.6243                 2.1598                 0.9110

                     10                     11                     12
                      A                      A                      A
 Frequencies --    269.5254               315.0650               339.9580
 Red. masses --      2.9937                 3.0566                 5.2433
 Frc consts  --      0.1281                 0.1788                 0.3570
 IR Inten    --      2.3889                 0.7503                 1.2125

                     13                     14                     15
                      A                      A                      A
 Frequencies --    360.0205               417.4077               438.4056
 Red. masses --      3.4029                 3.0290                 3.6984
 Frc consts  --      0.2599                 0.3109                 0.4188
 IR Inten    --      0.2417                 0.0714                 4.4082

                     16                     17                     18
                      A                      A                      A
 Frequencies --    497.4312               507.3871               550.5118
 Red. masses --      2.5530                 3.1661                 3.5322
 Frc consts  --      0.3722                 0.4802                 0.6307
 IR Inten    --      2.0833                 0.2645                 0.7090

                     19                     20                     21
                      A                      A                      A
 Frequencies --    602.6696               637.2597               662.2129
 Red. masses --      3.6931                 6.3385                 3.1044
 Frc consts  --      0.7903                 1.5166                 0.8021
 IR Inten    --      8.0956                 0.2740                 6.7766

                     22                     23                     24
                      A                      A                      A
 Frequencies --    701.8353               719.3512               732.6608
 Red. masses --      2.4512                 1.8874                 2.4228
 Frc consts  --      0.7114                 0.5754                 0.7663
 IR Inten    --      1.7842                20.5956                29.0804

                     25                     26                     27
                      A                      A                      A
 Frequencies --    777.8111               813.4706               839.8833
 Red. masses --      2.3172                 2.1944                 2.7982
 Frc consts  --      0.8260                 0.8556                 1.1630
 IR Inten    --     14.2313                24.6035                 5.0206

                     28                     29                     30
                      A                      A                      A
 Frequencies --    859.0699               862.4647               912.1821
 Red. masses --      2.8428                 1.2559                 2.6337
 Frc consts  --      1.2361                 0.5504                 1.2911
 IR Inten    --      6.3080                 0.0645                 1.2485

                     31                     32                     33
                      A                      A                      A
 Frequencies --    925.0968               947.1788               969.7533
 Red. masses --      1.4982                 1.8912                 1.3406
 Frc consts  --      0.7554                 0.9996                 0.7428
 IR Inten    --      0.3321                 4.6270                 0.0989

                     34                     35                     36
                      A                      A                      A
 Frequencies --    994.1536              1012.3032              1022.5767
 Red. masses --      1.2486                 2.2628                 5.6777
 Frc consts  --      0.7271                 1.3662                 3.4980
 IR Inten    --      0.1565                 6.3536                 0.4647

                     37                     38                     39
                      A                      A                      A
 Frequencies --   1026.9117              1060.3569              1064.7726
 Red. masses --      2.8541                 2.6658                 2.3223
 Frc consts  --      1.7733                 1.7660                 1.5512
 IR Inten    --      6.0730                10.2601                11.7527

                     40                     41                     42
                      A                      A                      A
 Frequencies --   1086.3160              1106.6292              1120.7843
 Red. masses --      2.1826                 1.8456                 1.6721
 Frc consts  --      1.5175                 1.3317                 1.2375
 IR Inten    --      2.7706                 2.3854                 2.0717

                     43                     44                     45
                      A                      A                      A
 Frequencies --   1143.0522              1186.0174              1191.2744
 Red. masses --      2.0187                 1.2951                 1.5895
 Frc consts  --      1.5540                 1.0733                 1.3291
 IR Inten    --      3.1670                 1.2283                14.0134

                     46                     47                     48
                      A                      A                      A
 Frequencies --   1193.0560              1211.0904              1214.8031
 Red. masses --      1.0980                 1.6420                 1.1878
 Frc consts  --      0.9209                 1.4189                 1.0327
 IR Inten    --      0.1169                 0.8230                29.0637

                     49                     50                     51
                      A                      A                      A
 Frequencies --   1224.5010              1229.5589              1274.1925
 Red. masses --      1.6856                 2.3635                 1.3281
 Frc consts  --      1.4891                 2.1053                 1.2705
 IR Inten    --     11.7245               192.9677                 3.3834

                     52                     53                     54
                      A                      A                      A
 Frequencies --   1297.4558              1314.0718              1325.1321
 Red. masses --      1.9853                 1.2543                 1.6247
 Frc consts  --      1.9691                 1.2761                 1.6809
 IR Inten    --    101.8274                 1.7047                 9.2648

                     55                     56                     57
                      A                      A                      A
 Frequencies --   1346.4525              1367.8190              1388.5594
 Red. masses --      1.5960                 2.1257                 1.3435
 Frc consts  --      1.7048                 2.3432                 1.5262
 IR Inten    --      1.4500                 0.9857                17.9437

                     58                     59                     60
                      A                      A                      A
 Frequencies --   1390.9709              1403.4535              1413.8249
 Red. masses --      1.4072                 1.5865                 1.4762
 Frc consts  --      1.6041                 1.8412                 1.7386
 IR Inten    --     39.6324                29.6433                11.8555

                     61                     62                     63
                      A                      A                      A
 Frequencies --   1423.9966              1492.1419              1497.7370
 Red. masses --      1.3953                 1.2118                 2.1671
 Frc consts  --      1.6670                 1.5897                 2.8641
 IR Inten    --      2.6125                 4.6921                10.0904

                     64                     65                     66
                      A                      A                      A
 Frequencies --   1504.0817              1505.0373              1514.8854
 Red. masses --      1.1096                 1.0536                 1.0753
 Frc consts  --      1.4789                 1.4061                 1.4539
 IR Inten    --     10.0102                 5.8526                 0.6057

                     67                     68                     69
                      A                      A                      A
 Frequencies --   1526.3939              1527.5091              1535.5530
 Red. masses --      1.0502                 1.0828                 1.1029
 Frc consts  --      1.4416                 1.4885                 1.5322
 IR Inten    --     14.5192                10.7994                 6.1178

                     70                     71                     72
                      A                      A                      A
 Frequencies --   1546.7195              1645.0732              1666.8606
 Red. masses --      2.1791                 5.6248                 5.5776
 Frc consts  --      3.0715                 8.9686                 9.1305
 IR Inten    --     12.7884                 2.3664                 8.0479

                     73                     74                     75
                      A                      A                      A
 Frequencies --   1758.9324              3005.1735              3037.4135
 Red. masses --      9.1420                 1.0830                 1.0664
 Frc consts  --     16.6644                 5.7626                 5.7967
 IR Inten    --    274.4511                27.1095                19.0761

                     76                     77                     78
                      A                      A                      A
 Frequencies --   3041.9181              3051.5666              3060.1809
 Red. masses --      1.0683                 1.0631                 1.0637
 Frc consts  --      5.8241                 5.8326                 5.8692
 IR Inten    --     10.6336                55.5714                35.1283

                     79                     80                     81
                      A                      A                      A
 Frequencies --   3064.4115              3075.5798              3090.2077
 Red. masses --      1.0294                 1.1000                 1.0998
 Frc consts  --      5.6953                 6.1305                 6.1881
 IR Inten    --     36.2257                15.9663                37.3429

                     82                     83                     84
                      A                      A                      A
 Frequencies --   3104.8984              3108.0900              3133.6879
 Red. masses --      1.0984                 1.0961                 1.1064
 Frc consts  --      6.2388                 6.2384                 6.4011
 IR Inten    --     51.7017                19.9525                26.9972

                     85                     86                     87
                      A                      A                      A
 Frequencies --   3165.1973              3175.0337              3183.5772
 Red. masses --      1.1069                 1.0853                 1.0872
 Frc consts  --      6.5339                 6.4463                 6.4925
 IR Inten    --     32.3335                 6.8331                 1.0512

                     88                     89                     90
                      A                      A                      A
 Frequencies --   3193.6302              3206.9456              3223.9267
 Red. masses --      1.0923                 1.0965                 1.0918
 Frc consts  --      6.5636                 6.6442                 6.6859
 IR Inten    --     35.4771                34.5367                 6.3384

 - Thermochemistry -
 -------------------
 Temperature   298.150 Kelvin.  Pressure   1.00000 Atm.
 Atom     1 has atomic number  6 and mass  12.00000

 Molecular mass:   203.13101 amu.
 Principal axes and moments of inertia in atomic units:
                           1         2         3
     Eigenvalues --  1819.656324229.099844957.83449
           X            0.99996  -0.00832  -0.00147
           Y            0.00831   0.99996  -0.00176
           Z            0.00148   0.00175   1.00000
 This molecule is an asymmetric top.
 Rotational symmetry number  1.
 Warning -- assumption of classical behavior for rotation
           may cause significant error
 Rotational temperatures (Kelvin)      0.04760     0.02048     0.01747
 Rotational constants (GHZ):           0.99180     0.42674     0.36402
 Zero-point vibrational energy     733774.2 (Joules/Mol)
                                  175.37624 (Kcal/Mol)
 Warning -- explicit consideration of  19 degrees of freedom as
           vibrations may cause significant error
 Vibrational temperatures:     47.60    85.96   115.62   147.46   245.25
          (Kelvin)            278.68   308.09   325.45   377.31   387.79
                              453.31   489.12   517.99   600.56   630.77
                              715.69   730.02   792.06   867.11   916.87
                              952.78  1009.78  1034.99  1054.14  1119.10
                             1170.40  1208.40  1236.01  1240.89  1312.43
                             1331.01  1362.78  1395.26  1430.37  1456.48
                             1471.26  1477.50  1525.62  1531.97  1562.97
                             1592.19  1612.56  1644.60  1706.41  1713.98
                             1716.54  1742.49  1747.83  1761.78  1769.06
                             1833.28  1866.75  1890.66  1906.57  1937.24
                             1967.99  1997.83  2001.30  2019.26  2034.18
                             2048.81  2146.86  2154.91  2164.04  2165.41
                             2179.58  2196.14  2197.74  2209.32  2225.38
                             2366.89  2398.24  2530.71  4323.77  4370.16
                             4376.64  4390.52  4402.92  4409.00  4425.07
                             4446.12  4467.26  4471.85  4508.68  4554.01
                             4568.17  4580.46  4594.92  4614.08  4638.51

 Zero-point correction=                           0.279480 (Hartree/Particle)
 Thermal correction to Energy=                    0.292832
 Thermal correction to Enthalpy=                  0.293776
 Thermal correction to Gibbs Free Energy=         0.239092
 Sum of electronic and zero-point Energies=           -635.369126
 Sum of electronic and thermal Energies=              -635.355774
 Sum of electronic and thermal Enthalpies=            -635.354830
 Sum of electronic and thermal Free Energies=         -635.409514

                     E (Thermal)             CV                S
                      KCal/Mol        Cal/Mol-Kelvin    Cal/Mol-Kelvin
 Total                  183.755             52.638            115.093
 Electronic               0.000              0.000              0.000
 Translational            0.889              2.981             41.830
 Rotational               0.889              2.981             32.012
 Vibrational            181.977             46.677             41.251
 Vibration     1          0.594              1.983              5.635
 Vibration     2          0.597              1.973              4.466
 Vibration     3          0.600              1.962              3.882
 Vibration     4          0.605              1.947              3.406
 Vibration     5          0.626              1.879              2.430
 Vibration     6          0.635              1.849              2.192
 Vibration     7          0.644              1.819              2.008
 Vibration     8          0.650              1.801              1.909
 Vibration     9          0.670              1.742              1.647
 Vibration    10          0.674              1.729              1.599
 Vibration    11          0.702              1.645              1.336
 Vibration    12          0.720              1.596              1.212
 Vibration    13          0.735              1.555              1.122
 Vibration    14          0.780              1.432              0.901
 Vibration    15          0.799              1.386              0.832
 Vibration    16          0.853              1.256              0.665
 Vibration    17          0.863              1.234              0.640
 Vibration    18          0.906              1.139              0.543
 Vibration    19          0.961              1.026              0.445

 Optimization completed.
    -- Stationary point found.
 Normal termination of Gaussian 16 at Thu Dec 10 16:36:17 2020.

 ----------------------------------------------------------------------
 # B3LYP/6-311++G(d,p) empiricaldispersion=gd3bj scf=xqc pop=npa geom=c
 heck
 ----------------------------------------------------------------------

 --------------------------------------
 CID_10822028_JID_5516_Energie_neutraal
 --------------------------------------
 Structure from the checkpoint file:  "JID_5516.chk"
 Charge =  0 Multiplicity = 1

 SCF Done:  E(RB3LYP) =  -635.817825930     A.U. after   15 cycles
 Normal termination of Gaussian 16 at Thu Dec 10 16:41:20 2020.

 ----------------------------------------------------------------------
 # B3LYP/6-311++G(d,p) empiricaldispersion=gd3bj scf=xqc pop=npa geom=c
 heck
 ----------------------------------------------------------------------

 ------------------------------------
 CID_10822028_JID_5516_Energie_kation
 ------------------------------------
 Structure from the checkpoint file:  "JID_5516.chk"
 Charge =  1 Multiplicity = 2

 SCF Done:  E(UB3LYP) =  -635.517111329     A.U. after   28 cycles
 Normal termination of Gaussian 16 at Thu Dec 10 16:52:53 2020.
 Gaussian 16:  ES64L-G16RevA.03 25-Dec-2016

 ----------------------------------------------------------------------
 # B3LYP/6-311++G(d,p) empiricaldispersion=gd3bj scf=xqc pop=npa geom=c
 heck
 ----------------------------------------------------------------------

 -----------------------------------
 CID_10822028_JID_5516_Energie_anion
 -----------------------------------
 Structure from the checkpoint file:  "JID_5516.chk"
 Charge = -1 Multiplicity = 2

                         Standard orientation:
 ---------------------------------------------------------------------
 Center     Atomic      Atomic             Coordinates (Angstroms)
 Number     Number       Type             X           Y           Z
 ---------------------------------------------------------------------
      1          6           0        3.220525   -2.160809   -0.526036
      2          8           0        3.147463   -0.977411    0.270818
      3          6           0        2.078388   -0.163990    0.048825
      4          7           0        1.203497   -0.508791   -0.804748
      5          6           0        0.052124    0.297223   -1.185633
      6          6           0        0.229322    1.828692   -1.048426
      7          6           0        0.083709    2.393432    0.369766
      8          6           0        0.845081    1.594146    1.437766
      9          6           0        2.194136    1.049591    0.955825
     10          6           0       -1.236721   -0.196306   -0.530589
     11          6           0       -1.239014   -1.163927    0.477448
     12          6           0       -2.435381   -1.579931    1.065725
     13          6           0       -3.650066   -1.036528    0.651330
     14          6           0       -3.660469   -0.077790   -0.364214
     15          6           0       -2.465142    0.333208   -0.949923
     16          1           0        4.144853   -2.656974   -0.224606
     17          1           0        3.242448   -1.912284   -1.591234
     18          1           0        2.357438   -2.807874   -0.343553
     19          1           0       -0.066974    0.108657   -2.262497
     20          1           0        1.217673    2.074727   -1.456539
     21          1           0       -0.495902    2.325218   -1.704039
     22          1           0        0.439338    3.432196    0.361852
     23          1           0       -0.976935    2.428606    0.642878
     24          1           0        0.229809    0.753642    1.775648
     25          1           0        1.011388    2.227971    2.316767
     26          1           0        2.810420    0.744542    1.806631
     27          1           0        2.764267    1.830062    0.432894
     28          1           0       -0.297343   -1.599952    0.791180
     29          1           0       -2.414693   -2.333867    1.848228
     30          1           0       -4.580919   -1.359017    1.109315
     31          1           0       -4.601187    0.348392   -0.702458
     32          1           0       -2.486809    1.074709   -1.744957
 ---------------------------------------------------------------------

 SCF Done:  E(UB3LYP) =  -635.802714857     A.U. after   33 cycles
 SCF Done:  E(UB3LYP) =  -635.802714857     a.u. after    1 cycles

 The electronic state is 2-A.
 Alpha  occ. eigenvalues --  -19.05874 -14.18957 -10.16513 -10.12046 -10.10731
 Alpha  occ. eigenvalues --  -10.08252 -10.08043 -10.07661 -10.07653 -10.07484
 Alpha  occ. eigenvalues --  -10.07306 -10.07135 -10.06937 -10.06575 -10.06363
 Alpha  occ. eigenvalues --   -0.98005  -0.81574  -0.75749  -0.70484  -0.68895
 Alpha  occ. eigenvalues --   -0.64790  -0.64548  -0.61493  -0.58440  -0.54766
 Alpha  occ. eigenvalues --   -0.50817  -0.49727  -0.46643  -0.44994  -0.42107
 Alpha  occ. eigenvalues --   -0.40441  -0.38395  -0.37907  -0.36687  -0.35880
 Alpha  occ. eigenvalues --   -0.35051  -0.33483  -0.32782  -0.32604  -0.32152
 Alpha  occ. eigenvalues --   -0.30030  -0.29595  -0.28009  -0.26667  -0.25899
 Alpha  occ. eigenvalues --   -0.25413  -0.24995  -0.24391  -0.23329  -0.22351
 Alpha  occ. eigenvalues --   -0.21949  -0.16311  -0.15939  -0.15435  -0.14160
 Alpha  occ. eigenvalues --    0.04383
 Alpha virt. eigenvalues --    0.06301   0.06625   0.07050   0.07799   0.08275
 Alpha virt. eigenvalues --    0.08503   0.08850   0.09316   0.09562   0.09953
 Alpha virt. eigenvalues --    0.11262   0.11368   0.11545   0.12071   0.12150

  Beta  occ. eigenvalues --  -19.05869 -14.18952 -10.16513 -10.12024 -10.10726
  Beta  occ. eigenvalues --  -10.08241 -10.08024 -10.07650 -10.07643 -10.07463
  Beta  occ. eigenvalues --  -10.07282 -10.07128 -10.06924 -10.06550 -10.06346
  Beta  occ. eigenvalues --   -0.97996  -0.81557  -0.75717  -0.70452  -0.68861
  Beta  occ. eigenvalues --   -0.64754  -0.64509  -0.61454  -0.58401  -0.54721
  Beta  occ. eigenvalues --   -0.50781  -0.49680  -0.46592  -0.44963  -0.42063
  Beta  occ. eigenvalues --   -0.40399  -0.38365  -0.37879  -0.36651  -0.35852
  Beta  occ. eigenvalues --   -0.35009  -0.33454  -0.32741  -0.32578  -0.32118
  Beta  occ. eigenvalues --   -0.29996  -0.29558  -0.27979  -0.26620  -0.25867
  Beta  occ. eigenvalues --   -0.25389  -0.24964  -0.24363  -0.23294  -0.22314
  Beta  occ. eigenvalues --   -0.21919  -0.16286  -0.15897  -0.15400  -0.14110
  Beta virt. eigenvalues --    0.06371   0.07002   0.07386   0.07638   0.08150
  Beta virt. eigenvalues --    0.08470   0.08989   0.09242   0.09641   0.09970
  Beta virt. eigenvalues --    0.10395   0.11374   0.11732   0.11792   0.12278

 Mulliken charges and spin densities:
               1          2
     1  C    0.413027  -0.623358
     2  O   -0.116631   0.053599
     3  C   -0.264352  -0.031109
     4  N   -0.160281   0.115598
     5  C    1.311989  -1.354753
     6  C    0.311412  -0.613486
     7  C    0.614471  -1.190921
     8  C   -0.402903   0.295283
     9  C    0.252900  -0.690896
    10  C   -0.215187   0.894376
    11  C   -0.689614   0.546989
    12  C   -0.814419   0.382279
    13  C    0.804424  -1.151546
    14  C    0.894222  -1.202747
    15  C   -0.731639   0.482572
    16  H   -0.166436   0.311150
    17  H   -0.048433   0.217268
    18  H   -0.057505   0.204999
    19  H   -0.032387   0.282732
    20  H   -0.115774   0.275906
    21  H   -0.368016   0.543186
    22  H   -0.260012   0.427214
    23  H    0.212232  -0.086127
    24  H    0.219759  -0.079899
    25  H   -0.363805   0.562566
    26  H   -0.111013   0.304445
    27  H   -0.049354   0.246345
    28  H    0.208619  -0.033105
    29  H   -0.296225   0.467821
    30  H   -0.174048   0.316043
    31  H   -0.533228   0.713593
    32  H   -0.271792   0.413983
 Sum of Mulliken charges =  -1.00000   1.00000

 Dipole moment (field-independent basis, Debye):
    X=              1.3949    Y=             -2.2109    Z=              1.0270  Tot=              2.8086
 Quadrupole moment (field-independent basis, Debye-Ang):
   XX=           -160.3322   YY=           -139.9192   ZZ=           -128.5487
   XY=             -1.8708   XZ=             -3.6844   YZ=              1.3355

 Summary of Natural Population Analysis:

                                       Natural Population
                Natural  -----------------------------------------------
    Atom  No    Charge         Core      Valence    Rydberg      Total
 -----------------------------------------------------------------------
      C    1   -0.10124      0.99959     2.09356    0.00808     3.10124
      O    2   -0.28083      0.99986     3.27118    0.00979     4.28083
      C    3    0.30950      0.99949     1.67290    0.01811     2.69050
      N    4   -0.28327      0.99962     2.77260    0.01105     3.78327
      C    5   -0.02408      0.99953     2.00968    0.01487     3.02408
      C    6   -0.19485      0.99961     2.18629    0.00895     3.19485
      C    7   -0.19233      0.99962     2.18405    0.00865     3.19233
      C    8   -0.19286      0.99962     2.18474    0.00850     3.19286
      C    9   -0.22866      0.99958     2.21953    0.00955     3.22866
      C   10   -0.01005      0.99948     1.99888    0.01169     3.01005
      C   11   -0.10546      0.99950     2.09633    0.00963     3.10546
      C   12   -0.09891      0.99956     2.08984    0.00952     3.09891
      C   13   -0.10580      0.99956     2.09606    0.01018     3.10580
      C   14   -0.10033      0.99958     2.09145    0.00931     3.10033
      C   15   -0.09896      0.99951     2.08948    0.00997     3.09896
      H   16    0.08679      0.00000     0.41203    0.00118     0.41321
      H   17    0.09087      0.00000     0.40760    0.00153     0.40913
      H   18    0.09075      0.00000     0.40771    0.00154     0.40925
      H   19    0.10314      0.00000     0.39496    0.00190     0.39686
      H   20    0.09996      0.00000     0.39837    0.00168     0.40004
      H   21    0.10502      0.00000     0.39330    0.00168     0.39498
      H   22    0.09860      0.00000     0.40000    0.00140     0.40140
      H   23    0.10074      0.00000     0.39791    0.00135     0.39926
      H   24    0.10028      0.00000     0.39780    0.00192     0.39972
      H   25    0.10117      0.00000     0.39767    0.00116     0.39883
      H   26    0.11271      0.00000     0.38576    0.00152     0.38729
      H   27    0.10961      0.00000     0.38895    0.00144     0.39039
      H   28    0.10659      0.00000     0.39137    0.00204     0.39341
      H   29    0.09897      0.00000     0.40012    0.00091     0.40103
      H   30    0.09957      0.00000     0.39943    0.00100     0.40043
      H   31    0.10127      0.00000     0.39734    0.00139     0.39873
      H   32    0.10207      0.00000     0.39599    0.00193     0.39793
 =======================================================================
   * Total *    0.00000     14.99372    39.82287    0.18341    55.00000

 Normal termination of Gaussian 16 at Thu Dec 10 17:11:37 2020.
