 Gaussian 16, Revision A.03,

 -----------------------------------------------------------
 # opt freq B3LYP/6-31G(d) empiricaldispersion=gd3bj scf=xqc
 -----------------------------------------------------------

 ------------------------------
 CID_64275801_JID_7219_neutraal
 ------------------------------
 Symbolic Z-matrix:
 Charge =  0 Multiplicity = 1

 SCF Done:  E(RB3LYP) =  -1212.88903104     A.U. after   16 cycles
 SCF Done:  E(RB3LYP) =  -1212.90284320     A.U. after   13 cycles
 SCF Done:  E(RB3LYP) =  -1212.90567335     A.U. after   13 cycles
 SCF Done:  E(RB3LYP) =  -1212.90674022     A.U. after   13 cycles
 SCF Done:  E(RB3LYP) =  -1212.90756323     A.U. after   13 cycles
 SCF Done:  E(RB3LYP) =  -1212.90814684     A.U. after   12 cycles
 SCF Done:  E(RB3LYP) =  -1212.90849262     A.U. after   13 cycles
 SCF Done:  E(RB3LYP) =  -1212.90882793     A.U. after   13 cycles
 SCF Done:  E(RB3LYP) =  -1212.90904888     A.U. after   12 cycles
 SCF Done:  E(RB3LYP) =  -1212.90909965     A.U. after   12 cycles
 SCF Done:  E(RB3LYP) =  -1212.90919752     A.U. after   12 cycles
 SCF Done:  E(RB3LYP) =  -1212.90920434     A.U. after   11 cycles
 SCF Done:  E(RB3LYP) =  -1212.90920507     A.U. after    8 cycles
 SCF Done:  E(RB3LYP) =  -1212.90920520     A.U. after    8 cycles
 SCF Done:  E(RB3LYP) =  -1212.90920522     A.U. after    7 cycles
 Optimization completed.
    -- Stationary point found.
 Normal termination of Gaussian 16 at Fri Dec 11 12:06:12 2020.

 --------------------------------------------------------------------
 #N Geom=AllCheck Guess=TCheck SCRF=Check GenChk RB3LYP/6-31G(d) Freq
 --------------------------------------------------------------------

 Structure from the checkpoint file:  "JID_7219.chk"
 ------------------------------
 CID_64275801_JID_7219_neutraal
 ------------------------------
 Charge =  0 Multiplicity = 1

 SCF Done:  E(RB3LYP) =  -1212.90920522     A.U. after    1 cycles

  Exact polarizability: 180.416  -8.384 140.943  -7.648   1.758  85.462
 Approx polarizability: 245.063 -44.409 260.899 -16.684   9.149 141.409

                      1                      2                      3
                      A                      A                      A
 Frequencies --     21.1970                40.8699                56.7433
 Red. masses --      4.8965                 7.2214                 6.5797
 Frc consts  --      0.0013                 0.0071                 0.0125
 IR Inten    --      1.7792                 0.4693                 5.7585

                      4                      5                      6
                      A                      A                      A
 Frequencies --     81.4775                98.6734               138.3989
 Red. masses --      6.2010                 6.0310                 6.1966
 Frc consts  --      0.0243                 0.0346                 0.0699
 IR Inten    --      2.5783                 1.0696                 2.1569

                      7                      8                      9
                      A                      A                      A
 Frequencies --    168.7548               188.1616               248.6942
 Red. masses --      8.3314                 3.1269                 7.4064
 Frc consts  --      0.1398                 0.0652                 0.2699
 IR Inten    --      1.6081                10.7663                 4.6676

                     10                     11                     12
                      A                      A                      A
 Frequencies --    272.2859               293.9826               320.3724
 Red. masses --      3.7219                11.1744                 5.8178
 Frc consts  --      0.1626                 0.5690                 0.3518
 IR Inten    --      2.5815                 0.1873                 2.9998

                     13                     14                     15
                      A                      A                      A
 Frequencies --    357.2890               391.0853               407.0427
 Red. masses --      3.2190                 4.6956                 4.7411
 Frc consts  --      0.2421                 0.4231                 0.4628
 IR Inten    --      4.1647                 4.1128                 0.7960

                     16                     17                     18
                      A                      A                      A
 Frequencies --    435.4146               450.3567               471.5408
 Red. masses --      3.5897                 3.6395                 3.7022
 Frc consts  --      0.4010                 0.4349                 0.4850
 IR Inten    --     11.6422                13.6908                65.5247

                     19                     20                     21
                      A                      A                      A
 Frequencies --    485.8923               500.2195               526.0889
 Red. masses --      2.1714                 2.8593                 7.2225
 Frc consts  --      0.3020                 0.4215                 1.1778
 IR Inten    --     16.7834                 8.6433                60.1646

                     22                     23                     24
                      A                      A                      A
 Frequencies --    549.5410               553.1938               576.2050
 Red. masses --      5.6944                 2.9995                 1.8901
 Frc consts  --      1.0132                 0.5408                 0.3697
 IR Inten    --      3.3973                15.7292                66.3249

                     25                     26                     27
                      A                      A                      A
 Frequencies --    587.7571               634.7640               655.8341
 Red. masses --      5.5191                 2.1045                 3.4629
 Frc consts  --      1.1233                 0.4996                 0.8776
 IR Inten    --     81.9765                31.5337                65.5057

                     28                     29                     30
                      A                      A                      A
 Frequencies --    691.1801               744.8801               752.7119
 Red. masses --      4.0643                 2.9163                 3.2359
 Frc consts  --      1.1440                 0.9534                 1.0802
 IR Inten    --      7.7421                48.0904                95.2952

                     31                     32                     33
                      A                      A                      A
 Frequencies --    816.9178               840.7672               870.5582
 Red. masses --      3.6157                 2.0439                 6.0792
 Frc consts  --      1.4217                 0.8512                 2.7145
 IR Inten    --      7.6662                44.1958                 6.3341

                     34                     35                     36
                      A                      A                      A
 Frequencies --    921.9553               936.4848               956.5913
 Red. masses --      2.5942                 1.3433                 2.3882
 Frc consts  --      1.2992                 0.6941                 1.2876
 IR Inten    --     42.4178                 6.8573                37.2484

                     37                     38                     39
                      A                      A                      A
 Frequencies --    963.5900               982.6178              1032.8811
 Red. masses --      1.2402                 3.0230                 2.9714
 Frc consts  --      0.6785                 1.7197                 1.8677
 IR Inten    --      0.1291               139.2730                35.6282

                     40                     41                     42
                      A                      A                      A
 Frequencies --   1041.4766              1069.6534              1111.2060
 Red. masses --      2.2982                 4.1667                 2.0488
 Frc consts  --      1.4687                 2.8088                 1.4905
 IR Inten    --     50.8437                21.6881                17.4741

                     43                     44                     45
                      A                      A                      A
 Frequencies --   1124.7979              1141.3994              1155.4438
 Red. masses --      7.3296                 1.9290                 2.0593
 Frc consts  --      5.4636                 1.4806                 1.6198
 IR Inten    --     81.4626                17.0859                30.9286

                     46                     47                     48
                      A                      A                      A
 Frequencies --   1189.5904              1240.9995              1265.7896
 Red. masses --      4.7596                 1.6906                 1.1771
 Frc consts  --      3.9684                 1.5340                 1.1112
 IR Inten    --     25.3278                23.9153                 6.9966

                     49                     50                     51
                      A                      A                      A
 Frequencies --   1274.7265              1275.1802              1318.5047
 Red. masses --      1.3136                 1.3077                 9.8403
 Frc consts  --      1.2576                 1.2529                10.0791
 IR Inten    --     15.9420                 3.2100               125.5510

                     52                     53                     54
                      A                      A                      A
 Frequencies --   1341.1932              1351.8219              1388.8365
 Red. masses --      1.4991                 1.5030                 1.6499
 Frc consts  --      1.5888                 1.6182                 1.8751
 IR Inten    --     64.3464                35.2323                60.3199

                     55                     56                     57
                      A                      A                      A
 Frequencies --   1393.3739              1407.6903              1419.7401
 Red. masses --      2.2084                 1.3749                 1.5228
 Frc consts  --      2.5261                 1.6052                 1.8085
 IR Inten    --      5.8347                22.5403                29.6622

                     58                     59                     60
                      A                      A                      A
 Frequencies --   1435.1089              1480.5082              1499.7525
 Red. masses --      1.7350                 1.1170                 1.3364
 Frc consts  --      2.1054                 1.4426                 1.7710
 IR Inten    --      0.7539                21.1445                14.4135

                     61                     62                     63
                      A                      A                      A
 Frequencies --   1508.8390              1548.9577              1551.6739
 Red. masses --      1.4132                 3.5894                 1.1628
 Frc consts  --      1.8956                 5.0740                 1.6495
 IR Inten    --     17.7330               149.5633                 3.1713

                     64                     65                     66
                      A                      A                      A
 Frequencies --   1633.6004              1688.9815              1740.6761
 Red. masses --      3.0064                 5.9936                 9.7615
 Frc consts  --      4.7271                10.0737                17.4262
 IR Inten    --      7.0427                 5.4903               401.2398

                     67                     68                     69
                      A                      A                      A
 Frequencies --   1804.3277              3042.6008              3065.0050
 Red. masses --      8.6386                 1.0581                 1.0779
 Frc consts  --     16.5700                 5.7710                 5.9662
 IR Inten    --    350.6756                40.5430                 7.4700

                     70                     71                     72
                      A                      A                      A
 Frequencies --   3076.4706              3085.5263              3170.4268
 Red. masses --      1.0746                 1.0990                 1.0959
 Frc consts  --      5.9926                 6.1645                 6.4904
 IR Inten    --     11.8744                57.5815                 4.3064

                     73                     74                     75
                      A                      A                      A
 Frequencies --   3206.4756              3228.0990              3244.7585
 Red. masses --      1.0907                 1.0888                 1.0975
 Frc consts  --      6.6071                 6.6849                 6.8083
 IR Inten    --      7.8547                 2.8152                 3.0352

                     76                     77                     78
                      A                      A                      A
 Frequencies --   3247.3177              3595.5376              3643.5260
 Red. masses --      1.0939                 1.0762                 1.0790
 Frc consts  --      6.7961                 8.1970                 8.4394
 IR Inten    --      3.4780                22.1503               104.9691

 - Thermochemistry -
 -------------------
 Temperature   298.150 Kelvin.  Pressure   1.00000 Atm.
 Atom     1 has atomic number  6 and mass  12.00000

 Molecular mass:   257.04703 amu.
 Principal axes and moments of inertia in atomic units:
                           1         2         3
     Eigenvalues --  1874.110636250.792317150.89647
           X            0.99995   0.00993   0.00310
           Y           -0.00997   0.99986   0.01365
           Z           -0.00297  -0.01368   0.99990
 This molecule is an asymmetric top.
 Rotational symmetry number  1.
 Warning -- assumption of classical behavior for rotation
           may cause significant error
 Rotational temperatures (Kelvin)      0.04622     0.01386     0.01211
 Rotational constants (GHZ):           0.96299     0.28872     0.25238
 Zero-point vibrational energy     562439.6 (Joules/Mol)
                                  134.42630 (Kcal/Mol)
 Warning -- explicit consideration of  25 degrees of freedom as
           vibrations may cause significant error
 Vibrational temperatures:     30.50    58.80    81.64   117.23   141.97
          (Kelvin)            199.13   242.80   270.72   357.82   391.76
                              422.98   460.94   514.06   562.68   585.64
                              626.46   647.96   678.44   699.09   719.70
                              756.92   790.67   795.92   829.03   845.65
                              913.28   943.60   994.45  1071.72  1082.98
                             1175.36  1209.68  1252.54  1326.49  1347.39
                             1376.32  1386.39  1413.77  1486.09  1498.45
                             1538.99  1598.78  1618.33  1642.22  1662.43
                             1711.56  1785.52  1821.19  1834.05  1834.70
                             1897.03  1929.68  1944.97  1998.23  2004.75
                             2025.35  2042.69  2064.80  2130.12  2157.81
                             2170.88  2228.60  2232.51  2350.39  2430.07
                             2504.44  2596.03  4377.62  4409.86  4426.36
                             4439.38  4561.54  4613.40  4644.51  4668.48
                             4672.17  5173.18  5242.22

 Zero-point correction=                           0.214222 (Hartree/Particle)
 Thermal correction to Energy=                    0.229245
 Thermal correction to Enthalpy=                  0.230189
 Thermal correction to Gibbs Free Energy=         0.170550
 Sum of electronic and zero-point Energies=          -1212.694983
 Sum of electronic and thermal Energies=             -1212.679960
 Sum of electronic and thermal Enthalpies=           -1212.679016
 Sum of electronic and thermal Free Energies=        -1212.738656

                     E (Thermal)             CV                S
                      KCal/Mol        Cal/Mol-Kelvin    Cal/Mol-Kelvin
 Total                  143.854             57.375            125.523
 Electronic               0.000              0.000              0.000
 Translational            0.889              2.981             42.532
 Rotational               0.889              2.981             32.793
 Vibrational            142.076             51.413             50.197
 Vibration     1          0.593              1.985              6.519
 Vibration     2          0.594              1.981              5.216
 Vibration     3          0.596              1.975              4.567
 Vibration     4          0.600              1.962              3.855
 Vibration     5          0.604              1.950              3.480
 Vibration     6          0.614              1.915              2.826
 Vibration     7          0.625              1.881              2.449
 Vibration     8          0.633              1.856              2.246
 Vibration     9          0.662              1.765              1.740
 Vibration    10          0.675              1.724              1.582
 Vibration    11          0.689              1.685              1.451
 Vibration    12          0.706              1.635              1.308
 Vibration    13          0.732              1.560              1.134
 Vibration    14          0.759              1.489              0.996
 Vibration    15          0.772              1.455              0.937
 Vibration    16          0.796              1.393              0.841
 Vibration    17          0.809              1.360              0.795
 Vibration    18          0.828              1.313              0.733
 Vibration    19          0.842              1.281              0.694
 Vibration    20          0.856              1.250              0.658
 Vibration    21          0.881              1.192              0.596
 Vibration    22          0.905              1.141              0.545
 Vibration    23          0.909              1.133              0.538
 Vibration    24          0.933              1.083              0.492
 Vibration    25          0.945              1.058              0.471

 Optimization completed.
    -- Stationary point found.
 Normal termination of Gaussian 16 at Fri Dec 11 12:16:54 2020.

 ----------------------------------------------------------------------
 # B3LYP/6-311++G(d,p) empiricaldispersion=gd3bj scf=xqc pop=npa geom=c
 heck
 ----------------------------------------------------------------------

 --------------------------------------
 CID_64275801_JID_7219_Energie_neutraal
 --------------------------------------
 Structure from the checkpoint file:  "JID_7219.chk"
 Charge =  0 Multiplicity = 1

 SCF Done:  E(RB3LYP) =  -1213.17447162     A.U. after   18 cycles
 Normal termination of Gaussian 16 at Fri Dec 11 12:22:26 2020.

 ----------------------------------------------------------------------
 # B3LYP/6-311++G(d,p) empiricaldispersion=gd3bj scf=xqc pop=npa geom=c
 heck
 ----------------------------------------------------------------------

 ------------------------------------
 CID_64275801_JID_7219_Energie_kation
 ------------------------------------
 Structure from the checkpoint file:  "JID_7219.chk"
 Charge =  1 Multiplicity = 2

 SCF Done:  E(UB3LYP) =  -1212.87206168     A.U. after   32 cycles
 Normal termination of Gaussian 16 at Fri Dec 11 12:35:59 2020.
 Gaussian 16:  ES64L-G16RevA.03 25-Dec-2016

 ----------------------------------------------------------------------
 # B3LYP/6-311++G(d,p) empiricaldispersion=gd3bj scf=xqc pop=npa geom=c
 heck
 ----------------------------------------------------------------------

 -----------------------------------
 CID_64275801_JID_7219_Energie_anion
 -----------------------------------
 Structure from the checkpoint file:  "JID_7219.chk"
 Charge = -1 Multiplicity = 2

                         Standard orientation:
 ---------------------------------------------------------------------
 Center     Atomic      Atomic             Coordinates (Angstroms)
 Number     Number       Type             X           Y           Z
 ---------------------------------------------------------------------
      1          6           0       -2.930954   -1.474301   -0.689300
      2          6           0       -1.641621   -1.041637   -1.379241
      3          7           0       -0.919513   -0.064472   -0.559923
      4          6           0       -1.682677    1.166697   -0.310271
      5          6           0       -3.160807    0.946725    0.000552
      6          8           0       -3.853578    1.866694    0.411087
      7          7           0       -3.674051   -0.294560   -0.261268
      8         16           0        0.053709   -0.659646    0.671945
      9          8           0       -0.260055    0.027700    1.923507
     10          8           0        0.017115   -2.130199    0.593408
     11          6           0        1.694267   -0.182496    0.165501
     12          6           0        2.633050   -1.163000    0.083599
     13          7           0        3.920517   -0.864627   -0.249091
     14          6           0        4.303566    0.432920   -0.504571
     15          6           0        3.410624    1.449516   -0.442330
     16          6           0        2.003274    1.230600   -0.099051
     17          8           0        1.170784    2.136617   -0.051662
     18          1           0       -3.549842   -2.053790   -1.385316
     19          1           0       -2.681921   -2.119655    0.162954
     20          1           0       -1.863339   -0.548507   -2.332871
     21          1           0       -1.005221   -1.904640   -1.571598
     22          1           0       -1.608218    1.805243   -1.198060
     23          1           0       -1.233082    1.718345    0.511425
     24          1           0       -4.640864   -0.403236    0.019654
     25          1           0        2.393571   -2.202363    0.274236
     26          1           0        4.603359   -1.606594   -0.297815
     27          1           0        5.349155    0.571228   -0.755090
     28          1           0        3.721911    2.467281   -0.646717
 ---------------------------------------------------------------------

 SCF Done:  E(UB3LYP) =  -1213.18405448     A.U. after   33 cycles
 SCF Done:  E(UB3LYP) =  -1213.18405448     a.u. after    1 cycles

 The electronic state is 2-A.
 Alpha  occ. eigenvalues --  -88.96900 -19.02243 -19.01933 -19.00827 -18.97744
 Alpha  occ. eigenvalues --  -14.27715 -14.26661 -14.25947 -10.19479 -10.14730
 Alpha  occ. eigenvalues --  -10.14385 -10.14089 -10.13093 -10.12498 -10.12484
 Alpha  occ. eigenvalues --  -10.09462 -10.07047  -8.03007  -5.99325  -5.99261
 Alpha  occ. eigenvalues --   -5.99068  -1.02515  -0.96146  -0.91632  -0.91315
 Alpha  occ. eigenvalues --   -0.88665  -0.87545  -0.83540  -0.70945  -0.69359
 Alpha  occ. eigenvalues --   -0.68640  -0.64597  -0.59634  -0.56669  -0.52859
 Alpha  occ. eigenvalues --   -0.52345  -0.49917  -0.47641  -0.44931  -0.43035
 Alpha  occ. eigenvalues --   -0.41846  -0.40862  -0.39904  -0.39160  -0.37421
 Alpha  occ. eigenvalues --   -0.36891  -0.35523  -0.34997  -0.34507  -0.33679
 Alpha  occ. eigenvalues --   -0.33320  -0.31568  -0.31064  -0.30478  -0.29310
 Alpha  occ. eigenvalues --   -0.28130  -0.27383  -0.25975  -0.23278  -0.22264
 Alpha  occ. eigenvalues --   -0.21543  -0.20371  -0.18683  -0.18280  -0.15887
 Alpha  occ. eigenvalues --   -0.14196  -0.13363   0.03330
 Alpha virt. eigenvalues --    0.05185   0.06087   0.07196   0.07381   0.07938
 Alpha virt. eigenvalues --    0.08436   0.09293   0.09618   0.10759   0.11132
 Alpha virt. eigenvalues --    0.11971   0.12450   0.12827   0.13323   0.14076

  Beta  occ. eigenvalues --  -88.96897 -19.02239 -19.01906 -19.00826 -18.97749
  Beta  occ. eigenvalues --  -14.27648 -14.26661 -14.25941 -10.19478 -10.14737
  Beta  occ. eigenvalues --  -10.14382 -10.14086 -10.12958 -10.12482 -10.12424
  Beta  occ. eigenvalues --  -10.09374 -10.06962  -8.03003  -5.99319  -5.99257
  Beta  occ. eigenvalues --   -5.99066  -1.02477  -0.96144  -0.91617  -0.91281
  Beta  occ. eigenvalues --   -0.88488  -0.87537  -0.83533  -0.70749  -0.69341
  Beta  occ. eigenvalues --   -0.68427  -0.64556  -0.59593  -0.56518  -0.52701
  Beta  occ. eigenvalues --   -0.52261  -0.49783  -0.47568  -0.44849  -0.43019
  Beta  occ. eigenvalues --   -0.41772  -0.40808  -0.39840  -0.39142  -0.37394
  Beta  occ. eigenvalues --   -0.36771  -0.35488  -0.34895  -0.34484  -0.33656
  Beta  occ. eigenvalues --   -0.33060  -0.31531  -0.31054  -0.30406  -0.29246
  Beta  occ. eigenvalues --   -0.28116  -0.27303  -0.25950  -0.23230  -0.22175
  Beta  occ. eigenvalues --   -0.21468  -0.20295  -0.18331  -0.18191  -0.15794
  Beta  occ. eigenvalues --   -0.14158  -0.13099
  Beta virt. eigenvalues --    0.05110   0.07010   0.07191   0.07459   0.07570
  Beta virt. eigenvalues --    0.08107   0.09008   0.09476   0.09926   0.11074
  Beta virt. eigenvalues --    0.11220   0.11974   0.12591   0.13076   0.13548

 Mulliken charges and spin densities:
               1          2
     1  C   -0.261356  -0.021482
     2  C   -0.329213  -0.048491
     3  N    0.053596   0.024518
     4  C   -0.454416   0.007722
     5  C    0.131592  -0.013235
     6  O   -0.346744   0.000215
     7  N   -0.252359   0.009979
     8  S    0.942173  -0.824469
     9  O   -0.026073  -0.001492
    10  O   -0.250061   0.012164
    11  C    0.198859  -0.879017
    12  C    0.180235   0.412941
    13  N   -0.083240  -0.042449
    14  C    0.226268  -0.718641
    15  C    0.206334  -0.051360
    16  C   -0.089320   0.021011
    17  O   -0.324721  -0.003286
    18  H    0.133177   0.033149
    19  H    0.187913   0.010831
    20  H    0.144900   0.029043
    21  H    0.121016   0.100417
    22  H    0.208600   0.010702
    23  H    0.318724  -0.005404
    24  H    0.283030   0.018748
    25  H   -0.198910   0.446846
    26  H   -0.889458   1.259402
    27  H   -0.912953   1.101414
    28  H    0.082406   0.110226
 Sum of Mulliken charges =  -1.00000   1.00000

 Dipole moment (field-independent basis, Debye):
    X=            -11.3541    Y=             -0.7583    Z=             -2.6608  Tot=             11.6864
 Quadrupole moment (field-independent basis, Debye-Ang):
   XX=           -202.1763   YY=           -147.6949   ZZ=           -126.2466
   XY=             33.2083   XZ=             13.2547   YZ=             -2.7219

 Summary of Natural Population Analysis:

                                       Natural Population
                Natural  -----------------------------------------------
    Atom  No    Charge         Core      Valence    Rydberg      Total
 -----------------------------------------------------------------------
      C    1   -0.09369      0.99962     2.08505    0.00902     3.09369
      C    2   -0.09175      0.99962     2.08167    0.01047     3.09175
      N    3   -0.37247      0.99973     2.85805    0.01469     3.87247
      C    4   -0.13451      0.99956     2.12275    0.01219     3.13451
      C    5    0.33803      0.99967     1.64016    0.02213     2.66197
      O    6   -0.32185      0.99988     3.31566    0.00631     4.32185
      N    7   -0.32126      0.99967     2.81367    0.00792     3.82126
      S    8    1.11521      4.99912     1.78058    0.10509     6.88479
      O    9   -0.45262      0.99990     3.44773    0.00499     4.45262
      O   10   -0.47540      0.99991     3.47023    0.00526     4.47540
      C   11   -0.18661      0.99935     2.17232    0.01493     3.18661
      C   12    0.06311      0.99948     1.92381    0.01360     2.93689
      N   13   -0.26097      0.99968     2.74925    0.01204     3.76097
      C   14    0.03762      0.99954     1.94930    0.01353     2.96238
      C   15   -0.14080      0.99953     2.13072    0.01056     3.14080
      C   16    0.22381      0.99954     1.75397    0.02268     2.77619
      O   17   -0.32937      0.99988     3.32327    0.00622     4.32937
      H   18    0.09331      0.00000     0.40527    0.00142     0.40669
      H   19    0.10074      0.00000     0.39754    0.00172     0.39926
      H   20    0.09698      0.00000     0.40187    0.00114     0.40302
      H   21    0.11848      0.00000     0.38029    0.00123     0.38152
      H   22    0.11092      0.00000     0.38787    0.00121     0.38908
      H   23    0.14037      0.00000     0.35808    0.00155     0.35963
      H   24    0.19227      0.00000     0.30456    0.00317     0.30773
      H   25    0.11670      0.00000     0.38184    0.00146     0.38330
      H   26    0.22009      0.00000     0.22195    0.05796     0.27991
      H   27    0.10618      0.00000     0.39072    0.00310     0.39382
      H   28    0.10746      0.00000     0.39163    0.00091     0.39254
 =======================================================================
   * Total *    0.00000     20.99369    45.63979    0.36651    67.00000

 Normal termination of Gaussian 16 at Fri Dec 11 12:50:55 2020.
