 Gaussian 16, Revision A.03,

 -----------------------------------------------------------
 # opt freq B3LYP/6-31G(d) empiricaldispersion=gd3bj scf=xqc
 -----------------------------------------------------------

 ------------------------------
 CID_42685274_JID_5579_neutraal
 ------------------------------
 Symbolic Z-matrix:
 Charge =  0 Multiplicity = 1

 SCF Done:  E(RB3LYP) =  -684.968974778     A.U. after   15 cycles
 SCF Done:  E(RB3LYP) =  -684.973087597     A.U. after   12 cycles
 SCF Done:  E(RB3LYP) =  -684.973522553     A.U. after   11 cycles
 SCF Done:  E(RB3LYP) =  -684.973610587     A.U. after   11 cycles
 SCF Done:  E(RB3LYP) =  -684.973679544     A.U. after   10 cycles
 SCF Done:  E(RB3LYP) =  -684.973699596     A.U. after   10 cycles
 SCF Done:  E(RB3LYP) =  -684.973708498     A.U. after   10 cycles
 SCF Done:  E(RB3LYP) =  -684.973711945     A.U. after    9 cycles
 SCF Done:  E(RB3LYP) =  -684.973714926     A.U. after    9 cycles
 SCF Done:  E(RB3LYP) =  -684.973716947     A.U. after    9 cycles
 SCF Done:  E(RB3LYP) =  -684.974201846     A.U. after   11 cycles
 SCF Done:  E(RB3LYP) =  -684.974204815     A.U. after   10 cycles
 SCF Done:  E(RB3LYP) =  -684.974205815     A.U. after    8 cycles
 SCF Done:  E(RB3LYP) =  -684.974206065     A.U. after    8 cycles
 SCF Done:  E(RB3LYP) =  -684.974206172     A.U. after    7 cycles
 SCF Done:  E(RB3LYP) =  -684.974206200     A.U. after    6 cycles
 Optimization completed.
    -- Stationary point found.
 Normal termination of Gaussian 16 at Thu Dec 10 16:44:54 2020.

 --------------------------------------------------------------------
 #N Geom=AllCheck Guess=TCheck SCRF=Check GenChk RB3LYP/6-31G(d) Freq
 --------------------------------------------------------------------

 Structure from the checkpoint file:  "JID_5579.chk"
 ------------------------------
 CID_42685274_JID_5579_neutraal
 ------------------------------
 Charge =  0 Multiplicity = 1

 SCF Done:  E(RB3LYP) =  -684.974206200     A.U. after    1 cycles

  Exact polarizability: 150.395  -1.047 125.234 -11.373   1.483 105.250
 Approx polarizability: 200.465   2.463 198.842 -25.779   2.004 165.361

                      1                      2                      3
                      A                      A                      A
 Frequencies --     29.8216                51.4648                60.1656
 Red. masses --      3.9117                 3.2149                 3.3687
 Frc consts  --      0.0020                 0.0050                 0.0072
 IR Inten    --      0.8277                 0.6990                 0.6919

                      4                      5                      6
                      A                      A                      A
 Frequencies --     91.1790               114.0275               127.8202
 Red. masses --      4.6301                 3.0498                 4.8302
 Frc consts  --      0.0227                 0.0234                 0.0465
 IR Inten    --      1.8067                 1.7259                 0.6779

                      7                      8                      9
                      A                      A                      A
 Frequencies --    155.9155               238.2308               251.0508
 Red. masses --      3.6575                 1.1401                 1.8515
 Frc consts  --      0.0524                 0.0381                 0.0688
 IR Inten    --      1.0517                 0.2903                 1.4104

                     10                     11                     12
                      A                      A                      A
 Frequencies --    276.7916               292.2535               318.8392
 Red. masses --      1.4583                 2.6606                 2.2729
 Frc consts  --      0.0658                 0.1339                 0.1361
 IR Inten    --      0.4845                 2.8891                 3.4025

                     13                     14                     15
                      A                      A                      A
 Frequencies --    339.2479               361.6217               379.5338
 Red. masses --      2.0037                 5.2995                 3.7212
 Frc consts  --      0.1359                 0.4083                 0.3158
 IR Inten    --      6.0811                 2.0709                 1.5028

                     16                     17                     18
                      A                      A                      A
 Frequencies --    420.0041               453.3128               470.6622
 Red. masses --      3.8502                 3.0688                 3.2459
 Frc consts  --      0.4002                 0.3716                 0.4237
 IR Inten    --      2.3763                 3.3691                 5.8525

                     19                     20                     21
                      A                      A                      A
 Frequencies --    494.9516               530.6556               573.8341
 Red. masses --      1.6697                 2.7223                 3.5313
 Frc consts  --      0.2410                 0.4517                 0.6851
 IR Inten    --     50.0331                 3.5340                10.0407

                     22                     23                     24
                      A                      A                      A
 Frequencies --    631.4351               660.5313               676.0622
 Red. masses --      2.8436                 2.7951                 2.3200
 Frc consts  --      0.6680                 0.7185                 0.6248
 IR Inten    --     34.4965                14.6529                28.9619

                     25                     26                     27
                      A                      A                      A
 Frequencies --    723.6249               740.4550               769.1322
 Red. masses --      2.9708                 2.2095                 3.6997
 Frc consts  --      0.9165                 0.7138                 1.2895
 IR Inten    --     23.7180                22.7311                34.8934

                     28                     29                     30
                      A                      A                      A
 Frequencies --    800.0070               819.1632               874.6273
 Red. masses --      6.4365                 2.3831                 1.7827
 Frc consts  --      2.4271                 0.9422                 0.8035
 IR Inten    --     34.6444               113.5639                12.6918

                     31                     32                     33
                      A                      A                      A
 Frequencies --    880.2339               945.4298               949.6885
 Red. masses --      2.3159                 1.2062                 2.2142
 Frc consts  --      1.0572                 0.6352                 1.1766
 IR Inten    --      2.6068                 0.7964                 8.8680

                     34                     35                     36
                      A                      A                      A
 Frequencies --    964.2132               975.1475               985.3728
 Red. masses --      1.4377                 2.7056                 1.7661
 Frc consts  --      0.7875                 1.5158                 1.0103
 IR Inten    --      0.4950                 5.8091                 3.1028

                     37                     38                     39
                      A                      A                      A
 Frequencies --    989.1342              1062.1749              1123.3262
 Red. masses --      1.9503                 4.1037                 2.2931
 Frc consts  --      1.1243                 2.7278                 1.7048
 IR Inten    --     17.2960                27.0072                 7.3289

                     40                     41                     42
                      A                      A                      A
 Frequencies --   1136.4183              1161.8557              1168.9478
 Red. masses --      2.9358                 2.1292                 4.6031
 Frc consts  --      2.2338                 1.6934                 3.7059
 IR Inten    --      9.8453                 6.2622                45.4039

                     43                     44                     45
                      A                      A                      A
 Frequencies --   1198.2190              1204.6050              1210.0335
 Red. masses --      2.0371                 1.1735                 2.3629
 Frc consts  --      1.7232                 1.0033                 2.0384
 IR Inten    --      1.5663                 5.3444                46.3872

                     46                     47                     48
                      A                      A                      A
 Frequencies --   1213.9827              1237.9108              1296.0910
 Red. masses --      3.4147                 1.5223                 1.6361
 Frc consts  --      2.9650                 1.3744                 1.6194
 IR Inten    --     17.8342                15.7114                 2.1947

                     49                     50                     51
                      A                      A                      A
 Frequencies --   1325.9053              1343.3177              1356.0832
 Red. masses --      2.7673                 1.4857                 1.3852
 Frc consts  --      2.8664                 1.5796                 1.5008
 IR Inten    --    138.1122                14.0961                 5.7052

                     52                     53                     54
                      A                      A                      A
 Frequencies --   1366.7680              1382.2498              1386.1644
 Red. masses --      1.8692                 1.3798                 1.2992
 Frc consts  --      2.0572                 1.5532                 1.4708
 IR Inten    --     27.7152                 6.4156                14.1293

                     55                     56                     57
                      A                      A                      A
 Frequencies --   1406.8172              1429.1962              1436.6981
 Red. masses --      1.4215                 1.2797                 2.6820
 Frc consts  --      1.6576                 1.5400                 3.2617
 IR Inten    --     16.8999                11.1638                 8.4294

                     58                     59                     60
                      A                      A                      A
 Frequencies --   1448.6035              1480.2906              1501.8564
 Red. masses --      1.2490                 1.3708                 1.3438
 Frc consts  --      1.5442                 1.7698                 1.7858
 IR Inten    --     10.0852                33.1945                11.6108

                     61                     62                     63
                      A                      A                      A
 Frequencies --   1504.0603              1511.3735              1514.1310
 Red. masses --      2.9777                 1.3605                 1.3208
 Frc consts  --      3.9688                 1.8311                 1.7840
 IR Inten    --     62.7893                19.0278                 8.0324

                     64                     65                     66
                      A                      A                      A
 Frequencies --   1515.4525              1517.5715              1518.4284
 Red. masses --      1.0915                 1.0989                 1.0697
 Frc consts  --      1.4770                 1.4911                 1.4531
 IR Inten    --      4.0845                 5.9893                 2.8706

                     67                     68                     69
                      A                      A                      A
 Frequencies --   1532.4538              1534.0696              1538.5399
 Red. masses --      1.9814                 1.1000                 1.0603
 Frc consts  --      2.7415                 1.5252                 1.4787
 IR Inten    --     10.7816                 2.0027                 4.4628

                     70                     71                     72
                      A                      A                      A
 Frequencies --   1628.9270              1788.7883              3018.8702
 Red. masses --      5.1018                 9.0733                 1.0652
 Frc consts  --      7.9759                17.1053                 5.7196
 IR Inten    --      7.7728               339.3784                38.2728

                     73                     74                     75
                      A                      A                      A
 Frequencies --   3035.3264              3043.6562              3048.1916
 Red. masses --      1.0694                 1.0364                 1.0382
 Frc consts  --      5.8051                 5.6566                 5.6833
 IR Inten    --     31.5498                16.6245                27.5325

                     76                     77                     78
                      A                      A                      A
 Frequencies --   3053.6588              3066.5126              3092.8524
 Red. masses --      1.0753                 1.0820                 1.0871
 Frc consts  --      5.9078                 5.9948                 6.1270
 IR Inten    --     15.3052                60.5993                 8.2521

                     79                     80                     81
                      A                      A                      A
 Frequencies --   3094.9045              3107.0932              3109.3181
 Red. masses --      1.0935                 1.1063                 1.1009
 Frc consts  --      6.1712                 6.2927                 6.2711
 IR Inten    --     19.3420                36.8725                 3.0408

                     82                     83                     84
                      A                      A                      A
 Frequencies --   3122.3841              3130.8792              3133.3033
 Red. masses --      1.0974                 1.1023                 1.1034
 Frc consts  --      6.3036                 6.3661                 6.3823
 IR Inten    --     60.0405                18.4854                34.0754

                     85                     86                     87
                      A                      A                      A
 Frequencies --   3474.1487              3546.4508              3658.0595
 Red. masses --      1.0738                 1.0746                 1.0811
 Frc consts  --      7.6358                 7.9632                 8.5238
 IR Inten    --      1.3904                11.4595                68.8108

 - Thermochemistry -
 -------------------
 Temperature   298.150 Kelvin.  Pressure   1.00000 Atm.
 Atom     1 has atomic number  6 and mass  12.00000

 Molecular mass:   208.13241 amu.
 Principal axes and moments of inertia in atomic units:
                           1         2         3
     Eigenvalues --  2043.034884136.917544946.04958
           X            0.99958  -0.02499   0.01485
           Y            0.02474   0.99955   0.01678
           Z           -0.01526  -0.01640   0.99975
 This molecule is an asymmetric top.
 Rotational symmetry number  1.
 Warning -- assumption of classical behavior for rotation
           may cause significant error
 Rotational temperatures (Kelvin)      0.04239     0.02094     0.01751
 Rotational constants (GHZ):           0.88336     0.43625     0.36489
 Zero-point vibrational energy     700608.3 (Joules/Mol)
                                  167.44941 (Kcal/Mol)
 Warning -- explicit consideration of  21 degrees of freedom as
           vibrations may cause significant error
 Vibrational temperatures:     42.91    74.05    86.56   131.19   164.06
          (Kelvin)            183.90   224.33   342.76   361.21   398.24
                              420.49   458.74   488.10   520.29   546.06
                              604.29   652.22   677.18   712.12   763.50
                              825.62   908.49   950.36   972.70  1041.13
                             1065.35  1106.61  1151.03  1178.59  1258.39
                             1266.46  1360.26  1366.39  1387.29  1403.02
                             1417.73  1423.14  1528.23  1616.22  1635.05
                             1671.65  1681.86  1723.97  1733.16  1740.97
                             1746.65  1781.08  1864.79  1907.68  1932.73
                             1951.10  1966.47  1988.75  1994.38  2024.10
                             2056.29  2067.09  2084.22  2129.81  2160.84
                             2164.01  2174.53  2178.50  2180.40  2183.45
                             2184.68  2204.86  2207.18  2213.62  2343.66
                             2573.67  4343.48  4367.16  4379.14  4385.67
                             4393.53  4412.03  4449.92  4452.88  4470.41
                             4473.62  4492.41  4504.64  4508.12  4998.53
                             5102.55  5263.13

 Zero-point correction=                           0.266848 (Hartree/Particle)
 Thermal correction to Energy=                    0.281240
 Thermal correction to Enthalpy=                  0.282185
 Thermal correction to Gibbs Free Energy=         0.224734
 Sum of electronic and zero-point Energies=           -684.707359
 Sum of electronic and thermal Energies=              -684.692966
 Sum of electronic and thermal Enthalpies=            -684.692022
 Sum of electronic and thermal Free Energies=         -684.749472

                     E (Thermal)             CV                S
                      KCal/Mol        Cal/Mol-Kelvin    Cal/Mol-Kelvin
 Total                  176.481             54.675            120.914
 Electronic               0.000              0.000              0.000
 Translational            0.889              2.981             41.903
 Rotational               0.889              2.981             32.103
 Vibrational            174.704             48.713             46.909
 Vibration     1          0.594              1.984              5.841
 Vibration     2          0.596              1.977              4.760
 Vibration     3          0.597              1.973              4.452
 Vibration     4          0.602              1.955              3.635
 Vibration     5          0.607              1.938              3.199
 Vibration     6          0.611              1.925              2.979
 Vibration     7          0.620              1.896              2.599
 Vibration     8          0.656              1.782              1.816
 Vibration     9          0.663              1.761              1.723
 Vibration    10          0.678              1.716              1.553
 Vibration    11          0.688              1.688              1.461
 Vibration    12          0.705              1.638              1.316
 Vibration    13          0.719              1.597              1.216
 Vibration    14          0.736              1.551              1.115
 Vibration    15          0.750              1.514              1.041
 Vibration    16          0.783              1.427              0.892
 Vibration    17          0.812              1.354              0.786
 Vibration    18          0.828              1.315              0.736
 Vibration    19          0.851              1.261              0.671
 Vibration    20          0.886              1.182              0.586
 Vibration    21          0.930              1.088              0.497

 Optimization completed.
    -- Stationary point found.
 Normal termination of Gaussian 16 at Thu Dec 10 16:55:11 2020.

 ----------------------------------------------------------------------
 # B3LYP/6-311++G(d,p) empiricaldispersion=gd3bj scf=xqc pop=npa geom=c
 heck
 ----------------------------------------------------------------------

 --------------------------------------
 CID_42685274_JID_5579_Energie_neutraal
 --------------------------------------
 Structure from the checkpoint file:  "JID_5579.chk"
 Charge =  0 Multiplicity = 1

 SCF Done:  E(RB3LYP) =  -685.171068087     A.U. after   16 cycles
 Normal termination of Gaussian 16 at Thu Dec 10 17:01:08 2020.

 ----------------------------------------------------------------------
 # B3LYP/6-311++G(d,p) empiricaldispersion=gd3bj scf=xqc pop=npa geom=c
 heck
 ----------------------------------------------------------------------

 ------------------------------------
 CID_42685274_JID_5579_Energie_kation
 ------------------------------------
 Structure from the checkpoint file:  "JID_5579.chk"
 Charge =  1 Multiplicity = 2

 SCF Done:  E(UB3LYP) =  -684.865263612     A.U. after   31 cycles
 Normal termination of Gaussian 16 at Thu Dec 10 17:20:04 2020.
 Gaussian 16:  ES64L-G16RevA.03 25-Dec-2016

 ----------------------------------------------------------------------
 # B3LYP/6-311++G(d,p) empiricaldispersion=gd3bj scf=xqc pop=npa geom=c
 heck
 ----------------------------------------------------------------------

 -----------------------------------
 CID_42685274_JID_5579_Energie_anion
 -----------------------------------
 Structure from the checkpoint file:  "JID_5579.chk"
 Charge = -1 Multiplicity = 2

                         Standard orientation:
 ---------------------------------------------------------------------
 Center     Atomic      Atomic             Coordinates (Angstroms)
 Number     Number       Type             X           Y           Z
 ---------------------------------------------------------------------
      1          6           0       -2.913183    0.084251   -1.666996
      2          6           0       -2.230420    0.872464   -0.542509
      3          6           0       -2.887352    2.231728   -0.302754
      4          7           0       -2.223817    0.118565    0.719144
      5          6           0       -1.474787   -1.016828    0.950503
      6          8           0       -1.836087   -1.884938    1.731782
      7          6           0       -0.154038   -1.066641    0.248572
      8          7           0        0.177767   -2.138390   -0.478354
      9          7           0        1.430722   -1.872430   -0.911755
     10          6           0        1.909098   -0.675224   -0.474674
     11          6           0        0.896608   -0.109881    0.277741
     12          6           0        1.082227    1.216396    0.967570
     13          7           0        2.244516    1.954994    0.446912
     14          6           0        3.424950    1.104861    0.283108
     15          6           0        3.246839   -0.059417   -0.727557
     16          1           0       -3.960368   -0.122247   -1.414761
     17          1           0       -2.403708   -0.871575   -1.825535
     18          1           0       -2.893918    0.648374   -2.606846
     19          1           0       -1.185261    1.032473   -0.821225
     20          1           0       -3.937049    2.110805   -0.005752
     21          1           0       -2.370666    2.782295    0.489898
     22          1           0       -2.869745    2.833918   -1.216910
     23          1           0       -3.122117    0.064203    1.191417
     24          1           0        1.895665   -2.555948   -1.490540
     25          1           0        1.231230    1.065178    2.045694
     26          1           0        0.197229    1.853852    0.870632
     27          1           0        1.998626    2.352824   -0.459133
     28          1           0        4.269447    1.732892   -0.018744
     29          1           0        3.665180    0.686835    1.268254
     30          1           0        3.310245    0.324847   -1.756437
     31          1           0        4.059941   -0.788658   -0.613931
 ---------------------------------------------------------------------

 SCF Done:  E(UB3LYP) =  -685.163570039     A.U. after   31 cycles

 The electronic state is 2-A.
 Alpha  occ. eigenvalues --  -18.99827 -14.28931 -14.24136 -14.23805 -14.20522
 Alpha  occ. eigenvalues --  -10.18286 -10.12552 -10.11490 -10.10771 -10.10306
 Alpha  occ. eigenvalues --  -10.10288 -10.08462 -10.07910 -10.07399 -10.07297
 Alpha  occ. eigenvalues --   -0.95560  -0.94335  -0.83472  -0.82078  -0.73491
 Alpha  occ. eigenvalues --   -0.70197  -0.68794  -0.66189  -0.60697  -0.57520
 Alpha  occ. eigenvalues --   -0.56873  -0.53608  -0.52212  -0.47347  -0.46569
 Alpha  occ. eigenvalues --   -0.44268  -0.39808  -0.38800  -0.37944  -0.36556
 Alpha  occ. eigenvalues --   -0.36307  -0.35026  -0.34236  -0.33109  -0.32538
 Alpha  occ. eigenvalues --   -0.32312  -0.31163  -0.30735  -0.29696  -0.29452
 Alpha  occ. eigenvalues --   -0.29140  -0.26835  -0.26403  -0.25860  -0.25390
 Alpha  occ. eigenvalues --   -0.20468  -0.18009  -0.16528  -0.15567  -0.14645
 Alpha  occ. eigenvalues --   -0.13607   0.03951
 Alpha virt. eigenvalues --    0.05836   0.06986   0.07588   0.07674   0.08427
 Alpha virt. eigenvalues --    0.08851   0.09144   0.10304   0.10504   0.10817
 Alpha virt. eigenvalues --    0.11200   0.11857   0.12117   0.12603   0.13584

  Beta  occ. eigenvalues --  -18.99823 -14.28900 -14.24132 -14.23803 -14.20497
  Beta  occ. eigenvalues --  -10.18281 -10.12541 -10.11490 -10.10763 -10.10305
  Beta  occ. eigenvalues --  -10.10270 -10.08410 -10.07879 -10.07392 -10.07278
  Beta  occ. eigenvalues --   -0.95540  -0.94320  -0.83459  -0.82032  -0.73459
  Beta  occ. eigenvalues --   -0.70158  -0.68765  -0.66140  -0.60651  -0.57473
  Beta  occ. eigenvalues --   -0.56832  -0.53540  -0.52165  -0.47306  -0.46530
  Beta  occ. eigenvalues --   -0.44211  -0.39783  -0.38762  -0.37915  -0.36517
  Beta  occ. eigenvalues --   -0.36266  -0.35004  -0.34207  -0.33076  -0.32512
  Beta  occ. eigenvalues --   -0.32279  -0.31107  -0.30707  -0.29651  -0.29420
  Beta  occ. eigenvalues --   -0.29110  -0.26801  -0.26368  -0.25819  -0.25348
  Beta  occ. eigenvalues --   -0.20451  -0.17993  -0.16516  -0.15555  -0.14624
  Beta  occ. eigenvalues --   -0.13567
  Beta virt. eigenvalues --    0.06192   0.06990   0.07623   0.08003   0.08208
  Beta virt. eigenvalues --    0.08754   0.09218   0.09476   0.10578   0.10846
  Beta virt. eigenvalues --    0.11317   0.11446   0.12175   0.12248   0.12760

 Mulliken charges and spin densities:
               1          2
     1  C    0.017110  -0.633067
     2  C   -0.352684   0.392379
     3  C    0.189647  -0.666471
     4  N   -0.031536  -0.027171
     5  C    0.162767  -0.571575
     6  O   -0.296350   0.003800
     7  C   -0.253339  -0.117815
     8  N   -0.199120   0.307451
     9  N    0.004963  -0.233281
    10  C    0.085026   0.260979
    11  C    0.457310   0.358356
    12  C    0.044239  -1.234745
    13  N   -0.064913   0.122203
    14  C   -0.088875  -0.330990
    15  C    0.322210  -0.638937
    16  H    0.056693   0.075549
    17  H    0.095079   0.085061
    18  H   -0.135708   0.280889
    19  H    0.062430   0.117615
    20  H   -0.099307   0.225856
    21  H   -0.124335   0.273331
    22  H   -0.208716   0.370329
    23  H    0.307952  -0.026000
    24  H   -0.168147   0.514370
    25  H    0.073799   0.115756
    26  H    0.418770  -0.242220
    27  H   -0.089753   0.323882
    28  H   -0.343485   0.551175
    29  H    0.208228  -0.068476
    30  H   -0.581998   0.783368
    31  H   -0.467958   0.628398
 Sum of Mulliken charges =  -1.00000   1.00000

 Dipole moment (field-independent basis, Debye):
    X=             -3.7597    Y=              0.2823    Z=              3.4843  Tot=              5.1337
 Quadrupole moment (field-independent basis, Debye-Ang):
   XX=           -151.5571   YY=           -144.3759   ZZ=           -130.3757
   XY=             -3.4176   XZ=             10.9172   YZ=              8.3676

 Summary of Natural Population Analysis:

                                       Natural Population
                Natural  -----------------------------------------------
    Atom  No    Charge         Core      Valence    Rydberg      Total
 -----------------------------------------------------------------------
      C    1   -0.29013      0.99964     2.28498    0.00551     3.29013
      C    2   -0.02083      0.99961     2.01013    0.01109     3.02083
      C    3   -0.28626      0.99965     2.28035    0.00627     3.28626
      N    4   -0.32134      0.99968     2.81212    0.00954     3.82134
      C    5    0.33766      0.99963     1.64005    0.02266     2.66234
      O    6   -0.30687      0.99988     3.30180    0.00519     4.30687
      C    7    0.02308      0.99947     1.96105    0.01640     2.97692
      N    8   -0.14097      0.99971     2.62940    0.01185     3.64097
      N    9   -0.16141      0.99964     2.64916    0.01261     3.66141
      C   10    0.08544      0.99945     1.90226    0.01284     2.91456
      C   11   -0.07366      0.99941     2.06444    0.00981     3.07366
      C   12   -0.09116      0.99959     2.08077    0.01081     3.09116
      N   13   -0.33274      0.99977     2.82097    0.01200     3.83274
      C   14   -0.08295      0.99964     2.07146    0.01185     3.08295
      C   15   -0.21388      0.99960     2.20509    0.00919     3.21388
      H   16    0.09429      0.00000     0.40481    0.00089     0.40571
      H   17    0.10732      0.00000     0.39154    0.00113     0.39268
      H   18    0.10278      0.00000     0.39633    0.00089     0.39722
      H   19    0.10395      0.00000     0.39312    0.00293     0.39605
      H   20    0.09404      0.00000     0.40499    0.00097     0.40596
      H   21    0.10306      0.00000     0.39583    0.00110     0.39694
      H   22    0.10609      0.00000     0.39277    0.00114     0.39391
      H   23    0.18692      0.00000     0.31084    0.00224     0.31308
      H   24    0.20207      0.00000     0.29381    0.00412     0.29793
      H   25    0.09448      0.00000     0.40427    0.00124     0.40552
      H   26    0.10141      0.00000     0.39719    0.00139     0.39859
      H   27    0.17339      0.00000     0.32288    0.00373     0.32661
      H   28    0.09836      0.00000     0.40052    0.00112     0.40164
      H   29    0.08870      0.00000     0.41006    0.00123     0.41130
      H   30    0.11054      0.00000     0.38359    0.00587     0.38946
      H   31    0.10859      0.00000     0.38913    0.00227     0.39141
 =======================================================================
   * Total *    0.00000     14.99435    40.80573    0.19992    56.00000

 Normal termination of Gaussian 16 at Thu Dec 10 17:33:52 2020.
