 Gaussian 16, Revision A.03,

 -----------------------------------------------------------
 # opt freq B3LYP/6-31G(d) empiricaldispersion=gd3bj scf=xqc
 -----------------------------------------------------------

 ------------------------------
 CID_66650097_JID_3456_neutraal
 ------------------------------
 Symbolic Z-matrix:
 Charge =  0 Multiplicity = 1

 SCF Done:  E(RB3LYP) =  -630.050780890     A.U. after   15 cycles
 SCF Done:  E(RB3LYP) =  -630.055091971     A.U. after   12 cycles
 SCF Done:  E(RB3LYP) =  -630.055435326     A.U. after   12 cycles
 SCF Done:  E(RB3LYP) =  -630.055310835     A.U. after   12 cycles
 SCF Done:  E(RB3LYP) =  -630.055671695     A.U. after   11 cycles
 SCF Done:  E(RB3LYP) =  -630.055751314     A.U. after   12 cycles
 SCF Done:  E(RB3LYP) =  -630.055781296     A.U. after   11 cycles
 SCF Done:  E(RB3LYP) =  -630.055786993     A.U. after    9 cycles
 SCF Done:  E(RB3LYP) =  -630.055789787     A.U. after    9 cycles
 SCF Done:  E(RB3LYP) =  -630.055790508     A.U. after    9 cycles
 SCF Done:  E(RB3LYP) =  -630.055791048     A.U. after    8 cycles
 SCF Done:  E(RB3LYP) =  -630.055791440     A.U. after    9 cycles
 SCF Done:  E(RB3LYP) =  -630.055791581     A.U. after    8 cycles
 SCF Done:  E(RB3LYP) =  -630.055791631     A.U. after    7 cycles
 Optimization completed.
    -- Stationary point found.
 Normal termination of Gaussian 16 at Wed Dec  9 23:17:24 2020.

 --------------------------------------------------------------------
 #N Geom=AllCheck Guess=TCheck SCRF=Check GenChk RB3LYP/6-31G(d) Freq
 --------------------------------------------------------------------

 Structure from the checkpoint file:  "JID_3456.chk"
 ------------------------------
 CID_66650097_JID_3456_neutraal
 ------------------------------
 Charge =  0 Multiplicity = 1

 SCF Done:  E(RB3LYP) =  -630.055791631     A.U. after    1 cycles

  Exact polarizability: 136.629  -1.724 123.518   3.284  -1.246  62.951
 Approx polarizability: 190.982  -5.978 196.526  10.808  -5.783 101.737

                      1                      2                      3
                      A                      A                      A
 Frequencies --     41.4890                50.1019                88.3719
 Red. masses --      8.7586                 2.9145                 2.5836
 Frc consts  --      0.0089                 0.0043                 0.0119
 IR Inten    --      1.3965                 0.0399                 1.7968

                      4                      5                      6
                      A                      A                      A
 Frequencies --    105.9082               161.5805               175.1402
 Red. masses --      3.6121                 5.3094                 1.4034
 Frc consts  --      0.0239                 0.0817                 0.0254
 IR Inten    --      5.4362                 0.7496                 0.9428

                      7                      8                      9
                      A                      A                      A
 Frequencies --    183.8687               198.2911               235.7719
 Red. masses --      2.4939                 2.7808                 3.7481
 Frc consts  --      0.0497                 0.0644                 0.1228
 IR Inten    --      0.7639                 1.2489                 0.3691

                     10                     11                     12
                      A                      A                      A
 Frequencies --    287.9125               302.1066               357.2643
 Red. masses --      2.3965                 1.4174                 3.7412
 Frc consts  --      0.1170                 0.0762                 0.2813
 IR Inten    --      1.8744                 1.0641                 0.5070

                     13                     14                     15
                      A                      A                      A
 Frequencies --    364.8975               420.3499               486.8207
 Red. masses --      7.1952                 4.5264                 4.1548
 Frc consts  --      0.5645                 0.4712                 0.5801
 IR Inten    --      3.9533                 2.7149                10.1262

                     16                     17                     18
                      A                      A                      A
 Frequencies --    550.1038               593.7873               615.7490
 Red. masses --      4.5336                 3.3717                 4.7919
 Frc consts  --      0.8083                 0.7004                 1.0704
 IR Inten    --      5.7740                 2.4222                13.3081

                     19                     20                     21
                      A                      A                      A
 Frequencies --    629.1076               646.1036               722.8688
 Red. masses --      1.9772                 2.2302                 4.3652
 Frc consts  --      0.4611                 0.5485                 1.3439
 IR Inten    --     79.7648                25.1258                14.5347

                     22                     23                     24
                      A                      A                      A
 Frequencies --    759.4041               781.0742               816.9712
 Red. masses --      4.1264                 1.7591                 3.7364
 Frc consts  --      1.4021                 0.6323                 1.4693
 IR Inten    --     13.1510                21.4557                 7.7498

                     25                     26                     27
                      A                      A                      A
 Frequencies --    822.5407               849.6185               924.9627
 Red. masses --      4.8342                 1.3095                 4.7111
 Frc consts  --      1.9270                 0.5569                 2.3748
 IR Inten    --     12.1271                21.9172                 4.1848

                     28                     29                     30
                      A                      A                      A
 Frequencies --    976.2923              1019.7065              1073.0213
 Red. masses --      1.3648                 1.9788                 3.5930
 Frc consts  --      0.7664                 1.2123                 2.4374
 IR Inten    --      0.1769                10.0627                19.8444

                     31                     32                     33
                      A                      A                      A
 Frequencies --   1092.0813              1118.9597              1122.5613
 Red. masses --      4.4939                 1.7680                 3.2018
 Frc consts  --      3.1578                 1.3043                 2.3772
 IR Inten    --    121.7001                18.7331                94.6731

                     34                     35                     36
                      A                      A                      A
 Frequencies --   1161.1470              1185.3992              1213.0041
 Red. masses --      1.9053                 1.2650                 1.4822
 Frc consts  --      1.5135                 1.0473                 1.2849
 IR Inten    --     72.8620                 0.7392                41.2498

                     37                     38                     39
                      A                      A                      A
 Frequencies --   1229.2675              1288.6949              1317.6370
 Red. masses --      1.6725                 2.2137                 1.7353
 Frc consts  --      1.4890                 2.1661                 1.7751
 IR Inten    --     94.1592                 0.8851                 1.2515

                     40                     41                     42
                      A                      A                      A
 Frequencies --   1322.1718              1352.0297              1378.5321
 Red. masses --      2.2854                 2.3737                 2.5464
 Frc consts  --      2.3539                 2.5565                 2.8511
 IR Inten    --      0.9018                87.8308                70.3860

                     43                     44                     45
                      A                      A                      A
 Frequencies --   1392.4534              1439.6984              1450.7173
 Red. masses --      1.8574                 1.4471                 1.7790
 Frc consts  --      2.1219                 1.7672                 2.2059
 IR Inten    --     35.1596                58.5712               177.7154

                     46                     47                     48
                      A                      A                      A
 Frequencies --   1498.3571              1508.4635              1510.2359
 Red. masses --      1.1350                 1.8825                 1.0503
 Frc consts  --      1.5013                 2.5239                 1.4114
 IR Inten    --      9.6746                31.6054                 4.9648

                     49                     50                     51
                      A                      A                      A
 Frequencies --   1526.3877              1526.6755              1531.9659
 Red. masses --      1.6435                 1.1599                 1.0555
 Frc consts  --      2.2561                 1.5927                 1.4596
 IR Inten    --     41.2062                34.3216                 7.8302

                     52                     53                     54
                      A                      A                      A
 Frequencies --   1540.6992              1621.7125              1643.5305
 Red. masses --      1.0635                 7.0996                 6.5133
 Frc consts  --      1.4874                11.0010                10.3659
 IR Inten    --      2.9165               119.6647               145.0538

                     55                     56                     57
                      A                      A                      A
 Frequencies --   1839.6877              3050.8842              3055.5780
 Red. masses --     10.1258                 1.0645                 1.0368
 Frc consts  --     20.1914                 5.8376                 5.7033
 IR Inten    --    311.4448                 8.5352                25.3766

                     58                     59                     60
                      A                      A                      A
 Frequencies --   3068.3897              3085.9617              3123.5632
 Red. masses --      1.0297                 1.0969                 1.1029
 Frc consts  --      5.7121                 6.1548                 6.3397
 IR Inten    --     49.0202                 1.9694                32.8411

                     61                     62                     63
                      A                      A                      A
 Frequencies --   3126.9395              3139.7804              3174.8854
 Red. masses --      1.1019                 1.1071                 1.1053
 Frc consts  --      6.3481                 6.4303                 6.5645
 IR Inten    --     30.3673                25.4510                32.0833

                     64                     65                     66
                      A                      A                      A
 Frequencies --   3176.6251              3238.8923              3673.6044
 Red. masses --      1.0913                 1.0919                 1.0637
 Frc consts  --      6.4884                 6.7486                 8.4576
 IR Inten    --     17.7290                 9.5380                51.9010

 - Thermochemistry -
 -------------------
 Temperature   298.150 Kelvin.  Pressure   1.00000 Atm.
 Atom     1 has atomic number  6 and mass  12.00000

 Molecular mass:   181.07389 amu.
 Principal axes and moments of inertia in atomic units:
                           1         2         3
     Eigenvalues --  1647.624842591.729503997.38118
           X            0.99999  -0.00149  -0.00400
           Y            0.00152   0.99998   0.00667
           Z            0.00399  -0.00668   0.99997
 This molecule is an asymmetric top.
 Rotational symmetry number  1.
 Warning -- assumption of classical behavior for rotation
           may cause significant error
 Rotational temperatures (Kelvin)      0.05257     0.03342     0.02167
 Rotational constants (GHZ):           1.09536     0.69635     0.45148
 Zero-point vibrational energy     508223.7 (Joules/Mol)
                                  121.46837 (Kcal/Mol)
 Warning -- explicit consideration of  18 degrees of freedom as
           vibrations may cause significant error
 Vibrational temperatures:     59.69    72.09   127.15   152.38   232.48
          (Kelvin)            251.99   264.55   285.30   339.22   414.24
                              434.66   514.02   525.01   604.79   700.43
                              791.48   854.33   885.93   905.15   929.60
                             1040.05  1092.61  1123.79  1175.44  1183.45
                             1222.41  1330.81  1404.67  1467.13  1543.84
                             1571.26  1609.93  1615.12  1670.63  1705.52
                             1745.24  1768.64  1854.14  1895.79  1902.31
                             1945.27  1983.40  2003.43  2071.40  2087.26
                             2155.80  2170.34  2172.89  2196.13  2196.55
                             2204.16  2216.72  2333.28  2364.67  2646.90
                             4389.54  4396.30  4414.73  4440.01  4494.11
                             4498.97  4517.44  4567.95  4570.46  4660.04
                             5285.50

 Zero-point correction=                           0.193572 (Hartree/Particle)
 Thermal correction to Energy=                    0.206203
 Thermal correction to Enthalpy=                  0.207148
 Thermal correction to Gibbs Free Energy=         0.153870
 Sum of electronic and zero-point Energies=           -629.862219
 Sum of electronic and thermal Energies=              -629.849588
 Sum of electronic and thermal Enthalpies=            -629.848644
 Sum of electronic and thermal Free Energies=         -629.901921

                     E (Thermal)             CV                S
                      KCal/Mol        Cal/Mol-Kelvin    Cal/Mol-Kelvin
 Total                  129.395             46.075            112.132
 Electronic               0.000              0.000              0.000
 Translational            0.889              2.981             41.488
 Rotational               0.889              2.981             31.213
 Vibrational            127.617             40.113             39.431
 Vibration     1          0.594              1.981              5.187
 Vibration     2          0.595              1.978              4.813
 Vibration     3          0.601              1.957              3.696
 Vibration     4          0.605              1.945              3.343
 Vibration     5          0.622              1.890              2.531
 Vibration     6          0.627              1.873              2.380
 Vibration     7          0.631              1.862              2.289
 Vibration     8          0.637              1.842              2.149
 Vibration     9          0.655              1.786              1.835
 Vibration    10          0.685              1.696              1.486
 Vibration    11          0.694              1.670              1.405
 Vibration    12          0.732              1.560              1.134
 Vibration    13          0.738              1.545              1.101
 Vibration    14          0.783              1.426              0.891
 Vibration    15          0.843              1.279              0.692
 Vibration    16          0.905              1.139              0.544
 Vibration    17          0.951              1.045              0.460
 Vibration    18          0.975              0.999              0.423

 Optimization completed.
    -- Stationary point found.
 Normal termination of Gaussian 16 at Wed Dec  9 23:22:41 2020.

 ----------------------------------------------------------------------
 # B3LYP/6-311++G(d,p) empiricaldispersion=gd3bj scf=xqc pop=npa geom=c
 heck
 ----------------------------------------------------------------------

 --------------------------------------
 CID_66650097_JID_3456_Energie_neutraal
 --------------------------------------
 Structure from the checkpoint file:  "JID_3456.chk"
 Charge =  0 Multiplicity = 1

 SCF Done:  E(RB3LYP) =  -630.240222364     A.U. after   15 cycles
 Normal termination of Gaussian 16 at Wed Dec  9 23:24:52 2020.

 ----------------------------------------------------------------------
 # B3LYP/6-311++G(d,p) empiricaldispersion=gd3bj scf=xqc pop=npa geom=c
 heck
 ----------------------------------------------------------------------

 ------------------------------------
 CID_66650097_JID_3456_Energie_kation
 ------------------------------------
 Structure from the checkpoint file:  "JID_3456.chk"
 Charge =  1 Multiplicity = 2

 SCF Done:  E(UB3LYP) =  -629.925065712     A.U. after   22 cycles
 Normal termination of Gaussian 16 at Wed Dec  9 23:29:19 2020.
 Gaussian 16:  ES64L-G16RevA.03 25-Dec-2016

 ----------------------------------------------------------------------
 # B3LYP/6-311++G(d,p) empiricaldispersion=gd3bj scf=xqc pop=npa geom=c
 heck
 ----------------------------------------------------------------------

 -----------------------------------
 CID_66650097_JID_3456_Energie_anion
 -----------------------------------
 Structure from the checkpoint file:  "JID_3456.chk"
 Charge = -1 Multiplicity = 2

                         Standard orientation:
 ---------------------------------------------------------------------
 Center     Atomic      Atomic             Coordinates (Angstroms)
 Number     Number       Type             X           Y           Z
 ---------------------------------------------------------------------
      1          6           0        3.741918   -0.604970   -0.218997
      2          6           0        2.516701    0.282299    0.005726
      3          6           0        1.179273   -0.434129    0.026528
      4          6           0       -0.024430    0.284394    0.006816
      5          6           0       -1.239830   -0.436907    0.019250
      6          7           0       -1.313456   -1.763189    0.038270
      7          6           0       -0.156911   -2.438422    0.043096
      8          6           0        1.092194   -1.834266    0.042003
      9          8           0       -2.376627    0.282477    0.046193
     10          6           0       -3.608045   -0.444485    0.046837
     11          6           0       -0.072131    1.773416   -0.088428
     12          8           0       -0.645501    2.406098   -0.945474
     13          8           0        0.621943    2.376731    0.913747
     14          1           0        3.876794   -1.326246    0.594223
     15          1           0        4.644752    0.012236   -0.263539
     16          1           0        3.670316   -1.163217   -1.158879
     17          1           0        2.625819    0.830581    0.948418
     18          1           0        2.483596    1.055124   -0.772684
     19          1           0       -0.243259   -3.523347    0.046483
     20          1           0        1.984182   -2.447957    0.042343
     21          1           0       -4.386942    0.318991    0.050619
     22          1           0       -3.690703   -1.072767   -0.844401
     23          1           0       -3.687361   -1.080357    0.933300
     24          1           0        0.546052    3.335260    0.743524
 ---------------------------------------------------------------------

 SCF Done:  E(UB3LYP) =  -630.235429193     A.U. after   32 cycles

 The electronic state is 2-A.
 Alpha  occ. eigenvalues --  -19.02981 -19.02913 -18.96457 -14.15948 -10.15201
 Alpha  occ. eigenvalues --  -10.12591 -10.10773 -10.05260 -10.04463 -10.04421
 Alpha  occ. eigenvalues --  -10.04360 -10.03316 -10.03003  -0.96806  -0.95363
 Alpha  occ. eigenvalues --   -0.87578  -0.79680  -0.69095  -0.64384  -0.61927
 Alpha  occ. eigenvalues --   -0.58498  -0.53154  -0.51521  -0.46838  -0.45180
 Alpha  occ. eigenvalues --   -0.39271  -0.37805  -0.37229  -0.35358  -0.34762
 Alpha  occ. eigenvalues --   -0.32794  -0.32775  -0.31417  -0.29813  -0.28685
 Alpha  occ. eigenvalues --   -0.27673  -0.26945  -0.26211  -0.23709  -0.23096
 Alpha  occ. eigenvalues --   -0.22861  -0.21684  -0.20175  -0.18684  -0.15007
 Alpha  occ. eigenvalues --   -0.13742  -0.12887  -0.10124   0.05397
 Alpha virt. eigenvalues --    0.07710   0.08421   0.08840   0.09801   0.11128
 Alpha virt. eigenvalues --    0.11187   0.12479   0.12543   0.12637   0.13000
 Alpha virt. eigenvalues --    0.13872   0.14309   0.14993   0.15209   0.17546

  Beta  occ. eigenvalues --  -19.02921 -19.02920 -18.96270 -14.15827 -10.15032
  Beta  occ. eigenvalues --  -10.12599 -10.10772 -10.04943 -10.04479 -10.04332
  Beta  occ. eigenvalues --  -10.04123 -10.03161 -10.03096  -0.96590  -0.95349
  Beta  occ. eigenvalues --   -0.87296  -0.79362  -0.68688  -0.64163  -0.61788
  Beta  occ. eigenvalues --   -0.58328  -0.52628  -0.51401  -0.46625  -0.45035
  Beta  occ. eigenvalues --   -0.39118  -0.37554  -0.37007  -0.35297  -0.34535
  Beta  occ. eigenvalues --   -0.32634  -0.32603  -0.31179  -0.29375  -0.28561
  Beta  occ. eigenvalues --   -0.27436  -0.26533  -0.25998  -0.23504  -0.22956
  Beta  occ. eigenvalues --   -0.22806  -0.21528  -0.19669  -0.17991  -0.14668
  Beta  occ. eigenvalues --   -0.12939  -0.12413  -0.09287
  Beta virt. eigenvalues --    0.08052   0.08451   0.09129   0.09951   0.10728
  Beta virt. eigenvalues --    0.11310   0.11473   0.12504   0.12559   0.12781
  Beta virt. eigenvalues --    0.13510   0.13915   0.14349   0.15119   0.16294

 Mulliken charges and spin densities:
               1          2
     1  C    0.415430  -1.106234
     2  C   -0.940815   0.449550
     3  C    1.169898   0.532379
     4  C    0.096126   0.194911
     5  C   -0.306034  -0.260027
     6  N   -0.132688   0.038631
     7  C   -0.242241   0.064456
     8  C   -0.269557  -0.448234
     9  O   -0.102342   0.002802
    10  C   -0.283604  -0.007406
    11  C   -0.295664   0.093984
    12  O   -0.326879   0.063717
    13  O   -0.132079   0.002138
    14  H   -0.058975   0.194675
    15  H   -0.514495   0.650847
    16  H    0.052937   0.082569
    17  H    0.042323   0.172006
    18  H    0.160468   0.009593
    19  H    0.106547   0.005383
    20  H    0.032874   0.078595
    21  H    0.128863  -0.000991
    22  H    0.167483   0.001107
    23  H    0.164223  -0.000303
    24  H    0.068199   0.185854
 Sum of Mulliken charges =  -1.00000   1.00000

 Dipole moment (field-independent basis, Debye):
    X=             -4.1047    Y=             -1.0637    Z=              0.1109  Tot=              4.2418
 Quadrupole moment (field-independent basis, Debye-Ang):
   XX=           -117.1301   YY=           -104.0573   ZZ=            -92.1575
   XY=              0.1857   XZ=             -4.6431   YZ=              3.2111

 Summary of Natural Population Analysis:

                                       Natural Population
                Natural  -----------------------------------------------
    Atom  No    Charge         Core      Valence    Rydberg      Total
 -----------------------------------------------------------------------
      C    1   -0.28601      0.99967     2.28097    0.00536     3.28601
      C    2   -0.20613      0.99961     2.19794    0.00859     3.20613
      C    3    0.07380      0.99950     1.91763    0.00907     2.92620
      C    4   -0.08903      0.99937     2.07816    0.01151     3.08903
      C    5    0.28160      0.99944     1.70225    0.01671     2.71840
      N    6   -0.26719      0.99966     2.75796    0.00957     3.76719
      C    7    0.08836      0.99961     1.89686    0.01518     2.91164
      C    8   -0.16906      0.99952     2.15973    0.00982     3.16906
      O    9   -0.27204      0.99985     3.26392    0.00827     4.27204
      C   10   -0.10047      0.99960     2.09258    0.00829     3.10047
      C   11    0.42435      0.99968     1.54885    0.02712     2.57565
      O   12   -0.29616      0.99987     3.29035    0.00594     4.29616
      O   13   -0.34945      0.99988     3.34260    0.00697     4.34945
      H   14    0.09496      0.00000     0.40398    0.00106     0.40504
      H   15    0.09871      0.00000     0.40017    0.00112     0.40129
      H   16    0.09534      0.00000     0.40370    0.00097     0.40466
      H   17    0.11333      0.00000     0.38470    0.00197     0.38667
      H   18    0.10109      0.00000     0.39761    0.00131     0.39891
      H   19    0.07656      0.00000     0.42206    0.00138     0.42344
      H   20    0.09909      0.00000     0.39978    0.00113     0.40091
      H   21    0.08291      0.00000     0.41630    0.00079     0.41709
      H   22    0.08738      0.00000     0.41137    0.00124     0.41262
      H   23    0.08650      0.00000     0.41222    0.00128     0.41350
      H   24    0.23159      0.00000     0.26401    0.00440     0.26841
 =======================================================================
   * Total *    0.00000     12.99525    34.84570    0.15905    48.00000

 Normal termination of Gaussian 16 at Wed Dec  9 23:35:44 2020.
