 Gaussian 16, Revision A.03,

 -----------------------------------------------------------
 # opt freq B3LYP/6-31G(d) empiricaldispersion=gd3bj scf=xqc
 -----------------------------------------------------------

 -------------------------------
 CID_137556664_JID_9449_neutraal
 -------------------------------
 Symbolic Z-matrix:
 Charge =  0 Multiplicity = 1

 SCF Done:  E(RB3LYP) =  -1198.81188802     A.U. after   16 cycles
 SCF Done:  E(RB3LYP) =  -1198.83072413     A.U. after   14 cycles
 SCF Done:  E(RB3LYP) =  -1198.83364095     A.U. after   14 cycles
 SCF Done:  E(RB3LYP) =  -1198.83489710     A.U. after   14 cycles
 SCF Done:  E(RB3LYP) =  -1198.83645064     A.U. after   14 cycles
 SCF Done:  E(RB3LYP) =  -1198.83891090     A.U. after   16 cycles
 SCF Done:  E(RB3LYP) =  -1198.84096684     A.U. after   15 cycles
 SCF Done:  E(RB3LYP) =  -1198.84236994     A.U. after   13 cycles
 SCF Done:  E(RB3LYP) =  -1198.84322566     A.U. after   13 cycles
 SCF Done:  E(RB3LYP) =  -1198.84349823     A.U. after   13 cycles
 SCF Done:  E(RB3LYP) =  -1198.84360941     A.U. after    9 cycles
 SCF Done:  E(RB3LYP) =  -1198.84361335     A.U. after    9 cycles
 SCF Done:  E(RB3LYP) =  -1198.84361666     A.U. after    9 cycles
 SCF Done:  E(RB3LYP) =  -1198.84361986     A.U. after   10 cycles
 SCF Done:  E(RB3LYP) =  -1198.84362088     A.U. after    9 cycles
 SCF Done:  E(RB3LYP) =  -1198.84362140     A.U. after    8 cycles
 Optimization completed.
    -- Stationary point found.
 Normal termination of Gaussian 16 at Sun Dec 13 12:39:05 2020.

 --------------------------------------------------------------------
 #N Geom=AllCheck Guess=TCheck SCRF=Check GenChk RB3LYP/6-31G(d) Freq
 --------------------------------------------------------------------

 Structure from the checkpoint file:  "JID_9449.chk"
 -------------------------------
 CID_137556664_JID_9449_neutraal
 -------------------------------
 Charge =  0 Multiplicity = 1

 SCF Done:  E(RB3LYP) =  -1198.84362140     A.U. after    1 cycles

  Exact polarizability: 281.228 -26.141 202.889   6.152   8.764 100.460
 Approx polarizability: 382.038 -46.106 369.293  13.698  29.522 163.156

                      1                      2                      3
                      A                      A                      A
 Frequencies --     18.5886                24.8060                35.9277
 Red. masses --      5.5689                 5.9310                 7.4782
 Frc consts  --      0.0011                 0.0022                 0.0057
 IR Inten    --      1.9642                 0.8076                 2.2079

                      4                      5                      6
                      A                      A                      A
 Frequencies --     68.1994                92.7157                93.3272
 Red. masses --      6.2635                 6.7156                 3.1800
 Frc consts  --      0.0172                 0.0340                 0.0163
 IR Inten    --      2.8623                 1.8249                 0.8189

                      7                      8                      9
                      A                      A                      A
 Frequencies --    106.4168               130.6921               148.2886
 Red. masses --      4.6761                 7.4053                 9.1637
 Frc consts  --      0.0312                 0.0745                 0.1187
 IR Inten    --      2.3865                 1.6689                 0.7907

                     10                     11                     12
                      A                      A                      A
 Frequencies --    190.8536               206.9022               222.8038
 Red. masses --      5.0001                 5.7925                 5.6048
 Frc consts  --      0.1073                 0.1461                 0.1639
 IR Inten    --      2.6974                 4.8909                 0.2861

                     13                     14                     15
                      A                      A                      A
 Frequencies --    262.1308               292.7689               314.2176
 Red. masses --      3.2559                 4.5379                 3.9954
 Frc consts  --      0.1318                 0.2292                 0.2324
 IR Inten    --      2.8676                 2.2982                 4.5798

                     16                     17                     18
                      A                      A                      A
 Frequencies --    347.4902               365.6084               435.6809
 Red. masses --      2.6660                 1.3945                 4.8217
 Frc consts  --      0.1897                 0.1098                 0.5393
 IR Inten    --     28.2854               202.0017                 1.8401

                     19                     20                     21
                      A                      A                      A
 Frequencies --    456.0750               465.0422               500.8181
 Red. masses --      3.9766                 3.3412                 6.6110
 Frc consts  --      0.4873                 0.4257                 0.9770
 IR Inten    --      4.1516                 2.4074                23.1964

                     22                     23                     24
                      A                      A                      A
 Frequencies --    514.4889               529.6159               547.4013
 Red. masses --      5.8061                 7.3559                 3.2131
 Frc consts  --      0.9055                 1.2156                 0.5673
 IR Inten    --      2.4868                 3.3900                 2.9740

                     25                     26                     27
                      A                      A                      A
 Frequencies --    596.0316               626.9110               639.4459
 Red. masses --      2.0447                 2.6015                 5.8831
 Frc consts  --      0.4280                 0.6024                 1.4173
 IR Inten    --      3.8662                 7.9084                 2.3030

                     28                     29                     30
                      A                      A                      A
 Frequencies --    675.9215               710.3288               730.3570
 Red. masses --      4.1703                 2.8088                 4.1069
 Frc consts  --      1.1226                 0.8350                 1.2907
 IR Inten    --      4.3519                 5.6496                 5.6042

                     31                     32                     33
                      A                      A                      A
 Frequencies --    768.0735               774.2417               795.7005
 Red. masses --      3.7958                 7.1936                 1.3197
 Frc consts  --      1.3194                 2.5407                 0.4923
 IR Inten    --     10.2114                 4.1565                18.9688

                     34                     35                     36
                      A                      A                      A
 Frequencies --    803.1612               824.8075               838.7605
 Red. masses --      1.4740                 3.2913                 1.9393
 Frc consts  --      0.5602                 1.3192                 0.8038
 IR Inten    --      7.1560                14.0658                 5.5462

                     37                     38                     39
                      A                      A                      A
 Frequencies --    853.8612               892.9192               915.8410
 Red. masses --      3.0817                 1.4703                 1.8292
 Frc consts  --      1.3238                 0.6907                 0.9040
 IR Inten    --      5.4129                 1.1322                11.3069

                     40                     41                     42
                      A                      A                      A
 Frequencies --    918.1919               927.9594               938.5724
 Red. masses --      1.5415                 2.3492                 3.6172
 Frc consts  --      0.7657                 1.1919                 1.8774
 IR Inten    --      9.4448                 3.1333                20.6662

                     43                     44                     45
                      A                      A                      A
 Frequencies --    949.4102               980.3621               996.3050
 Red. masses --      2.8053                 1.3027                 2.7506
 Frc consts  --      1.4898                 0.7377                 1.6087
 IR Inten    --     13.9643                 6.2550                28.4439

                     46                     47                     48
                      A                      A                      A
 Frequencies --   1021.6652              1040.0561              1055.4407
 Red. masses --      6.0031                 8.6212                 1.8074
 Frc consts  --      3.6918                 5.4946                 1.1862
 IR Inten    --      6.2349               141.0658               296.0070

                     49                     50                     51
                      A                      A                      A
 Frequencies --   1083.1580              1087.0594              1098.1077
 Red. masses --      1.2955                 1.8816                 1.3208
 Frc consts  --      0.8955                 1.3101                 0.9384
 IR Inten    --     30.1151                 0.4528                 3.6343

                     52                     53                     54
                      A                      A                      A
 Frequencies --   1127.2379              1139.3030              1187.0947
 Red. masses --      1.5970                 1.1060                 1.5797
 Frc consts  --      1.1956                 0.8459                 1.3116
 IR Inten    --     10.6851                 2.1643               106.6110

                     55                     56                     57
                      A                      A                      A
 Frequencies --   1207.5120              1219.8085              1229.9270
 Red. masses --      1.2100                 1.3709                 2.2816
 Frc consts  --      1.0394                 1.2018                 2.0335
 IR Inten    --     12.7398                 0.7975                14.8821

                     58                     59                     60
                      A                      A                      A
 Frequencies --   1267.4768              1282.6232              1317.1857
 Red. masses --      2.7603                 2.4296                 5.8693
 Frc consts  --      2.6127                 2.3550                 5.9998
 IR Inten    --    842.6169                70.4388               270.4603

                     61                     62                     63
                      A                      A                      A
 Frequencies --   1331.6910              1347.5276              1369.6385
 Red. masses --      2.0209                 2.0876                 3.9192
 Frc consts  --      2.1116                 2.2334                 4.3317
 IR Inten    --    151.8759               184.0246                12.1167

                     64                     65                     66
                      A                      A                      A
 Frequencies --   1399.6763              1435.6178              1486.8279
 Red. masses --      1.9583                 3.7739                 3.3009
 Frc consts  --      2.2604                 4.5827                 4.2994
 IR Inten    --     44.5167                45.1394                18.4944

                     67                     68                     69
                      A                      A                      A
 Frequencies --   1488.7002              1526.0063              1536.5275
 Red. masses --      1.0932                 1.3150                 2.5066
 Frc consts  --      1.4275                 1.8042                 3.4867
 IR Inten    --      2.0900                 2.6241                42.1573

                     70                     71                     72
                      A                      A                      A
 Frequencies --   1584.8593              1634.1394              1664.3154
 Red. masses --      1.7922                 5.4808                 6.1684
 Frc consts  --      2.6522                 8.6232                10.0669
 IR Inten    --     48.2208                47.2813                31.2808

                     73                     74                     75
                      A                      A                      A
 Frequencies --   1689.4229              1780.7634              1841.0561
 Red. masses --      2.4250                 9.6908                12.1209
 Frc consts  --      4.0779                18.1060                24.2058
 IR Inten    --    307.4375                29.3525               258.3270

                     76                     77                     78
                      A                      A                      A
 Frequencies --   3165.9525              3168.3946              3172.0225
 Red. masses --      1.0511                 1.0585                 1.0883
 Frc consts  --      6.2073                 6.2608                 6.4516
 IR Inten    --     12.1674                 7.2604                 1.3100

                     79                     80                     81
                      A                      A                      A
 Frequencies --   3196.4845              3212.3146              3214.8592
 Red. masses --      1.0873                 1.0934                 1.0919
 Frc consts  --      6.5453                 6.6479                 6.6489
 IR Inten    --      7.0589                11.2454                 0.5346

                     82                     83                     84
                      A                      A                      A
 Frequencies --   3217.2371              3248.1665              3256.3265
 Red. masses --      1.0911                 1.1198                 1.0934
 Frc consts  --      6.6543                 6.9608                 6.8308
 IR Inten    --      2.4144                 0.0805                 1.0916

                     85                     86                     87
                      A                      A                      A
 Frequencies --   3261.1233              3577.5059              3698.4416
 Red. masses --      1.1162                 1.0448                 1.1059
 Frc consts  --      6.9939                 7.8783                 8.9129
 IR Inten    --     11.6584               109.9856               105.2198

 - Thermochemistry -
 -------------------
 Temperature   298.150 Kelvin.  Pressure   1.00000 Atm.
 Atom     1 has atomic number  6 and mass  12.00000

 Molecular mass:   272.06195 amu.
 Principal axes and moments of inertia in atomic units:
                           1         2         3
     Eigenvalues --  2425.73867********************
           X            0.99986   0.01670   0.00072
           Y           -0.01669   0.99984  -0.00616
           Z           -0.00082   0.00615   0.99998
 This molecule is an asymmetric top.
 Rotational symmetry number  1.
 Warning -- assumption of classical behavior for rotation
           may cause significant error
 Rotational temperatures (Kelvin)      0.03571     0.00641     0.00576
 Rotational constants (GHZ):           0.74400     0.13350     0.12008
 Zero-point vibrational energy     618453.1 (Joules/Mol)
                                  147.81383 (Kcal/Mol)
 Warning -- explicit consideration of  25 degrees of freedom as
           vibrations may cause significant error
 Vibrational temperatures:     26.74    35.69    51.69    98.12   133.40
          (Kelvin)            134.28   153.11   188.04   213.35   274.60
                              297.69   320.56   377.15   421.23   452.09
                              499.96   526.03   626.85   656.19   669.09
                              720.57   740.23   762.00   787.59   857.56
                              901.99   920.02   972.50  1022.00  1050.82
                             1105.09  1113.96  1144.84  1155.57  1186.71
                             1206.79  1228.52  1284.71  1317.69  1321.07
                             1335.13  1350.40  1365.99  1410.52  1433.46
                             1469.95  1496.41  1518.54  1558.42  1564.04
                             1579.93  1621.84  1639.20  1707.96  1737.34
                             1755.03  1769.59  1823.62  1845.41  1895.14
                             1916.01  1938.79  1970.60  2013.82  2065.53
                             2139.21  2141.91  2195.58  2210.72  2280.26
                             2351.16  2394.58  2430.70  2562.12  2648.87
                             4555.10  4558.61  4563.83  4599.03  4621.80
                             4625.47  4628.89  4673.39  4685.13  4692.03
                             5147.23  5321.23

 Zero-point correction=                           0.235556 (Hartree/Particle)
 Thermal correction to Energy=                    0.252742
 Thermal correction to Enthalpy=                  0.253686
 Thermal correction to Gibbs Free Energy=         0.187502
 Sum of electronic and zero-point Energies=          -1198.608065
 Sum of electronic and thermal Energies=             -1198.590879
 Sum of electronic and thermal Enthalpies=           -1198.589935
 Sum of electronic and thermal Free Energies=        -1198.656119

                     E (Thermal)             CV                S
                      KCal/Mol        Cal/Mol-Kelvin    Cal/Mol-Kelvin
 Total                  158.598             64.334            139.297
 Electronic               0.000              0.000              0.000
 Translational            0.889              2.981             42.701
 Rotational               0.889              2.981             34.554
 Vibrational            156.821             58.372             62.041
 Vibration     1          0.593              1.986              6.780
 Vibration     2          0.593              1.985              6.207
 Vibration     3          0.594              1.982              5.472
 Vibration     4          0.598              1.969              4.205
 Vibration     5          0.602              1.954              3.602
 Vibration     6          0.602              1.954              3.589
 Vibration     7          0.605              1.944              3.333
 Vibration     8          0.612              1.923              2.936
 Vibration     9          0.618              1.905              2.694
 Vibration    10          0.634              1.852              2.220
 Vibration    11          0.641              1.830              2.071
 Vibration    12          0.648              1.806              1.936
 Vibration    13          0.669              1.742              1.648
 Vibration    14          0.688              1.687              1.458
 Vibration    15          0.702              1.647              1.340
 Vibration    16          0.725              1.580              1.178
 Vibration    17          0.739              1.543              1.098
 Vibration    18          0.796              1.392              0.840
 Vibration    19          0.814              1.347              0.778
 Vibration    20          0.822              1.328              0.752
 Vibration    21          0.856              1.248              0.656
 Vibration    22          0.870              1.218              0.623
 Vibration    23          0.885              1.184              0.588
 Vibration    24          0.903              1.145              0.550
 Vibration    25          0.954              1.040              0.457

                           ! Non-Optimized Parameters !
 Normal termination of Gaussian 16 at Sun Dec 13 12:52:46 2020.

 ----------------------------------------------------------------------
 # B3LYP/6-311++G(d,p) empiricaldispersion=gd3bj scf=xqc pop=npa geom=c
 heck
 ----------------------------------------------------------------------

 ---------------------------------------
 CID_137556664_JID_9449_Energie_neutraal
 ---------------------------------------
 Structure from the checkpoint file:  "JID_9449.chk"
 Charge =  0 Multiplicity = 1

 SCF Done:  E(RB3LYP) =  -1199.08727340     A.U. after   16 cycles
 Normal termination of Gaussian 16 at Sun Dec 13 12:59:03 2020.

 ----------------------------------------------------------------------
 # B3LYP/6-311++G(d,p) empiricaldispersion=gd3bj scf=xqc pop=npa geom=c
 heck
 ----------------------------------------------------------------------

 -------------------------------------
 CID_137556664_JID_9449_Energie_kation
 -------------------------------------
 Structure from the checkpoint file:  "JID_9449.chk"
 Charge =  1 Multiplicity = 2

 SCF Done:  E(UB3LYP) =  -1198.79645831     A.U. after   32 cycles
 Normal termination of Gaussian 16 at Sun Dec 13 13:16:59 2020.
 Gaussian 16:  ES64L-G16RevA.03 25-Dec-2016

 ----------------------------------------------------------------------
 # B3LYP/6-311++G(d,p) empiricaldispersion=gd3bj scf=xqc pop=npa geom=c
 heck
 ----------------------------------------------------------------------

 ------------------------------------
 CID_137556664_JID_9449_Energie_anion
 ------------------------------------
 Structure from the checkpoint file:  "JID_9449.chk"
 Charge = -1 Multiplicity = 2

                         Standard orientation:
 ---------------------------------------------------------------------
 Center     Atomic      Atomic             Coordinates (Angstroms)
 Number     Number       Type             X           Y           Z
 ---------------------------------------------------------------------
      1          6           0       -5.594249   -1.406042   -0.569125
      2          6           0       -4.984984   -2.154670    0.567789
      3          6           0       -5.131974   -0.642217    0.664698
      4          6           0       -3.943075    0.235616    0.602079
      5          8           0       -3.803403    1.267684    1.212497
      6          8           0       -2.991698   -0.281925   -0.254046
      7          6           0       -1.793448    0.391068   -0.453501
      8          6           0       -1.743913    1.749245   -0.769211
      9          6           0       -0.502381    2.324821   -1.037182
     10          6           0        0.665300    1.565732   -0.980423
     11          6           0        0.612225    0.201780   -0.640760
     12          6           0       -0.639529   -0.381987   -0.397312
     13          6           0        1.827164   -0.614296   -0.536688
     14          6           0        3.000065   -0.196345   -0.050485
     15          6           0        3.616890    0.970992    0.614437
     16          7           0        4.829398    0.428948    0.783299
     17          6           0        4.369075   -0.772740    0.173042
     18         16           0        5.081870   -2.203919   -0.127803
     19          7           0        3.185879    2.173041    0.990109
     20          1           0       -6.667128   -1.466920   -0.723171
     21          1           0       -5.005656   -1.281996   -1.471506
     22          1           0       -5.628251   -2.743111    1.214563
     23          1           0       -3.979793   -2.541715    0.442463
     24          1           0       -5.891573   -0.250063    1.331200
     25          1           0       -2.652826    2.334470   -0.810335
     26          1           0       -0.451310    3.373643   -1.314392
     27          1           0        1.616948    2.009673   -1.255551
     28          1           0       -0.720724   -1.434489   -0.145699
     29          1           0        1.771918   -1.655899   -0.850211
     30          1           0        3.796738    2.769868    1.532276
     31          1           0        2.212591    2.423498    0.889591
 ---------------------------------------------------------------------

 SCF Done:  E(UB3LYP) =  -1199.11785548     A.U. after   28 cycles

 The electronic state is 2-A.
 Alpha  occ. eigenvalues --  -88.66654 -19.08134 -19.02857 -14.24431 -14.15487
 Alpha  occ. eigenvalues --  -10.22252 -10.13601 -10.12766 -10.12155 -10.12124
 Alpha  occ. eigenvalues --  -10.12064 -10.10702 -10.06381 -10.05702 -10.05337
 Alpha  occ. eigenvalues --  -10.04979 -10.04865 -10.03809 -10.02817  -7.75463
 Alpha  occ. eigenvalues --   -5.71746  -5.71475  -5.70953  -1.02102  -0.94234
 Alpha  occ. eigenvalues --   -0.86777  -0.80810  -0.80192  -0.74378  -0.66707
 Alpha  occ. eigenvalues --   -0.64898  -0.61630  -0.60362  -0.59128  -0.54757
 Alpha  occ. eigenvalues --   -0.53701  -0.51464  -0.50409  -0.48986  -0.45467
 Alpha  occ. eigenvalues --   -0.44234  -0.43263  -0.42353  -0.39636  -0.38146
 Alpha  occ. eigenvalues --   -0.38000  -0.36274  -0.35578  -0.33927  -0.33507
 Alpha  occ. eigenvalues --   -0.31629  -0.31507  -0.31148  -0.30540  -0.30452
 Alpha  occ. eigenvalues --   -0.27512  -0.26922  -0.26087  -0.25077  -0.23777
 Alpha  occ. eigenvalues --   -0.23570  -0.22654  -0.21071  -0.20700  -0.19598
 Alpha  occ. eigenvalues --   -0.16582  -0.14807  -0.13867  -0.11245  -0.10756
 Alpha  occ. eigenvalues --   -0.07861   0.02359
 Alpha virt. eigenvalues --    0.05131   0.06504   0.07477   0.07675   0.07746
 Alpha virt. eigenvalues --    0.07896   0.08714   0.09572   0.10043   0.10735
 Alpha virt. eigenvalues --    0.11309   0.12014   0.12142   0.12752   0.12913

  Beta  occ. eigenvalues --  -88.66645 -19.08140 -19.02847 -14.24446 -14.14986
  Beta  occ. eigenvalues --  -10.22235 -10.13652 -10.12768 -10.12184 -10.12120
  Beta  occ. eigenvalues --  -10.12062 -10.10634 -10.06442 -10.05600 -10.05235
  Beta  occ. eigenvalues --  -10.04727 -10.04722 -10.03559 -10.02535  -7.75455
  Beta  occ. eigenvalues --   -5.71744  -5.71440  -5.70950  -1.02093  -0.94223
  Beta  occ. eigenvalues --   -0.86492  -0.80803  -0.79859  -0.74112  -0.66223
  Beta  occ. eigenvalues --   -0.64687  -0.61346  -0.60143  -0.58845  -0.54749
  Beta  occ. eigenvalues --   -0.53462  -0.51012  -0.50270  -0.48817  -0.45386
  Beta  occ. eigenvalues --   -0.44123  -0.43249  -0.42064  -0.39535  -0.38025
  Beta  occ. eigenvalues --   -0.37894  -0.36093  -0.35464  -0.33796  -0.33364
  Beta  occ. eigenvalues --   -0.31387  -0.31282  -0.31114  -0.30366  -0.29803
  Beta  occ. eigenvalues --   -0.27322  -0.26671  -0.25929  -0.24902  -0.23559
  Beta  occ. eigenvalues --   -0.23445  -0.22448  -0.20557  -0.20450  -0.19540
  Beta  occ. eigenvalues --   -0.15143  -0.14152  -0.13261  -0.10642  -0.08646
  Beta  occ. eigenvalues --   -0.07751
  Beta virt. eigenvalues --    0.05114   0.06527   0.07436   0.07678   0.07724
  Beta virt. eigenvalues --    0.08033   0.08479   0.08708   0.09538   0.10262
  Beta virt. eigenvalues --    0.10833   0.11374   0.12000   0.12468   0.12789

 Mulliken charges and spin densities:
               1          2
     1  C   -0.382510  -0.001072
     2  C   -0.332248   0.001374
     3  C   -0.028594   0.002975
     4  C   -0.018310   0.005771
     5  O   -0.221689   0.002671
     6  O   -0.026496   0.002062
     7  C   -0.442270   0.005210
     8  C   -0.076699   0.197979
     9  C   -0.570638  -0.047882
    10  C   -0.864137   0.131977
    11  C    1.512919   0.043086
    12  C   -0.007358   0.066262
    13  C   -1.012121   0.176459
    14  C    0.809231   0.156461
    15  C    0.166943  -0.045611
    16  N   -0.221968   0.258445
    17  C   -0.276324   0.032556
    18  S   -0.835410   0.039058
    19  N   -0.359275  -0.013995
    20  H    0.150876   0.002510
    21  H    0.178055   0.002075
    22  H    0.146049   0.000350
    23  H    0.164130   0.000063
    24  H    0.243005  -0.000051
    25  H    0.142764  -0.015447
    26  H    0.144888   0.003544
    27  H    0.162176  -0.007102
    28  H    0.146630   0.001778
    29  H    0.133644  -0.009153
    30  H    0.264918   0.000741
    31  H    0.309820   0.006904
 Sum of Mulliken charges =  -1.00000   1.00000

 Dipole moment (field-independent basis, Debye):
    X=            -13.9457    Y=              2.5928    Z=              0.2035  Tot=             14.1861
 Quadrupole moment (field-independent basis, Debye-Ang):
   XX=           -211.9444   YY=           -129.7186   ZZ=           -129.6697
   XY=             35.1652   XZ=              0.3985   YZ=             -0.8341

 Summary of Natural Population Analysis:

                                       Natural Population
                Natural  -----------------------------------------------
    Atom  No    Charge         Core      Valence    Rydberg      Total
 -----------------------------------------------------------------------
      C    1   -0.18856      0.99964     2.18233    0.00659     3.18856
      C    2   -0.18795      0.99964     2.18170    0.00661     3.18795
      C    3   -0.15945      0.99955     2.15064    0.00926     3.15945
      C    4    0.40464      0.99963     1.57128    0.02445     2.59536
      O    5   -0.29274      0.99987     3.28679    0.00609     4.29274
      O    6   -0.28636      0.99984     3.27707    0.00945     4.28636
      C    7    0.13591      0.99935     1.85331    0.01143     2.86409
      C    8   -0.07966      0.99952     2.07161    0.00853     3.07966
      C    9   -0.11430      0.99958     2.10569    0.00903     3.11430
      C   10   -0.09143      0.99953     2.08349    0.00841     3.09143
      C   11   -0.00703      0.99952     1.99896    0.00855     3.00703
      C   12   -0.08743      0.99948     2.08019    0.00777     3.08743
      C   13   -0.03955      0.99947     2.03177    0.00831     3.03955
      C   14   -0.03078      0.99940     2.01760    0.01378     3.03078
      C   15    0.21542      0.99956     1.76384    0.02118     2.78458
      N   16   -0.20492      0.99970     2.68786    0.01736     3.70492
      C   17    0.04948      0.99962     1.93052    0.02038     2.95052
      S   18   -0.08260      4.99943     3.06753    0.01564     8.08260
      N   19   -0.38279      0.99966     2.87630    0.00683     3.88279
      H   20    0.10035      0.00000     0.39871    0.00093     0.39965
      H   21    0.11304      0.00000     0.38603    0.00093     0.38696
      H   22    0.10081      0.00000     0.39827    0.00092     0.39919
      H   23    0.11369      0.00000     0.38537    0.00094     0.38631
      H   24    0.11194      0.00000     0.38708    0.00098     0.38806
      H   25    0.09989      0.00000     0.39876    0.00135     0.40011
      H   26    0.09365      0.00000     0.40534    0.00101     0.40635
      H   27    0.09860      0.00000     0.39996    0.00144     0.40140
      H   28    0.09960      0.00000     0.39903    0.00137     0.40040
      H   29    0.10088      0.00000     0.39767    0.00144     0.39912
      H   30    0.19221      0.00000     0.30567    0.00212     0.30779
      H   31    0.20548      0.00000     0.29329    0.00124     0.29452
 =======================================================================
   * Total *    0.00000     22.99199    47.77368    0.23433    71.00000

 Normal termination of Gaussian 16 at Sun Dec 13 13:32:20 2020.
