 Gaussian 16, Revision A.03,

 -----------------------------------------------------------
 # opt freq B3LYP/6-31G(d) empiricaldispersion=gd3bj scf=xqc
 -----------------------------------------------------------

 -------------------------------
 CID_117319998_JID_6733_neutraal
 -------------------------------
 Symbolic Z-matrix:
 Charge =  0 Multiplicity = 1

 SCF Done:  E(RB3LYP) =  -747.945918258     A.U. after   15 cycles
 SCF Done:  E(RB3LYP) =  -747.952397577     A.U. after   13 cycles
 SCF Done:  E(RB3LYP) =  -747.953741036     A.U. after   13 cycles
 SCF Done:  E(RB3LYP) =  -747.953662075     A.U. after   11 cycles
 SCF Done:  E(RB3LYP) =  -747.953791409     A.U. after   13 cycles
 SCF Done:  E(RB3LYP) =  -747.954219609     A.U. after   13 cycles
 SCF Done:  E(RB3LYP) =  -747.953937062     A.U. after   12 cycles
 SCF Done:  E(RB3LYP) =  -747.954243707     A.U. after   12 cycles
 SCF Done:  E(RB3LYP) =  -747.954290465     A.U. after   11 cycles
 SCF Done:  E(RB3LYP) =  -747.954342814     A.U. after   11 cycles
 SCF Done:  E(RB3LYP) =  -747.954647833     A.U. after   10 cycles
 SCF Done:  E(RB3LYP) =  -747.954650063     A.U. after    9 cycles
 SCF Done:  E(RB3LYP) =  -747.954650647     A.U. after    8 cycles
 SCF Done:  E(RB3LYP) =  -747.954650750     A.U. after    8 cycles
 SCF Done:  E(RB3LYP) =  -747.954650817     A.U. after    7 cycles
 SCF Done:  E(RB3LYP) =  -747.954650853     A.U. after    7 cycles
 Optimization completed.
    -- Stationary point found.
 Normal termination of Gaussian 16 at Thu Dec 10 23:33:05 2020.

 --------------------------------------------------------------------
 #N Geom=AllCheck Guess=TCheck SCRF=Check GenChk RB3LYP/6-31G(d) Freq
 --------------------------------------------------------------------

 Structure from the checkpoint file:  "JID_6733.chk"
 -------------------------------
 CID_117319998_JID_6733_neutraal
 -------------------------------
 Charge =  0 Multiplicity = 1

 SCF Done:  E(RB3LYP) =  -747.954650854     A.U. after    1 cycles

  Exact polarizability: 191.113   2.632 152.574  -0.187   2.856  89.132
 Approx polarizability: 281.319  -4.686 240.415   1.457   6.410 131.052

                      1                      2                      3
                      A                      A                      A
 Frequencies --     47.5911                70.0226                76.0179
 Red. masses --      4.0834                 3.3162                 3.7443
 Frc consts  --      0.0054                 0.0096                 0.0127
 IR Inten    --      0.8960                 0.7788                 1.9221

                      4                      5                      6
                      A                      A                      A
 Frequencies --    105.5158               123.7397               135.6249
 Red. masses --      3.2661                 1.2486                 2.2682
 Frc consts  --      0.0214                 0.0113                 0.0246
 IR Inten    --      2.5302                 0.6919                 4.6505

                      7                      8                      9
                      A                      A                      A
 Frequencies --    151.8283               163.7576               181.2311
 Red. masses --      1.0979                 2.7897                 3.0564
 Frc consts  --      0.0149                 0.0441                 0.0591
 IR Inten    --      0.2687                 2.6182                 1.0612

                     10                     11                     12
                      A                      A                      A
 Frequencies --    185.0918               221.9649               236.9921
 Red. masses --      5.6225                 2.0240                 2.3004
 Frc consts  --      0.1135                 0.0588                 0.0761
 IR Inten    --      7.7211                 3.8186                 9.7579

                     13                     14                     15
                      A                      A                      A
 Frequencies --    251.8145               274.9107               280.2168
 Red. masses --      1.4965                 1.5791                 2.1820
 Frc consts  --      0.0559                 0.0703                 0.1009
 IR Inten    --      7.7871                 0.1935                 3.2488

                     16                     17                     18
                      A                      A                      A
 Frequencies --    308.2542               315.6216               348.6613
 Red. masses --      4.1472                 1.1695                 3.1772
 Frc consts  --      0.2322                 0.0686                 0.2276
 IR Inten    --      5.4389                38.1367                 2.6319

                     19                     20                     21
                      A                      A                      A
 Frequencies --    351.1904               359.9601               405.9077
 Red. masses --      4.4119                 3.4633                 3.3274
 Frc consts  --      0.3206                 0.2644                 0.3230
 IR Inten    --      3.9211                11.4542                 0.4235

                     22                     23                     24
                      A                      A                      A
 Frequencies --    420.3240               449.8989               488.9470
 Red. masses --      3.2056                 4.0627                 3.7981
 Frc consts  --      0.3337                 0.4845                 0.5350
 IR Inten    --      3.2526                 3.9088                 3.0574

                     25                     26                     27
                      A                      A                      A
 Frequencies --    527.5945               558.7959               601.6159
 Red. masses --      3.8166                 4.9153                 3.6616
 Frc consts  --      0.6259                 0.9043                 0.7808
 IR Inten    --      1.7468                23.9494                 6.5640

                     28                     29                     30
                      A                      A                      A
 Frequencies --    620.9721               648.5103               687.5271
 Red. masses --      5.4780                 5.6873                 5.0742
 Frc consts  --      1.2446                 1.4093                 1.4132
 IR Inten    --     10.5763                 6.2434                 7.1399

                     31                     32                     33
                      A                      A                      A
 Frequencies --    764.1645               797.6078               837.2521
 Red. masses --      5.6639                 6.6277                 3.6705
 Frc consts  --      1.9487                 2.4842                 1.5160
 IR Inten    --     42.1738                 3.1748                23.2363

                     34                     35                     36
                      A                      A                      A
 Frequencies --    847.2324               915.3926               942.3666
 Red. masses --      1.3735                 3.7259                 1.4907
 Frc consts  --      0.5809                 1.8395                 0.7800
 IR Inten    --     21.4110                16.9617                25.9649

                     37                     38                     39
                      A                      A                      A
 Frequencies --    949.6872               977.0471               984.0902
 Red. masses --      1.6351                 1.4358                 1.4006
 Frc consts  --      0.8689                 0.8076                 0.7992
 IR Inten    --     60.5797                 0.3739                12.0114

                     40                     41                     42
                      A                      A                      A
 Frequencies --    996.4927              1023.5295              1046.4468
 Red. masses --      5.2262                 1.8191                 1.3261
 Frc consts  --      3.0576                 1.1228                 0.8556
 IR Inten    --     26.7446                 0.5079                14.6280

                     43                     44                     45
                      A                      A                      A
 Frequencies --   1060.8565              1090.7408              1114.4785
 Red. masses --      6.9947                 3.2592                 1.8482
 Frc consts  --      4.6380                 2.2845                 1.3525
 IR Inten    --    103.0355                82.6402                 9.6474

                     46                     47                     48
                      A                      A                      A
 Frequencies --   1179.6729              1180.9431              1184.0597
 Red. masses --      1.7121                 1.2513                 1.2758
 Frc consts  --      1.4038                 1.0282                 1.0538
 IR Inten    --     14.8504                 1.4476                 9.0412

                     49                     50                     51
                      A                      A                      A
 Frequencies --   1218.1284              1219.6470              1226.3462
 Red. masses --      1.4959                 1.5114                 1.7737
 Frc consts  --      1.3078                 1.3246                 1.5717
 IR Inten    --      7.4778                 9.1285                16.2296

                     52                     53                     54
                      A                      A                      A
 Frequencies --   1249.6916              1264.3440              1277.5946
 Red. masses --      2.0909                 2.7341                 3.8707
 Frc consts  --      1.9239                 2.5751                 3.7224
 IR Inten    --      3.4486                34.9198               168.8382

                     55                     56                     57
                      A                      A                      A
 Frequencies --   1284.1493              1343.6403              1365.0783
 Red. masses --      3.2143                 8.7343                 2.0594
 Frc consts  --      3.1230                 9.2906                 2.2611
 IR Inten    --     75.2776                12.3382                34.7817

                     58                     59                     60
                      A                      A                      A
 Frequencies --   1416.8250              1431.9036              1437.7960
 Red. masses --      1.2400                 1.9099                 1.2614
 Frc consts  --      1.4666                 2.3072                 1.5363
 IR Inten    --      9.0903               142.2760                 8.4430

                     61                     62                     63
                      A                      A                      A
 Frequencies --   1465.9757              1488.1330              1497.6132
 Red. masses --      1.4748                 1.3739                 1.3637
 Frc consts  --      1.8675                 1.7927                 1.8020
 IR Inten    --     25.1057                 2.4623                44.2903

                     64                     65                     66
                      A                      A                      A
 Frequencies --   1508.4653              1512.2690              1517.7905
 Red. masses --      1.0575                 1.1258                 1.0553
 Frc consts  --      1.4178                 1.5169                 1.4323
 IR Inten    --      3.0717                 4.5488                 5.7452

                     67                     68                     69
                      A                      A                      A
 Frequencies --   1522.5523              1528.0949              1529.4189
 Red. masses --      1.5472                 1.1547                 1.0841
 Frc consts  --      2.1133                 1.5887                 1.4940
 IR Inten    --     11.1408                 0.0738                 3.0989

                     70                     71                     72
                      A                      A                      A
 Frequencies --   1532.2582              1547.4095              1553.8497
 Red. masses --      1.1660                 1.0626                 1.0608
 Frc consts  --      1.6129                 1.4990                 1.5091
 IR Inten    --      0.6325                 4.2374                 4.1079

                     73                     74                     75
                      A                      A                      A
 Frequencies --   1609.8901              1648.8949              1696.0981
 Red. masses --      5.9430                 6.8121                 1.0905
 Frc consts  --      9.0750                10.9123                 1.8483
 IR Inten    --     14.8640                79.1219                43.8124

                     76                     77                     78
                      A                      A                      A
 Frequencies --   1798.3020              2891.4411              3043.2549
 Red. masses --      9.9168                 1.0826                 1.0400
 Frc consts  --     18.8951                 5.3325                 5.6752
 IR Inten    --    294.4088               155.5843                31.4415

                     79                     80                     81
                      A                      A                      A
 Frequencies --   3048.5818              3049.7906              3052.5774
 Red. masses --      1.0391                 1.0341                 1.0457
 Frc consts  --      5.6901                 5.6667                 5.7412
 IR Inten    --     55.0260                46.5778                48.7234

                     82                     83                     84
                      A                      A                      A
 Frequencies --   3103.3578              3124.4610              3131.4058
 Red. masses --      1.1023                 1.0942                 1.1023
 Frc consts  --      6.2549                 6.2933                 6.3683
 IR Inten    --     38.7149                24.9159                23.0909

                     85                     86                     87
                      A                      A                      A
 Frequencies --   3135.1184              3163.8963              3167.2116
 Red. masses --      1.0944                 1.1055                 1.0970
 Frc consts  --      6.3378                 6.5202                 6.4838
 IR Inten    --     36.4802                23.4174                 5.6744

                     88                     89                     90
                      A                      A                      A
 Frequencies --   3171.3735              3181.6015              3185.0901
 Red. masses --      1.1073                 1.0894                 1.0977
 Frc consts  --      6.5617                 6.4974                 6.5609
 IR Inten    --      9.2459                12.0287                11.7696

                     91                     92                     93
                      A                      A                      A
 Frequencies --   3242.9833              3449.9426              3536.8487
 Red. masses --      1.0908                 1.0508                 1.0909
 Frc consts  --      6.7590                 7.3687                 8.0399
 IR Inten    --      2.1506                 1.2899                 1.5120

 - Thermochemistry -
 -------------------
 Temperature   298.150 Kelvin.  Pressure   1.00000 Atm.
 Atom     1 has atomic number  6 and mass  12.00000

 Molecular mass:   223.12084 amu.
 Principal axes and moments of inertia in atomic units:
                           1         2         3
     Eigenvalues --  2023.465424643.552125929.13711
           X            0.99997  -0.00600  -0.00378
           Y            0.00598   0.99997  -0.00521
           Z            0.00381   0.00519   0.99998
 This molecule is an asymmetric top.
 Rotational symmetry number  1.
 Warning -- assumption of classical behavior for rotation
           may cause significant error
 Rotational temperatures (Kelvin)      0.04280     0.01865     0.01461
 Rotational constants (GHZ):           0.89191     0.38866     0.30439
 Zero-point vibrational energy     728904.2 (Joules/Mol)
                                  174.21227 (Kcal/Mol)
 Warning -- explicit consideration of  27 degrees of freedom as
           vibrations may cause significant error
 Vibrational temperatures:     68.47   100.75   109.37   151.81   178.03
          (Kelvin)            195.13   218.45   235.61   260.75   266.31
                              319.36   340.98   362.30   395.54   403.17
                              443.51   454.11   501.65   505.28   517.90
                              584.01   604.75   647.30   703.49   759.09
                              803.98   865.59   893.44   933.06   989.20
                             1099.46  1147.58  1204.62  1218.98  1317.05
                             1355.86  1366.39  1405.75  1415.89  1433.73
                             1472.63  1505.60  1526.34  1569.33  1603.49
                             1697.29  1699.11  1703.60  1752.62  1754.80
                             1764.44  1798.03  1819.11  1838.17  1847.60
                             1933.20  1964.04  2038.50  2060.19  2068.67
                             2109.21  2141.09  2154.73  2170.35  2175.82
                             2183.76  2190.61  2198.59  2200.49  2204.58
                             2226.38  2235.64  2316.27  2372.39  2440.31
                             2587.36  4160.14  4378.57  4386.23  4387.97
                             4391.98  4465.04  4495.40  4505.39  4510.74
                             4552.14  4556.91  4562.90  4577.61  4582.63
                             4665.93  4963.70  5088.74

 Zero-point correction=                           0.277625 (Hartree/Particle)
 Thermal correction to Energy=                    0.294685
 Thermal correction to Enthalpy=                  0.295630
 Thermal correction to Gibbs Free Energy=         0.233991
 Sum of electronic and zero-point Energies=           -747.677026
 Sum of electronic and thermal Energies=              -747.659965
 Sum of electronic and thermal Enthalpies=            -747.659021
 Sum of electronic and thermal Free Energies=         -747.720660

                     E (Thermal)             CV                S
                      KCal/Mol        Cal/Mol-Kelvin    Cal/Mol-Kelvin
 Total                  184.918             63.647            129.730
 Electronic               0.000              0.000              0.000
 Translational            0.889              2.981             42.110
 Rotational               0.889              2.981             32.388
 Vibrational            183.140             57.685             55.231
 Vibration     1          0.595              1.978              4.915
 Vibration     2          0.598              1.968              4.153
 Vibration     3          0.599              1.965              3.991
 Vibration     4          0.605              1.945              3.350
 Vibration     5          0.610              1.929              3.041
 Vibration     6          0.613              1.918              2.865
 Vibration     7          0.619              1.901              2.649
 Vibration     8          0.623              1.887              2.506
 Vibration     9          0.630              1.865              2.316
 Vibration    10          0.631              1.860              2.276
 Vibration    11          0.648              1.808              1.943
 Vibration    12          0.656              1.784              1.825
 Vibration    13          0.664              1.760              1.718
 Vibration    14          0.677              1.720              1.565
 Vibration    15          0.680              1.710              1.532
 Vibration    16          0.698              1.658              1.372
 Vibration    17          0.703              1.644              1.333
 Vibration    18          0.726              1.578              1.172
 Vibration    19          0.728              1.573              1.161
 Vibration    20          0.734              1.555              1.122
 Vibration    21          0.771              1.457              0.941
 Vibration    22          0.783              1.426              0.891
 Vibration    23          0.809              1.361              0.796
 Vibration    24          0.845              1.275              0.686
 Vibration    25          0.883              1.189              0.593
 Vibration    26          0.914              1.120              0.526
 Vibration    27          0.960              1.028              0.447

 Optimization completed.
    -- Stationary point found.
 Normal termination of Gaussian 16 at Thu Dec 10 23:44:13 2020.

 ----------------------------------------------------------------------
 # B3LYP/6-311++G(d,p) empiricaldispersion=gd3bj scf=xqc pop=npa geom=c
 heck
 ----------------------------------------------------------------------

 ---------------------------------------
 CID_117319998_JID_6733_Energie_neutraal
 ---------------------------------------
 Structure from the checkpoint file:  "JID_6733.chk"
 Charge =  0 Multiplicity = 1

 SCF Done:  E(RB3LYP) =  -748.170178167     A.U. after   16 cycles
 Normal termination of Gaussian 16 at Thu Dec 10 23:49:13 2020.

 ----------------------------------------------------------------------
 # B3LYP/6-311++G(d,p) empiricaldispersion=gd3bj scf=xqc pop=npa geom=c
 heck
 ----------------------------------------------------------------------

 -------------------------------------
 CID_117319998_JID_6733_Energie_kation
 -------------------------------------
 Structure from the checkpoint file:  "JID_6733.chk"
 Charge =  1 Multiplicity = 2

 SCF Done:  E(UB3LYP) =  -747.863057639     A.U. after   31 cycles
 Normal termination of Gaussian 16 at Fri Dec 11 00:02:08 2020.
 Gaussian 16:  ES64L-G16RevA.03 25-Dec-2016

 ----------------------------------------------------------------------
 # B3LYP/6-311++G(d,p) empiricaldispersion=gd3bj scf=xqc pop=npa geom=c
 heck
 ----------------------------------------------------------------------

 ------------------------------------
 CID_117319998_JID_6733_Energie_anion
 ------------------------------------
 Structure from the checkpoint file:  "JID_6733.chk"
 Charge = -1 Multiplicity = 2

                         Standard orientation:
 ---------------------------------------------------------------------
 Center     Atomic      Atomic             Coordinates (Angstroms)
 Number     Number       Type             X           Y           Z
 ---------------------------------------------------------------------
      1          6           0        3.134789    0.427434   -1.065637
      2          6           0        2.580551   -0.324911    0.156721
      3          6           0        2.832934    0.483459    1.449066
      4          6           0        1.076280   -0.591447   -0.017956
      5          6           0        0.128106    0.453364   -0.043939
      6          6           0       -1.248737    0.178011   -0.109150
      7          6           0       -1.702829   -1.151672   -0.207323
      8          6           0       -0.752276   -2.178570   -0.250680
      9          6           0        0.604183   -1.905160   -0.142117
     10          6           0       -3.128539   -1.532930   -0.262738
     11          8           0       -4.089258   -0.817319   -0.051891
     12          8           0       -2.123698    1.230129   -0.126158
     13          6           0       -2.613139    1.614757    1.163435
     14          8           0        0.548483    1.760890    0.058360
     15          6           0        0.256840    2.604856   -1.064429
     16          7           0        3.288756   -1.621792    0.206418
     17          1           0        2.671066    1.408688   -1.164729
     18          1           0        2.960670   -0.151300   -1.977311
     19          1           0        4.216180    0.576668   -0.952190
     20          1           0        2.337534    1.455216    1.427648
     21          1           0        2.464553   -0.072150    2.319942
     22          1           0        3.911423    0.638959    1.575912
     23          1           0       -1.092264   -3.206462   -0.353456
     24          1           0        1.329570   -2.707655   -0.181383
     25          1           0       -3.276942   -2.608449   -0.512381
     26          1           0       -3.245931    2.488193    0.995636
     27          1           0       -3.213294    0.811037    1.598506
     28          1           0       -1.781111    1.881491    1.825752
     29          1           0        0.743157    3.558972   -0.850390
     30          1           0        0.677552    2.179553   -1.983826
     31          1           0       -0.818759    2.745364   -1.181827
     32          1           0        4.290224   -1.433452    0.186182
     33          1           0        3.111890   -2.064879    1.108985
 ---------------------------------------------------------------------

 SCF Done:  E(UB3LYP) =  -748.180226544     A.U. after   31 cycles

 The electronic state is 2-A.
 Alpha  occ. eigenvalues --  -19.01567 -18.99260 -18.91001 -14.18811 -10.10169
 Alpha  occ. eigenvalues --  -10.09832 -10.08102 -10.08026 -10.06629 -10.05057
 Alpha  occ. eigenvalues --  -10.04885 -10.04625 -10.02254 -10.01733 -10.01663
 Alpha  occ. eigenvalues --  -10.00764  -0.93416  -0.90534  -0.84876  -0.79009
 Alpha  occ. eigenvalues --   -0.70168  -0.64930  -0.61501  -0.60450  -0.58060
 Alpha  occ. eigenvalues --   -0.57287  -0.53885  -0.50244  -0.45501  -0.44032
 Alpha  occ. eigenvalues --   -0.41801  -0.39140  -0.37816  -0.36900  -0.34681
 Alpha  occ. eigenvalues --   -0.34266  -0.33334  -0.32521  -0.32006  -0.31139
 Alpha  occ. eigenvalues --   -0.30177  -0.29577  -0.29315  -0.28071  -0.26729
 Alpha  occ. eigenvalues --   -0.26089  -0.25340  -0.24514  -0.23237  -0.22943
 Alpha  occ. eigenvalues --   -0.22687  -0.20854  -0.20427  -0.18947  -0.16591
 Alpha  occ. eigenvalues --   -0.14116  -0.13086  -0.10191  -0.09433  -0.06995
 Alpha  occ. eigenvalues --    0.05062
 Alpha virt. eigenvalues --    0.06990   0.08556   0.09313   0.09784   0.10454
 Alpha virt. eigenvalues --    0.10827   0.11400   0.11803   0.12589   0.13114
 Alpha virt. eigenvalues --    0.13479   0.13668   0.13954   0.14830   0.15182

  Beta  occ. eigenvalues --  -19.01574 -18.99254 -18.90375 -14.18811 -10.10177
  Beta  occ. eigenvalues --  -10.09861 -10.08210 -10.07988 -10.06362 -10.05025
  Beta  occ. eigenvalues --  -10.04598 -10.04571 -10.01861 -10.01756 -10.01531
  Beta  occ. eigenvalues --  -10.00657  -0.93406  -0.90455  -0.83751  -0.78966
  Beta  occ. eigenvalues --   -0.69829  -0.64761  -0.61367  -0.60079  -0.57984
  Beta  occ. eigenvalues --   -0.57043  -0.53742  -0.49671  -0.45332  -0.43791
  Beta  occ. eigenvalues --   -0.41369  -0.38991  -0.37765  -0.36781  -0.34637
  Beta  occ. eigenvalues --   -0.34096  -0.33270  -0.32412  -0.31865  -0.31038
  Beta  occ. eigenvalues --   -0.30011  -0.29410  -0.29142  -0.28023  -0.26455
  Beta  occ. eigenvalues --   -0.26024  -0.25088  -0.24183  -0.23045  -0.22445
  Beta  occ. eigenvalues --   -0.21861  -0.20396  -0.19538  -0.17734  -0.16134
  Beta  occ. eigenvalues --   -0.14069  -0.13012  -0.08626  -0.08270  -0.06456
  Beta virt. eigenvalues --    0.06927   0.08470   0.09274   0.09703   0.10220
  Beta virt. eigenvalues --    0.10761   0.11306   0.11721   0.11998   0.12716
  Beta virt. eigenvalues --    0.13081   0.13434   0.13825   0.14008   0.14811

 Mulliken charges and spin densities:
               1          2
     1  C   -0.575861  -0.056957
     2  C    0.582904  -0.015561
     3  C   -0.585432  -0.016791
     4  C    0.701671   0.284421
     5  C    0.073212  -0.041263
     6  C   -1.496171   0.212231
     7  C    1.410546   0.058222
     8  C   -0.931699   0.097397
     9  C   -0.863250   0.005612
    10  C   -0.111524   0.220098
    11  O   -0.412395   0.211500
    12  O   -0.091196  -0.001991
    13  C   -0.206486  -0.065316
    14  O   -0.140209   0.002484
    15  C   -0.204739  -0.001364
    16  N   -0.360485   0.003705
    17  H    0.106399   0.006726
    18  H    0.165121   0.003371
    19  H    0.077616   0.031722
    20  H    0.184102   0.000881
    21  H    0.112608   0.004092
    22  H    0.106288   0.014066
    23  H    0.092724  -0.003835
    24  H    0.144620   0.000655
    25  H    0.032451  -0.021140
    26  H    0.087676   0.021521
    27  H    0.146707   0.027853
    28  H    0.118411   0.012179
    29  H    0.117449  -0.001222
    30  H    0.097203   0.000640
    31  H    0.183053   0.007586
    32  H    0.227685  -0.000680
    33  H    0.211003  -0.000840
 Sum of Mulliken charges =  -1.00000   1.00000

 Dipole moment (field-independent basis, Debye):
    X=              8.2697    Y=              3.2695    Z=              1.1783  Tot=              8.9703
 Quadrupole moment (field-independent basis, Debye-Ang):
   XX=           -151.3378   YY=           -110.7218   ZZ=           -105.3117
   XY=             -6.9523   XZ=             -0.4137   YZ=             -3.9213

 Summary of Natural Population Analysis:

                                       Natural Population
                Natural  -----------------------------------------------
    Atom  No    Charge         Core      Valence    Rydberg      Total
 -----------------------------------------------------------------------
      C    1   -0.27992      0.99962     2.27460    0.00569     3.27992
      C    2    0.04507      0.99958     1.94197    0.01339     2.95493
      C    3   -0.28776      0.99963     2.28288    0.00525     3.28776
      C    4    0.03689      0.99944     1.95321    0.01046     2.96311
      C    5    0.10603      0.99930     1.88103    0.01364     2.89397
      C    6    0.19653      0.99930     1.79051    0.01366     2.80347
      C    7   -0.07029      0.99945     2.06231    0.00853     3.07029
      C    8   -0.05780      0.99955     2.04931    0.00894     3.05780
      C    9   -0.12895      0.99953     2.12079    0.00863     3.12895
      C   10    0.24146      0.99970     1.73758    0.02127     2.75854
      O   11   -0.23704      0.99988     3.22912    0.00804     4.23704
      O   12   -0.29318      0.99986     3.28220    0.01112     4.29318
      C   13   -0.09266      0.99959     2.08497    0.00809     3.09266
      O   14   -0.30185      0.99986     3.29124    0.01075     4.30185
      C   15   -0.10111      0.99959     2.09401    0.00751     3.10111
      N   16   -0.42146      0.99976     2.91207    0.00963     3.92146
      H   17    0.10384      0.00000     0.39524    0.00092     0.39616
      H   18    0.10367      0.00000     0.39553    0.00079     0.39633
      H   19    0.08614      0.00000     0.41288    0.00098     0.41386
      H   20    0.11198      0.00000     0.38704    0.00098     0.38802
      H   21    0.09639      0.00000     0.40281    0.00080     0.40361
      H   22    0.08619      0.00000     0.41282    0.00099     0.41381
      H   23    0.08854      0.00000     0.40935    0.00211     0.41146
      H   24    0.10173      0.00000     0.39705    0.00122     0.39827
      H   25    0.02393      0.00000     0.47278    0.00329     0.47607
      H   26    0.07972      0.00000     0.41883    0.00144     0.42028
      H   27    0.09431      0.00000     0.40332    0.00237     0.40569
      H   28    0.07520      0.00000     0.42299    0.00180     0.42480
      H   29    0.07988      0.00000     0.41926    0.00086     0.42012
      H   30    0.07834      0.00000     0.42040    0.00126     0.42166
      H   31    0.09719      0.00000     0.40134    0.00147     0.40281
      H   32    0.16702      0.00000     0.33143    0.00156     0.33298
      H   33    0.17195      0.00000     0.32661    0.00144     0.32805
 =======================================================================
   * Total *   -0.00000     15.99364    43.81748    0.18887    60.00000

 Normal termination of Gaussian 16 at Fri Dec 11 00:15:17 2020.
