 Gaussian 16, Revision A.03,

 -----------------------------------------------------------
 # opt freq B3LYP/6-31G(d) empiricaldispersion=gd3bj scf=xqc
 -----------------------------------------------------------

 -------------------------------
 CID_118117854_JID_9689_neutraal
 -------------------------------
 Symbolic Z-matrix:
 Charge =  0 Multiplicity = 1

 SCF Done:  E(RB3LYP) =  -873.290222397     A.U. after   15 cycles
 SCF Done:  E(RB3LYP) =  -873.294484653     A.U. after   13 cycles
 SCF Done:  E(RB3LYP) =  -873.295141272     A.U. after   11 cycles
 SCF Done:  E(RB3LYP) =  -873.295338000     A.U. after   11 cycles
 SCF Done:  E(RB3LYP) =  -873.295387274     A.U. after   11 cycles
 SCF Done:  E(RB3LYP) =  -873.295397232     A.U. after   10 cycles
 SCF Done:  E(RB3LYP) =  -873.295404297     A.U. after    9 cycles
 SCF Done:  E(RB3LYP) =  -873.295406579     A.U. after    9 cycles
 SCF Done:  E(RB3LYP) =  -873.295407676     A.U. after    8 cycles
 SCF Done:  E(RB3LYP) =  -873.295409097     A.U. after    9 cycles
 SCF Done:  E(RB3LYP) =  -873.296059111     A.U. after   12 cycles
 SCF Done:  E(RB3LYP) =  -873.296066201     A.U. after   10 cycles
 SCF Done:  E(RB3LYP) =  -873.296071555     A.U. after   10 cycles
 SCF Done:  E(RB3LYP) =  -873.296074123     A.U. after   10 cycles
 SCF Done:  E(RB3LYP) =  -873.296074254     A.U. after    8 cycles
 Optimization completed.
    -- Stationary point found.
 Normal termination of Gaussian 16 at Sun Dec 13 20:50:08 2020.

 --------------------------------------------------------------------
 #N Geom=AllCheck Guess=TCheck SCRF=Check GenChk RB3LYP/6-31G(d) Freq
 --------------------------------------------------------------------

 Structure from the checkpoint file:  "JID_9689.chk"
 -------------------------------
 CID_118117854_JID_9689_neutraal
 -------------------------------
 Charge =  0 Multiplicity = 1

 SCF Done:  E(RB3LYP) =  -873.296074254     A.U. after    1 cycles

  Exact polarizability: 221.992   8.363 177.874 -10.980   6.933  88.339
 Approx polarizability: 310.229   9.372 294.530 -20.970  16.434 141.570

                      1                      2                      3
                      A                      A                      A
 Frequencies --     23.6857                27.8853                42.8785
 Red. masses --      6.3690                 5.5116                 5.7152
 Frc consts  --      0.0021                 0.0025                 0.0062
 IR Inten    --      0.1141                 2.0545                 4.6686

                      4                      5                      6
                      A                      A                      A
 Frequencies --     61.7486                95.0375               101.6116
 Red. masses --      6.0153                 5.5028                 4.1323
 Frc consts  --      0.0135                 0.0293                 0.0251
 IR Inten    --      4.7540                 0.2828                 3.1992

                      7                      8                      9
                      A                      A                      A
 Frequencies --    114.3508               152.3982               222.2582
 Red. masses --      5.4089                 3.4111                 4.2797
 Frc consts  --      0.0417                 0.0467                 0.1246
 IR Inten    --      0.4187                 2.2950                 1.5207

                     10                     11                     12
                      A                      A                      A
 Frequencies --    262.1751               291.1936               329.9639
 Red. masses --      5.4636                 4.5675                 3.9500
 Frc consts  --      0.2213                 0.2282                 0.2534
 IR Inten    --      0.9362                 2.1277                 8.5609

                     13                     14                     15
                      A                      A                      A
 Frequencies --    346.1950               369.5054               417.7860
 Red. masses --      2.8614                 6.1576                 2.5366
 Frc consts  --      0.2021                 0.4953                 0.2609
 IR Inten    --      0.4422                 0.8452                 3.1887

                     16                     17                     18
                      A                      A                      A
 Frequencies --    427.4212               462.5858               480.5745
 Red. masses --      5.6707                 3.2451                 3.9768
 Frc consts  --      0.6104                 0.4091                 0.5411
 IR Inten    --     24.4912                 4.2713                 6.6563

                     19                     20                     21
                      A                      A                      A
 Frequencies --    485.0986               516.9784               558.8459
 Red. masses --      1.8470                 3.6995                 3.4369
 Frc consts  --      0.2561                 0.5826                 0.6324
 IR Inten    --     12.0187                 5.8913                 6.8370

                     22                     23                     24
                      A                      A                      A
 Frequencies --    577.6213               630.7668               646.7758
 Red. masses --      4.3410                 4.9639                 1.8386
 Frc consts  --      0.8533                 1.1636                 0.4531
 IR Inten    --     10.2574                 1.5185                90.1208

                     25                     26                     27
                      A                      A                      A
 Frequencies --    659.3778               697.9905               707.6725
 Red. masses --      4.2472                 5.2617                 5.7939
 Frc consts  --      1.0880                 1.5103                 1.7096
 IR Inten    --      2.9808                 7.6516                 2.6695

                     28                     29                     30
                      A                      A                      A
 Frequencies --    717.1528               762.4784               771.4674
 Red. masses --      3.2011                 2.9422                 1.2322
 Frc consts  --      0.9700                 1.0078                 0.4321
 IR Inten    --      7.8938                 5.5023                36.3909

                     31                     32                     33
                      A                      A                      A
 Frequencies --    802.4454               842.8868               850.2486
 Red. masses --      1.6610                 2.9986                 1.2900
 Frc consts  --      0.6302                 1.2552                 0.5495
 IR Inten    --     18.6203                12.2662                 3.9089

                     34                     35                     36
                      A                      A                      A
 Frequencies --    856.8453               890.6430               911.9787
 Red. masses --      2.7801                 3.3117                 1.5612
 Frc consts  --      1.2026                 1.5478                 0.7650
 IR Inten    --      4.4926                 5.2399                 1.6013

                     37                     38                     39
                      A                      A                      A
 Frequencies --    933.4127               948.3037               963.1053
 Red. masses --      1.6432                 2.0974                 4.8100
 Frc consts  --      0.8435                 1.1113                 2.6287
 IR Inten    --     20.6411                13.3595                 0.8460

                     40                     41                     42
                      A                      A                      A
 Frequencies --    975.5682              1000.5288              1004.7502
 Red. masses --      1.2899                 2.3859                 2.5682
 Frc consts  --      0.7233                 1.4072                 1.5276
 IR Inten    --      0.0393                11.2092                10.6234

                     43                     44                     45
                      A                      A                      A
 Frequencies --   1019.5290              1026.1195              1039.8871
 Red. masses --      4.7296                 4.8661                 2.5098
 Frc consts  --      2.8965                 3.0188                 1.5990
 IR Inten    --     29.6459                30.5681                19.8404

                     46                     47                     48
                      A                      A                      A
 Frequencies --   1052.1244              1100.9420              1116.7654
 Red. masses --      2.5706                 2.2680                 1.5927
 Frc consts  --      1.6766                 1.6196                 1.1703
 IR Inten    --     44.9124                34.1331                 6.3935

                     49                     50                     51
                      A                      A                      A
 Frequencies --   1127.4936              1142.7488              1158.4989
 Red. masses --      1.5598                 1.7282                 2.4387
 Frc consts  --      1.1683                 1.3296                 1.9284
 IR Inten    --     19.4512                 6.3099                 1.7013

                     52                     53                     54
                      A                      A                      A
 Frequencies --   1163.9243              1204.5036              1206.8624
 Red. masses --      5.8106                 1.6625                 1.2404
 Frc consts  --      4.6379                 1.4211                 1.0645
 IR Inten    --     87.4868                 6.5238                 0.3361

                     55                     56                     57
                      A                      A                      A
 Frequencies --   1210.9634              1247.7754              1257.1271
 Red. masses --      1.3743                 3.3169                 1.1873
 Frc consts  --      1.1874                 3.0426                 1.1056
 IR Inten    --      3.4563                 4.9567                 2.0403

                     58                     59                     60
                      A                      A                      A
 Frequencies --   1307.2515              1307.9651              1332.6373
 Red. masses --      3.2273                 2.0914                 1.2480
 Frc consts  --      3.2494                 2.1081                 1.3059
 IR Inten    --     70.5164                38.5391                10.3127

                     61                     62                     63
                      A                      A                      A
 Frequencies --   1346.2644              1358.9861              1366.1628
 Red. masses --      1.5744                 1.5465                 1.8354
 Frc consts  --      1.6812                 1.6828                 2.0183
 IR Inten    --      1.2737                67.8049                10.6505

                     64                     65                     66
                      A                      A                      A
 Frequencies --   1368.8966              1373.5670              1385.2599
 Red. masses --      3.0413                 2.6665                 1.4785
 Frc consts  --      3.3578                 2.9641                 1.6716
 IR Inten    --     12.2096                11.8552                95.7197

                     67                     68                     69
                      A                      A                      A
 Frequencies --   1411.2441              1430.6096              1461.9382
 Red. masses --      1.6381                 1.3943                 3.0067
 Frc consts  --      1.9222                 1.6813                 3.7862
 IR Inten    --      9.7767                19.1984                 2.4861

                     70                     71                     72
                      A                      A                      A
 Frequencies --   1489.7975              1501.3581              1515.9810
 Red. masses --      1.6069                 1.2648                 1.1336
 Frc consts  --      2.1014                 1.6798                 1.5350
 IR Inten    --     40.6284                14.4402                 7.2442

                     73                     74                     75
                      A                      A                      A
 Frequencies --   1524.7280              1529.2501              1532.9881
 Red. masses --      3.4742                 1.2230                 2.9699
 Frc consts  --      4.7587                 1.6851                 4.1122
 IR Inten    --     12.7263                19.5613                18.1453

                     76                     77                     78
                      A                      A                      A
 Frequencies --   1551.8266              1651.9003              1668.9942
 Red. masses --      3.1984                 5.8449                 6.1460
 Frc consts  --      4.5380                 9.3971                10.0869
 IR Inten    --     53.1467                28.8986                46.9539

                     79                     80                     81
                      A                      A                      A
 Frequencies --   1805.9130              3001.9039              3013.1478
 Red. masses --      8.9972                 1.0721                 1.0724
 Frc consts  --     17.2882                 5.6919                 5.7364
 IR Inten    --    452.7594                32.8373                54.7826

                     82                     83                     84
                      A                      A                      A
 Frequencies --   3049.3308              3060.0731              3117.0736
 Red. masses --      1.0852                 1.0639                 1.1006
 Frc consts  --      5.9455                 5.8697                 6.3007
 IR Inten    --     33.8371                25.6577                 9.8462

                     85                     86                     87
                      A                      A                      A
 Frequencies --   3145.1051              3151.2489              3185.0117
 Red. masses --      1.0914                 1.0936                 1.0879
 Frc consts  --      6.3608                 6.3982                 6.5023
 IR Inten    --     11.5023                14.3097                 6.7168

                     88                     89                     90
                      A                      A                      A
 Frequencies --   3204.2259              3220.3072              3229.2588
 Red. masses --      1.0907                 1.0952                 1.0917
 Frc consts  --      6.5980                 6.6916                 6.7074
 IR Inten    --     16.5610                 9.6234                 0.2818

                     91                     92                     93
                      A                      A                      A
 Frequencies --   3288.2389              3315.6800              3579.4626
 Red. masses --      1.0937                 1.1044                 1.0761
 Frc consts  --      6.9677                 7.1533                 8.1233
 IR Inten    --      2.3662                 0.4736                15.1763

 - Thermochemistry -
 -------------------
 Temperature   298.150 Kelvin.  Pressure   1.00000 Atm.
 Atom     1 has atomic number  6 and mass  12.00000

 Molecular mass:   258.11168 amu.
 Principal axes and moments of inertia in atomic units:
                           1         2         3
     Eigenvalues --  2370.193749537.49137**********
           X            0.99998  -0.00576   0.00229
           Y            0.00575   0.99998   0.00189
           Z           -0.00230  -0.00188   1.00000
 This molecule is an asymmetric top.
 Rotational symmetry number  1.
 Warning -- assumption of classical behavior for rotation
           may cause significant error
 Rotational temperatures (Kelvin)      0.03654     0.00908     0.00753
 Rotational constants (GHZ):           0.76143     0.18923     0.15690
 Zero-point vibrational energy     698625.4 (Joules/Mol)
                                  166.97548 (Kcal/Mol)
 Warning -- explicit consideration of  22 degrees of freedom as
           vibrations may cause significant error
 Vibrational temperatures:     34.08    40.12    61.69    88.84   136.74
          (Kelvin)            146.20   164.53   219.27   319.78   377.21
                              418.96   474.74   498.10   531.64   601.10
                              614.96   665.56   691.44   697.95   743.82
                              804.05   831.07   907.53   930.57   948.70
                             1004.25  1018.18  1031.82  1097.04  1109.97
                             1154.54  1212.73  1223.32  1232.81  1281.44
                             1312.13  1342.97  1364.40  1385.69  1403.63
                             1439.54  1445.61  1466.87  1476.36  1496.17
                             1513.77  1584.01  1606.78  1622.21  1644.16
                             1666.82  1674.63  1733.01  1736.41  1742.31
                             1795.27  1808.73  1880.84  1881.87  1917.37
                             1936.97  1955.28  1965.60  1969.54  1976.26
                             1993.08  2030.47  2058.33  2103.40  2143.49
                             2160.12  2181.16  2193.74  2200.25  2205.63
                             2232.73  2376.72  2401.31  2598.31  4319.07
                             4335.25  4387.31  4402.76  4484.77  4525.10
                             4533.94  4582.52  4610.17  4633.30  4646.18
                             4731.04  4770.52  5150.05

 Zero-point correction=                           0.266092 (Hartree/Particle)
 Thermal correction to Energy=                    0.281592
 Thermal correction to Enthalpy=                  0.282536
 Thermal correction to Gibbs Free Energy=         0.220523
 Sum of electronic and zero-point Energies=           -873.029982
 Sum of electronic and thermal Energies=              -873.014483
 Sum of electronic and thermal Enthalpies=            -873.013539
 Sum of electronic and thermal Free Energies=         -873.075551

                     E (Thermal)             CV                S
                      KCal/Mol        Cal/Mol-Kelvin    Cal/Mol-Kelvin
 Total                  176.701             60.090            130.517
 Electronic               0.000              0.000              0.000
 Translational            0.889              2.981             42.544
 Rotational               0.889              2.981             33.919
 Vibrational            174.924             54.128             54.054
 Vibration     1          0.593              1.985              6.298
 Vibration     2          0.593              1.984              5.974
 Vibration     3          0.595              1.980              5.121
 Vibration     4          0.597              1.973              4.401
 Vibration     5          0.603              1.953              3.554
 Vibration     6          0.604              1.948              3.423
 Vibration     7          0.607              1.938              3.194
 Vibration     8          0.619              1.900              2.642
 Vibration     9          0.648              1.807              1.941
 Vibration    10          0.669              1.742              1.647
 Vibration    11          0.687              1.690              1.467
 Vibration    12          0.713              1.616              1.260
 Vibration    13          0.724              1.583              1.183
 Vibration    14          0.742              1.535              1.082
 Vibration    15          0.781              1.432              0.900
 Vibration    16          0.789              1.411              0.867
 Vibration    17          0.820              1.333              0.759
 Vibration    18          0.837              1.293              0.709
 Vibration    19          0.841              1.283              0.696
 Vibration    20          0.872              1.212              0.617
 Vibration    21          0.914              1.120              0.526
 Vibration    22          0.934              1.080              0.490

 Optimization completed.
    -- Stationary point found.
 Normal termination of Gaussian 16 at Sun Dec 13 21:03:43 2020.

 ----------------------------------------------------------------------
 # B3LYP/6-311++G(d,p) empiricaldispersion=gd3bj scf=xqc pop=npa geom=c
 heck
 ----------------------------------------------------------------------

 ---------------------------------------
 CID_118117854_JID_9689_Energie_neutraal
 ---------------------------------------
 Structure from the checkpoint file:  "JID_9689.chk"
 Charge =  0 Multiplicity = 1

 SCF Done:  E(RB3LYP) =  -873.534456827     A.U. after   16 cycles
 Normal termination of Gaussian 16 at Sun Dec 13 21:09:58 2020.

 ----------------------------------------------------------------------
 # B3LYP/6-311++G(d,p) empiricaldispersion=gd3bj scf=xqc pop=npa geom=c
 heck
 ----------------------------------------------------------------------

 -------------------------------------
 CID_118117854_JID_9689_Energie_kation
 -------------------------------------
 Structure from the checkpoint file:  "JID_9689.chk"
 Charge =  1 Multiplicity = 2

 SCF Done:  E(UB3LYP) =  -873.224107650     A.U. after   32 cycles
 Normal termination of Gaussian 16 at Sun Dec 13 21:27:13 2020.
 Gaussian 16:  ES64L-G16RevA.03 25-Dec-2016

 ----------------------------------------------------------------------
 # B3LYP/6-311++G(d,p) empiricaldispersion=gd3bj scf=xqc pop=npa geom=c
 heck
 ----------------------------------------------------------------------

 ------------------------------------
 CID_118117854_JID_9689_Energie_anion
 ------------------------------------
 Structure from the checkpoint file:  "JID_9689.chk"
 Charge = -1 Multiplicity = 2

                         Standard orientation:
 ---------------------------------------------------------------------
 Center     Atomic      Atomic             Coordinates (Angstroms)
 Number     Number       Type             X           Y           Z
 ---------------------------------------------------------------------
      1          6           0        1.902122   -0.604002    1.128505
      2          6           0        2.321095    0.719702    0.489812
      3          7           0        3.731816    0.603663    0.126932
      4          6           0        4.360522   -0.563808   -0.209534
      5          8           0        5.503329   -0.604315   -0.641706
      6          6           0        3.573298   -1.845856    0.060058
      7          8           0        2.175588   -1.670766    0.235097
      8          6           0        1.464745    1.077098   -0.750464
      9          6           0        0.027056    1.376387   -0.406935
     10          6           0       -0.930758    0.358848   -0.431813
     11          6           0       -2.248749    0.630320   -0.059754
     12          6           0       -2.633191    1.913188    0.334958
     13          6           0       -1.681711    2.931258    0.341255
     14          6           0       -0.362705    2.666119   -0.022374
     15          7           0       -3.200979   -0.421079   -0.081697
     16          6           0       -4.545234   -0.359519   -0.292465
     17          6           0       -4.962020   -1.665506   -0.200309
     18          7           0       -3.878318   -2.455349    0.058801
     19          7           0       -2.813796   -1.710507    0.132318
     20          1           0        0.828969   -0.621014    1.324629
     21          1           0        2.438556   -0.745314    2.079839
     22          1           0        2.220614    1.517144    1.237458
     23          1           0        4.244556    1.440675   -0.126549
     24          1           0        3.714770   -2.515258   -0.790643
     25          1           0        4.020687   -2.324198    0.947136
     26          1           0        1.920781    1.945543   -1.240377
     27          1           0        1.528545    0.237368   -1.449091
     28          1           0       -0.662119   -0.647735   -0.732216
     29          1           0       -3.652167    2.107968    0.651951
     30          1           0       -1.972248    3.933268    0.642236
     31          1           0        0.372206    3.467004   -0.013359
     32          1           0       -5.059009    0.562528   -0.510617
     33          1           0       -5.953359   -2.079797   -0.307647
 ---------------------------------------------------------------------

 SCF Done:  E(UB3LYP) =  -873.539835497     A.U. after   33 cycles
 SCF Done:  E(UB3LYP) =  -873.539835497     a.u. after    1 cycles

 The electronic state is 2-A.
 Alpha  occ. eigenvalues --  -19.04797 -19.00420 -14.27644 -14.25230 -14.22928
 Alpha  occ. eigenvalues --  -14.20378 -10.18870 -10.14451 -10.13147 -10.12876
 Alpha  occ. eigenvalues --  -10.08920 -10.08802 -10.07470 -10.07431 -10.06662
 Alpha  occ. eigenvalues --  -10.06318 -10.05748 -10.05474 -10.04563  -0.97202
 Alpha  occ. eigenvalues --   -0.96848  -0.94860  -0.84136  -0.80152  -0.74076
 Alpha  occ. eigenvalues --   -0.69963  -0.68200  -0.65808  -0.63253  -0.62071
 Alpha  occ. eigenvalues --   -0.58801  -0.54675  -0.53268  -0.51204  -0.48433
 Alpha  occ. eigenvalues --   -0.47322  -0.45917  -0.43292  -0.42397  -0.41797
 Alpha  occ. eigenvalues --   -0.39593  -0.38265  -0.37279  -0.36217  -0.35447
 Alpha  occ. eigenvalues --   -0.34740  -0.34492  -0.33402  -0.33215  -0.32173
 Alpha  occ. eigenvalues --   -0.31658  -0.30819  -0.29725  -0.27568  -0.27443
 Alpha  occ. eigenvalues --   -0.25608  -0.24927  -0.24082  -0.23551  -0.20861
 Alpha  occ. eigenvalues --   -0.20145  -0.19613  -0.17461  -0.16316  -0.15205
 Alpha  occ. eigenvalues --   -0.14896  -0.13939  -0.12411   0.04009
 Alpha virt. eigenvalues --    0.06020   0.07272   0.07681   0.08482   0.08749
 Alpha virt. eigenvalues --    0.09068   0.09671   0.09896   0.10427   0.11084
 Alpha virt. eigenvalues --    0.11301   0.11735   0.12466   0.12599   0.13184

  Beta  occ. eigenvalues --  -19.04795 -19.00410 -14.27634 -14.25217 -14.22604
  Beta  occ. eigenvalues --  -14.20288 -10.18863 -10.14445 -10.13132 -10.12869
  Beta  occ. eigenvalues --  -10.08661 -10.08639 -10.07494 -10.07423 -10.06638
  Beta  occ. eigenvalues --  -10.06357 -10.05648 -10.05454 -10.04306  -0.97194
  Beta  occ. eigenvalues --   -0.96548  -0.94846  -0.84111  -0.79821  -0.73867
  Beta  occ. eigenvalues --   -0.69887  -0.67867  -0.65687  -0.62921  -0.61957
  Beta  occ. eigenvalues --   -0.58711  -0.54588  -0.52830  -0.51119  -0.48366
  Beta  occ. eigenvalues --   -0.47231  -0.45634  -0.43226  -0.42321  -0.41745
  Beta  occ. eigenvalues --   -0.39559  -0.38111  -0.37191  -0.36079  -0.35222
  Beta  occ. eigenvalues --   -0.34591  -0.34077  -0.33337  -0.33173  -0.32002
  Beta  occ. eigenvalues --   -0.31569  -0.30785  -0.29626  -0.27494  -0.27304
  Beta  occ. eigenvalues --   -0.24926  -0.24821  -0.24005  -0.23467  -0.20578
  Beta  occ. eigenvalues --   -0.20105  -0.18846  -0.17383  -0.16293  -0.14622
  Beta  occ. eigenvalues --   -0.14105  -0.13412  -0.11305
  Beta virt. eigenvalues --    0.06425   0.07386   0.07851   0.08460   0.08540
  Beta virt. eigenvalues --    0.08807   0.09180   0.09794   0.10026   0.10521
  Beta virt. eigenvalues --    0.11096   0.11384   0.11914   0.12631   0.13131

 Mulliken charges and spin densities:
               1          2
     1  C   -0.707262  -0.092123
     2  C    0.115680  -0.400000
     3  N   -0.092272   0.021095
     4  C    0.106484   0.048571
     5  O   -0.365978   0.011336
     6  C   -0.036526  -0.224445
     7  O   -0.030314   0.008655
     8  C    0.187957  -0.486065
     9  C    0.827202   0.310574
    10  C   -0.481845   0.056439
    11  C   -0.992160   0.087332
    12  C    0.209679   0.059533
    13  C   -0.301999  -0.058630
    14  C   -0.327887   0.043241
    15  N    0.351533  -0.014729
    16  C    0.074165   0.142012
    17  C   -0.508953  -0.017097
    18  N    0.003549   0.042500
    19  N   -0.235694   0.150074
    20  H    0.212913   0.017403
    21  H    0.024424   0.109292
    22  H    0.125431   0.113155
    23  H    0.034478   0.268112
    24  H    0.184524   0.010697
    25  H    0.115860   0.057581
    26  H   -0.091457   0.311103
    27  H    0.185435  -0.017650
    28  H    0.262835  -0.004408
    29  H    0.049736   0.066395
    30  H    0.090085   0.055436
    31  H   -0.241117   0.339449
    32  H    0.148588  -0.017149
    33  H    0.102906   0.002313
 Sum of Mulliken charges =  -1.00000   1.00000

 Dipole moment (field-independent basis, Debye):
    X=             -0.1590    Y=              1.4565    Z=              1.0230  Tot=              1.7870
 Quadrupole moment (field-independent basis, Debye-Ang):
   XX=           -188.9684   YY=           -150.7133   ZZ=           -125.2102
   XY=            -15.9146   XZ=              9.5921   YZ=              3.1189

 Summary of Natural Population Analysis:

                                       Natural Population
                Natural  -----------------------------------------------
    Atom  No    Charge         Core      Valence    Rydberg      Total
 -----------------------------------------------------------------------
      C    1   -0.01855      0.99955     2.00488    0.01411     3.01855
      C    2   -0.01653      0.99958     2.00499    0.01196     3.01653
      N    3   -0.31853      0.99966     2.80826    0.01061     3.81853
      C    4    0.32989      0.99968     1.64846    0.02197     2.67011
      O    5   -0.32572      0.99988     3.31942    0.00642     4.32572
      C    6   -0.05156      0.99955     2.04054    0.01148     3.05156
      O    7   -0.29392      0.99989     3.28516    0.00887     4.29392
      C    8   -0.20067      0.99958     2.18987    0.01123     3.20067
      C    9   -0.01730      0.99951     2.00803    0.00975     3.01730
      C   10   -0.10325      0.99948     2.09458    0.00919     3.10325
      C   11    0.11307      0.99946     1.87535    0.01212     2.88693
      C   12   -0.09721      0.99953     2.08870    0.00898     3.09721
      C   13   -0.10584      0.99958     2.09698    0.00928     3.10584
      C   14   -0.06678      0.99951     2.05719    0.01007     3.06678
      N   15   -0.10654      0.99962     2.59193    0.01498     3.60654
      C   16   -0.00516      0.99957     1.99659    0.00900     3.00516
      C   17   -0.06511      0.99962     2.05175    0.01374     3.06511
      N   18   -0.13774      0.99976     2.62172    0.01626     3.63774
      N   19   -0.00150      0.99978     2.48684    0.01487     3.50150
      H   20    0.11021      0.00000     0.38844    0.00135     0.38979
      H   21    0.08050      0.00000     0.41836    0.00115     0.41950
      H   22    0.10153      0.00000     0.39722    0.00125     0.39847
      H   23    0.19715      0.00000     0.29963    0.00322     0.30285
      H   24    0.10328      0.00000     0.39558    0.00114     0.39672
      H   25    0.08979      0.00000     0.40858    0.00163     0.41021
      H   26    0.10425      0.00000     0.39438    0.00137     0.39575
      H   27    0.10576      0.00000     0.39289    0.00134     0.39424
      H   28    0.11283      0.00000     0.38569    0.00149     0.38717
      H   29    0.09837      0.00000     0.40072    0.00091     0.40163
      H   30    0.09557      0.00000     0.40363    0.00081     0.40443
      H   31    0.09269      0.00000     0.40585    0.00145     0.40731
      H   32    0.10293      0.00000     0.39623    0.00084     0.39707
      H   33    0.09408      0.00000     0.40493    0.00099     0.40592
 =======================================================================
   * Total *    0.00000     18.99281    48.76335    0.24383    68.00000

 Normal termination of Gaussian 16 at Sun Dec 13 21:45:03 2020.
