 Gaussian 16, Revision A.03,

 -----------------------------------------------------------
 # opt freq B3LYP/6-31G(d) empiricaldispersion=gd3bj scf=xqc
 -----------------------------------------------------------

 ------------------------------
 CID_68725013_JID_2414_neutraal
 ------------------------------
 Symbolic Z-matrix:
 Charge =  0 Multiplicity = 1

 SCF Done:  E(RB3LYP) =  -537.320019315     A.U. after   14 cycles
 SCF Done:  E(RB3LYP) =  -537.325242367     A.U. after   13 cycles
 SCF Done:  E(RB3LYP) =  -537.326414363     A.U. after   12 cycles
 SCF Done:  E(RB3LYP) =  -537.327095242     A.U. after   12 cycles
 SCF Done:  E(RB3LYP) =  -537.327551221     A.U. after   12 cycles
 SCF Done:  E(RB3LYP) =  -537.327685810     A.U. after   11 cycles
 SCF Done:  E(RB3LYP) =  -537.327725601     A.U. after   11 cycles
 SCF Done:  E(RB3LYP) =  -537.327734885     A.U. after   10 cycles
 SCF Done:  E(RB3LYP) =  -537.327737882     A.U. after    8 cycles
 SCF Done:  E(RB3LYP) =  -537.327738583     A.U. after    8 cycles
 SCF Done:  E(RB3LYP) =  -537.327738805     A.U. after    7 cycles
 Optimization completed.
    -- Stationary point found.
 Normal termination of Gaussian 16 at Wed Dec  9 17:20:03 2020.

 --------------------------------------------------------------------
 #N Geom=AllCheck Guess=TCheck SCRF=Check GenChk RB3LYP/6-31G(d) Freq
 --------------------------------------------------------------------

 Structure from the checkpoint file:  "JID_2414.chk"
 ------------------------------
 CID_68725013_JID_2414_neutraal
 ------------------------------
 Charge =  0 Multiplicity = 1

 SCF Done:  E(RB3LYP) =  -537.327738805     A.U. after    1 cycles

  Exact polarizability: 115.765  10.318 102.806   3.719   0.974 101.482
 Approx polarizability: 148.321  25.420 155.596   4.970  -0.600 174.521

                      1                      2                      3
                      A                      A                      A
 Frequencies --     37.8086                83.0262               101.5286
 Red. masses --      2.7139                 4.0915                 2.7364
 Frc consts  --      0.0023                 0.0166                 0.0166
 IR Inten    --      0.2237                 0.1609                 0.8263

                      4                      5                      6
                      A                      A                      A
 Frequencies --    142.6196               160.5360               208.2205
 Red. masses --      2.1232                 3.4841                 1.3169
 Frc consts  --      0.0254                 0.0529                 0.0336
 IR Inten    --      1.6858                 0.5491                 2.5401

                      7                      8                      9
                      A                      A                      A
 Frequencies --    227.1301               237.6061               256.5026
 Red. masses --      2.0726                 1.1994                 1.8670
 Frc consts  --      0.0630                 0.0399                 0.0724
 IR Inten    --      7.9615                 2.7047                 2.1755

                     10                     11                     12
                      A                      A                      A
 Frequencies --    278.1299               309.6849               328.9263
 Red. masses --      1.7857                 2.1007                 2.3533
 Frc consts  --      0.0814                 0.1187                 0.1500
 IR Inten    --      1.6451                16.2148                 9.6463

                     13                     14                     15
                      A                      A                      A
 Frequencies --    369.6946               388.0835               425.2792
 Red. masses --      2.4857                 2.5956                 2.0535
 Frc consts  --      0.2002                 0.2303                 0.2188
 IR Inten    --     21.4921                40.3785                 0.7918

                     16                     17                     18
                      A                      A                      A
 Frequencies --    450.3936               480.9899               535.5338
 Red. masses --      2.2708                 2.9886                 2.8715
 Frc consts  --      0.2714                 0.4074                 0.4852
 IR Inten    --      7.1753                 2.0100                29.4351

                     19                     20                     21
                      A                      A                      A
 Frequencies --    599.0047               633.4087               699.8773
 Red. masses --      5.6357                 4.3849                 4.0855
 Frc consts  --      1.1914                 1.0365                 1.1791
 IR Inten    --      7.9535                11.3216                13.9746

                     22                     23                     24
                      A                      A                      A
 Frequencies --    755.4450               775.0245               829.7302
 Red. masses --      1.8070                 2.3603                 2.9466
 Frc consts  --      0.6076                 0.8353                 1.1952
 IR Inten    --     12.4314                15.3466                11.7542

                     25                     26                     27
                      A                      A                      A
 Frequencies --    869.8017               888.3974               906.0741
 Red. masses --      1.5889                 1.5240                 1.2343
 Frc consts  --      0.7083                 0.7087                 0.5970
 IR Inten    --     19.3497                 1.1448                 1.3696

                     28                     29                     30
                      A                      A                      A
 Frequencies --    941.6915               950.5165               963.3576
 Red. masses --      1.2626                 2.8261                 2.8223
 Frc consts  --      0.6597                 1.5044                 1.5432
 IR Inten    --      8.7266                77.9249                 3.6795

                     31                     32                     33
                      A                      A                      A
 Frequencies --    979.9994               986.5214              1043.1752
 Red. masses --      1.6948                 2.1465                 3.3112
 Frc consts  --      0.9590                 1.2308                 2.1230
 IR Inten    --      6.5507                14.5335                 0.4696

                     34                     35                     36
                      A                      A                      A
 Frequencies --   1068.3366              1097.4859              1156.1090
 Red. masses --      1.8599                 7.9219                 2.3551
 Frc consts  --      1.2507                 5.6218                 1.8547
 IR Inten    --      1.9576               161.4202                10.8736

                     37                     38                     39
                      A                      A                      A
 Frequencies --   1171.8912              1186.7109              1192.2043
 Red. masses --      1.7258                 1.9328                 1.3595
 Frc consts  --      1.3964                 1.6038                 1.1385
 IR Inten    --     15.4587                24.7150                 5.7899

                     40                     41                     42
                      A                      A                      A
 Frequencies --   1209.6808              1227.6348              1249.4541
 Red. masses --      1.7418                 1.8845                 2.0955
 Frc consts  --      1.5018                 1.6733                 1.9274
 IR Inten    --      1.9603                 1.2903                22.6287

                     43                     44                     45
                      A                      A                      A
 Frequencies --   1253.9553              1317.1555              1332.4007
 Red. masses --      1.2499                 1.8854                 1.3085
 Frc consts  --      1.1580                 1.9272                 1.3687
 IR Inten    --     13.7614                14.6022                 4.1055

                     46                     47                     48
                      A                      A                      A
 Frequencies --   1386.1253              1390.0633              1406.7981
 Red. masses --      1.2186                 1.4287                 1.5092
 Frc consts  --      1.3794                 1.6265                 1.7598
 IR Inten    --      1.0975                 5.7687                 7.6984

                     49                     50                     51
                      A                      A                      A
 Frequencies --   1431.3570              1443.4220              1451.9659
 Red. masses --      1.2627                 1.6447                 1.2610
 Frc consts  --      1.5242                 2.0190                 1.5663
 IR Inten    --      6.5148                 5.2886                 4.2773

                     52                     53                     54
                      A                      A                      A
 Frequencies --   1496.8156              1506.7640              1518.8765
 Red. masses --      1.1713                 1.1308                 1.1114
 Frc consts  --      1.5461                 1.5126                 1.5106
 IR Inten    --      4.3762                11.4125                21.4029

                     55                     56                     57
                      A                      A                      A
 Frequencies --   1519.9310              1524.8816              1530.7782
 Red. masses --      1.0455                 1.1067                 1.4223
 Frc consts  --      1.4230                 1.5162                 1.9636
 IR Inten    --      2.1663                17.5291                35.2820

                     58                     59                     60
                      A                      A                      A
 Frequencies --   1536.5640              1537.9385              1543.4727
 Red. masses --      1.0798                 1.0522                 1.0977
 Frc consts  --      1.5021                 1.4663                 1.5407
 IR Inten    --      2.7068                 9.9447                12.1554

                     61                     62                     63
                      A                      A                      A
 Frequencies --   1623.2562              1685.1537              3027.2601
 Red. masses --      4.3909                 6.1549                 1.0808
 Frc consts  --      6.8168                10.2979                 5.8357
 IR Inten    --     36.0686                10.9304                 7.2372

                     64                     65                     66
                      A                      A                      A
 Frequencies --   3029.8653              3037.3296              3041.1176
 Red. masses --      1.0356                 1.0391                 1.0509
 Frc consts  --      5.6014                 5.6482                 5.7262
 IR Inten    --     50.0014                14.4096                35.1494

                     67                     68                     69
                      A                      A                      A
 Frequencies --   3046.5324              3083.1980              3088.3618
 Red. masses --      1.0469                 1.1014                 1.1038
 Frc consts  --      5.7249                 6.1689                 6.2030
 IR Inten    --     28.8304                 8.4811                32.7053

                     70                     71                     72
                      A                      A                      A
 Frequencies --   3100.2588              3105.7331              3112.5128
 Red. masses --      1.1014                 1.1014                 1.1020
 Frc consts  --      6.2372                 6.2591                 6.2898
 IR Inten    --      9.4367                55.8540                51.7704

                     73                     74                     75
                      A                      A                      A
 Frequencies --   3138.9595              3140.5275              3147.0228
 Red. masses --      1.0985                 1.1015                 1.0892
 Frc consts  --      6.3772                 6.4011                 6.3554
 IR Inten    --     29.0268                31.6497                20.0981

                     76                     77                     78
                      A                      A                      A
 Frequencies --   3212.5179              3238.7130              3616.0519
 Red. masses --      1.0889                 1.0974                 1.0771
 Frc consts  --      6.6211                 6.7819                 8.2977
 IR Inten    --      3.7998                25.6870                28.6711

 - Thermochemistry -
 -------------------
 Temperature   298.150 Kelvin.  Pressure   1.00000 Atm.
 Atom     1 has atomic number  6 and mass  12.00000

 Molecular mass:   168.12626 amu.
 Principal axes and moments of inertia in atomic units:
                           1         2         3
     Eigenvalues --  1239.267132579.828803038.01239
           X            0.99986  -0.01567   0.00593
           Y            0.01566   0.99988   0.00133
           Z           -0.00595  -0.00124   0.99998
 This molecule is an asymmetric top.
 Rotational symmetry number  1.
 Warning -- assumption of classical behavior for rotation
           may cause significant error
 Rotational temperatures (Kelvin)      0.06989     0.03357     0.02851
 Rotational constants (GHZ):           1.45630     0.69956     0.59405
 Zero-point vibrational energy     646024.5 (Joules/Mol)
                                  154.40356 (Kcal/Mol)
 Warning -- explicit consideration of  19 degrees of freedom as
           vibrations may cause significant error
 Vibrational temperatures:     54.40   119.46   146.08   205.20   230.98
          (Kelvin)            299.58   326.79   341.86   369.05   400.17
                              445.57   473.25   531.91   558.37   611.88
                              648.02   692.04   770.51   861.83   911.33
                             1006.97  1086.92  1115.09  1193.80  1251.45
                             1278.21  1303.64  1354.88  1367.58  1386.06
                             1410.00  1419.38  1500.90  1537.10  1579.04
                             1663.38  1686.09  1707.41  1715.32  1740.46
                             1766.29  1797.69  1804.16  1895.09  1917.03
                             1994.33  1999.99  2024.07  2059.40  2076.76
                             2089.06  2153.58  2167.90  2185.32  2186.84
                             2193.96  2202.45  2210.77  2212.75  2220.71
                             2335.50  2424.56  4355.55  4359.30  4370.04
                             4375.49  4383.28  4436.03  4443.46  4460.58
                             4468.46  4478.21  4516.26  4518.52  4527.86
                             4622.10  4659.79  5202.69

 Zero-point correction=                           0.246058 (Hartree/Particle)
 Thermal correction to Energy=                    0.258839
 Thermal correction to Enthalpy=                  0.259784
 Thermal correction to Gibbs Free Energy=         0.207464
 Sum of electronic and zero-point Energies=           -537.081681
 Sum of electronic and thermal Energies=              -537.068899
 Sum of electronic and thermal Enthalpies=            -537.067955
 Sum of electronic and thermal Free Energies=         -537.120275

                     E (Thermal)             CV                S
                      KCal/Mol        Cal/Mol-Kelvin    Cal/Mol-Kelvin
 Total                  162.424             48.681            110.116
 Electronic               0.000              0.000              0.000
 Translational            0.889              2.981             41.267
 Rotational               0.889              2.981             30.652
 Vibrational            160.647             42.720             38.197
 Vibration     1          0.594              1.982              5.371
 Vibration     2          0.600              1.961              3.818
 Vibration     3          0.604              1.948              3.425
 Vibration     4          0.616              1.911              2.768
 Vibration     5          0.622              1.891              2.543
 Vibration     6          0.642              1.828              2.059
 Vibration     7          0.651              1.800              1.902
 Vibration     8          0.656              1.783              1.821
 Vibration     9          0.666              1.752              1.685
 Vibration    10          0.679              1.714              1.545
 Vibration    11          0.699              1.655              1.364
 Vibration    12          0.712              1.618              1.265
 Vibration    13          0.742              1.534              1.081
 Vibration    14          0.756              1.496              1.007
 Vibration    15          0.787              1.415              0.874
 Vibration    16          0.809              1.360              0.795
 Vibration    17          0.837              1.292              0.707
 Vibration    18          0.891              1.171              0.575
 Vibration    19          0.957              1.034              0.451

                           ! Non-Optimized Parameters !
 Normal termination of Gaussian 16 at Wed Dec  9 17:26:47 2020.

 ----------------------------------------------------------------------
 # B3LYP/6-311++G(d,p) empiricaldispersion=gd3bj scf=xqc pop=npa geom=c
 heck
 ----------------------------------------------------------------------

 --------------------------------------
 CID_68725013_JID_2414_Energie_neutraal
 --------------------------------------
 Structure from the checkpoint file:  "JID_2414.chk"
 Charge =  0 Multiplicity = 1

 SCF Done:  E(RB3LYP) =  -537.482730300     A.U. after   15 cycles
 Normal termination of Gaussian 16 at Wed Dec  9 17:29:55 2020.

 ----------------------------------------------------------------------
 # B3LYP/6-311++G(d,p) empiricaldispersion=gd3bj scf=xqc pop=npa geom=c
 heck
 ----------------------------------------------------------------------

 ------------------------------------
 CID_68725013_JID_2414_Energie_kation
 ------------------------------------
 Structure from the checkpoint file:  "JID_2414.chk"
 Charge =  1 Multiplicity = 2

 SCF Done:  E(UB3LYP) =  -537.199056665     A.U. after   20 cycles
 Normal termination of Gaussian 16 at Wed Dec  9 17:35:02 2020.
 Gaussian 16:  ES64L-G16RevA.03 25-Dec-2016

 ----------------------------------------------------------------------
 # B3LYP/6-311++G(d,p) empiricaldispersion=gd3bj scf=xqc pop=npa geom=c
 heck
 ----------------------------------------------------------------------

 -----------------------------------
 CID_68725013_JID_2414_Energie_anion
 -----------------------------------
 Structure from the checkpoint file:  "JID_2414.chk"
 Charge = -1 Multiplicity = 2

                         Standard orientation:
 ---------------------------------------------------------------------
 Center     Atomic      Atomic             Coordinates (Angstroms)
 Number     Number       Type             X           Y           Z
 ---------------------------------------------------------------------
      1          6           0       -2.277089    1.337198   -0.674208
      2          6           0       -2.216513    0.137719    0.279911
      3          6           0       -3.600346   -0.513598    0.408770
      4          6           0       -1.188774   -0.925238   -0.140298
      5          6           0        0.293279   -0.525244   -0.077480
      6          6           0        0.715844    0.462848   -1.147225
      7          7           0        1.565809    1.419238   -1.003649
      8          6           0        2.067977    1.671018    0.268765
      9          6           0        1.594980    1.007434    1.350704
     10          7           0        0.622931    0.049451    1.209117
     11          8           0        0.968544   -1.783517   -0.296971
     12          6           0        2.388127   -1.744090   -0.272137
     13          1           0       -2.520630    1.011832   -1.693890
     14          1           0       -1.328765    1.879610   -0.713810
     15          1           0       -3.054879    2.040916   -0.355673
     16          1           0       -1.923730    0.512479    1.270753
     17          1           0       -3.936151   -0.910755   -0.557666
     18          1           0       -3.589471   -1.344594    1.124001
     19          1           0       -4.347080    0.214182    0.745886
     20          1           0       -1.296082   -1.810281    0.500653
     21          1           0       -1.395088   -1.267456   -1.162257
     22          1           0        0.306490    0.280741   -2.141467
     23          1           0        2.814024    2.450900    0.357857
     24          1           0        1.916260    1.221485    2.364748
     25          1           0        0.331726   -0.475196    2.022199
     26          1           0        2.794845   -1.028118   -0.996973
     27          1           0        2.768264   -1.486738    0.725442
     28          1           0        2.725827   -2.749975   -0.533124
 ---------------------------------------------------------------------

 SCF Done:  E(UB3LYP) =  -537.471744233     A.U. after   33 cycles
 SCF Done:  E(UB3LYP) =  -537.471744233     a.u. after    1 cycles

 The electronic state is 2-A.
 Alpha  occ. eigenvalues --  -19.01721 -14.22522 -14.19297 -10.15525 -10.10350
 Alpha  occ. eigenvalues --  -10.09359 -10.08233 -10.06735 -10.06312 -10.05992
 Alpha  occ. eigenvalues --  -10.05343 -10.04969  -0.93544  -0.84472  -0.78991
 Alpha  occ. eigenvalues --   -0.70894  -0.66115  -0.60618  -0.57909  -0.56760
 Alpha  occ. eigenvalues --   -0.54267  -0.51739  -0.46330  -0.43505  -0.40694
 Alpha  occ. eigenvalues --   -0.40275  -0.37275  -0.34713  -0.34296  -0.33918
 Alpha  occ. eigenvalues --   -0.32254  -0.31998  -0.30965  -0.28804  -0.28157
 Alpha  occ. eigenvalues --   -0.27393  -0.26475  -0.25905  -0.23283  -0.22648
 Alpha  occ. eigenvalues --   -0.22166  -0.21683  -0.20515  -0.17686  -0.13461
 Alpha  occ. eigenvalues --   -0.09235   0.04754
 Alpha virt. eigenvalues --    0.07175   0.07362   0.08342   0.08714   0.09486
 Alpha virt. eigenvalues --    0.09712   0.10526   0.11274   0.11473   0.12319
 Alpha virt. eigenvalues --    0.12686   0.12952   0.13291   0.14014   0.15601

  Beta  occ. eigenvalues --  -19.01693 -14.22432 -14.19221 -10.15531 -10.10343
  Beta  occ. eigenvalues --  -10.09254 -10.08135 -10.06727 -10.06333 -10.05982
  Beta  occ. eigenvalues --  -10.05314 -10.04950  -0.93488  -0.84334  -0.78823
  Beta  occ. eigenvalues --   -0.70855  -0.66031  -0.60542  -0.57856  -0.56731
  Beta  occ. eigenvalues --   -0.54038  -0.51665  -0.46270  -0.43380  -0.40618
  Beta  occ. eigenvalues --   -0.40184  -0.37224  -0.34619  -0.34234  -0.33851
  Beta  occ. eigenvalues --   -0.32190  -0.31954  -0.30913  -0.28764  -0.28124
  Beta  occ. eigenvalues --   -0.27252  -0.26369  -0.25769  -0.23220  -0.22603
  Beta  occ. eigenvalues --   -0.22101  -0.21639  -0.20129  -0.17576  -0.13356
  Beta  occ. eigenvalues --   -0.08927
  Beta virt. eigenvalues --    0.07294   0.07783   0.08360   0.08811   0.09218
  Beta virt. eigenvalues --    0.09800   0.10158   0.11000   0.11439   0.11770
  Beta virt. eigenvalues --    0.12698   0.12980   0.13115   0.13690   0.14017

 Mulliken charges and spin densities:
               1          2
     1  C    0.204844  -0.853982
     2  C   -0.655826   1.172283
     3  C    0.528851  -1.177722
     4  C   -0.430539  -0.093716
     5  C    0.588163  -0.793325
     6  C   -0.428241  -0.082769
     7  N    0.014466   0.024949
     8  C    0.652191  -0.876958
     9  C    0.247420  -0.310902
    10  N   -0.180047   0.035438
    11  O   -0.034052   0.030579
    12  C    0.018970  -0.225620
    13  H    0.037383   0.089466
    14  H    0.248648  -0.091545
    15  H   -0.110612   0.250081
    16  H   -0.095028   0.284498
    17  H   -0.048586   0.165083
    18  H   -0.294636   0.433426
    19  H   -0.198996   0.338632
    20  H    0.085489   0.102308
    21  H    0.168138   0.021623
    22  H    0.135643   0.019426
    23  H    0.041720   0.104568
    24  H   -1.218912   1.384275
    25  H   -0.429848   0.770873
    26  H    0.073624   0.069456
    27  H   -0.003926   0.151767
    28  H    0.083696   0.057809
 Sum of Mulliken charges =  -1.00000   1.00000

 Dipole moment (field-independent basis, Debye):
    X=              0.7843    Y=             -1.2787    Z=             -6.0491  Tot=              6.2323
 Quadrupole moment (field-independent basis, Debye-Ang):
   XX=           -122.4384   YY=           -107.2468   ZZ=           -120.0556
   XY=             -5.1508   XZ=              1.2646   YZ=              2.2842

 Summary of Natural Population Analysis:

                                       Natural Population
                Natural  -----------------------------------------------
    Atom  No    Charge         Core      Valence    Rydberg      Total
 -----------------------------------------------------------------------
      C    1   -0.28567      0.99964     2.27999    0.00603     3.28567
      C    2   -0.11858      0.99961     2.10923    0.00975     3.11858
      C    3   -0.28052      0.99965     2.27462    0.00625     3.28052
      C    4   -0.19320      0.99956     2.18110    0.01254     3.19320
      C    5    0.19316      0.99951     1.78740    0.01992     2.80684
      C    6    0.03853      0.99956     1.94607    0.01584     2.96147
      N    7   -0.22047      0.99969     2.70904    0.01174     3.72047
      C    8   -0.08142      0.99953     2.06577    0.01612     3.08142
      C    9    0.03045      0.99953     1.95486    0.01516     2.96955
      N   10   -0.30633      0.99966     2.79093    0.01574     3.80633
      O   11   -0.30639      0.99988     3.29744    0.00908     4.30639
      C   12   -0.10563      0.99959     2.09702    0.00902     3.10563
      H   13    0.09205      0.00000     0.40720    0.00075     0.40795
      H   14    0.10798      0.00000     0.39113    0.00089     0.39202
      H   15    0.09736      0.00000     0.40189    0.00075     0.40264
      H   16    0.10036      0.00000     0.39701    0.00263     0.39964
      H   17    0.09222      0.00000     0.40687    0.00091     0.40778
      H   18    0.10077      0.00000     0.39804    0.00118     0.39923
      H   19    0.09842      0.00000     0.40065    0.00093     0.40158
      H   20    0.10799      0.00000     0.39020    0.00181     0.39201
      H   21    0.10038      0.00000     0.39843    0.00120     0.39962
      H   22    0.08452      0.00000     0.41407    0.00141     0.41548
      H   23    0.09306      0.00000     0.40580    0.00115     0.40694
      H   24    0.10292      0.00000     0.39415    0.00293     0.39708
      H   25    0.20283      0.00000     0.28317    0.01400     0.29717
      H   26    0.08511      0.00000     0.41375    0.00114     0.41489
      H   27    0.08417      0.00000     0.41445    0.00137     0.41583
      H   28    0.08593      0.00000     0.41331    0.00076     0.41407
 =======================================================================
   * Total *    0.00000     11.99543    33.82359    0.18097    46.00000

 Normal termination of Gaussian 16 at Wed Dec  9 17:44:48 2020.
