 Gaussian 16, Revision A.03,

 -----------------------------------------------------------
 # opt freq B3LYP/6-31G(d) empiricaldispersion=gd3bj scf=xqc
 -----------------------------------------------------------

 ------------------------------
 CID_61708097_JID_7556_neutraal
 ------------------------------
 Symbolic Z-matrix:
 Charge =  0 Multiplicity = 1

 SCF Done:  E(RB3LYP) =  -790.927344425     A.U. after   14 cycles
 SCF Done:  E(RB3LYP) =  -790.931924745     A.U. after   12 cycles
 SCF Done:  E(RB3LYP) =  -790.930657047     A.U. after   12 cycles
 SCF Done:  E(RB3LYP) =  -790.933313374     A.U. after   11 cycles
 SCF Done:  E(RB3LYP) =  -790.933654462     A.U. after   12 cycles
 SCF Done:  E(RB3LYP) =  -790.934005153     A.U. after   11 cycles
 SCF Done:  E(RB3LYP) =  -790.934040054     A.U. after   11 cycles
 SCF Done:  E(RB3LYP) =  -790.934172786     A.U. after   10 cycles
 SCF Done:  E(RB3LYP) =  -790.934187335     A.U. after    9 cycles
 SCF Done:  E(RB3LYP) =  -790.934198254     A.U. after   10 cycles
 SCF Done:  E(RB3LYP) =  -790.934200840     A.U. after    9 cycles
 SCF Done:  E(RB3LYP) =  -790.934202550     A.U. after    8 cycles
 SCF Done:  E(RB3LYP) =  -790.934202290     A.U. after    7 cycles
 SCF Done:  E(RB3LYP) =  -790.934202632     A.U. after    6 cycles
 Optimization completed.
    -- Stationary point found.
 Normal termination of Gaussian 16 at Fri Dec 11 12:32:33 2020.

 --------------------------------------------------------------------
 #N Geom=AllCheck Guess=TCheck SCRF=Check GenChk RB3LYP/6-31G(d) Freq
 --------------------------------------------------------------------

 Structure from the checkpoint file:  "JID_7556.chk"
 ------------------------------
 CID_61708097_JID_7556_neutraal
 ------------------------------
 Charge =  0 Multiplicity = 1

 SCF Done:  E(RB3LYP) =  -790.934202632     A.U. after    1 cycles

  Exact polarizability: 167.894  -0.563 143.094  -5.528   5.837 137.466
 Approx polarizability: 207.793   3.711 198.115  -8.054   5.361 211.479

                      1                      2                      3
                      A                      A                      A
 Frequencies --      9.8222                23.3780                35.9622
 Red. masses --      4.2046                 3.8402                 3.5251
 Frc consts  --      0.0002                 0.0012                 0.0027
 IR Inten    --      0.0614                 0.5469                 0.7022

                      4                      5                      6
                      A                      A                      A
 Frequencies --     56.1125                65.5319                83.9359
 Red. masses --      5.3264                 3.5100                 4.1093
 Frc consts  --      0.0099                 0.0089                 0.0171
 IR Inten    --      1.9192                 0.2909                 0.9292

                      7                      8                      9
                      A                      A                      A
 Frequencies --    112.3095               122.1554               144.5654
 Red. masses --      3.1555                 3.0291                 3.2519
 Frc consts  --      0.0235                 0.0266                 0.0400
 IR Inten    --      0.2886                 3.6087                 1.3931

                     10                     11                     12
                      A                      A                      A
 Frequencies --    196.4164               221.1130               243.6182
 Red. masses --      4.4131                 4.5133                 1.1225
 Frc consts  --      0.1003                 0.1300                 0.0393
 IR Inten    --      1.8120                 7.3899                 0.2742

                     13                     14                     15
                      A                      A                      A
 Frequencies --    257.9967               277.9133               298.1624
 Red. masses --      1.9381                 1.8731                 2.4053
 Frc consts  --      0.0760                 0.0852                 0.1260
 IR Inten    --      0.6462                 0.2341                 2.7145

                     16                     17                     18
                      A                      A                      A
 Frequencies --    303.8007               329.1682               335.8759
 Red. masses --      1.5669                 2.0968                 1.8578
 Frc consts  --      0.0852                 0.1339                 0.1235
 IR Inten    --      1.4260                 0.9824                 1.4170

                     19                     20                     21
                      A                      A                      A
 Frequencies --    362.7989               367.5445               411.9270
 Red. masses --      2.2809                 2.4125                 2.7717
 Frc consts  --      0.1769                 0.1920                 0.2771
 IR Inten    --      1.3686                 1.8392                 6.2876

                     22                     23                     24
                      A                      A                      A
 Frequencies --    422.3875               438.1881               459.7692
 Red. masses --      2.4154                 2.4422                 3.4356
 Frc consts  --      0.2539                 0.2763                 0.4279
 IR Inten    --      0.3703                 7.3817                 8.7174

                     25                     26                     27
                      A                      A                      A
 Frequencies --    482.2910               520.9987               554.4709
 Red. masses --      2.4657                 1.8697                 2.1751
 Frc consts  --      0.3379                 0.2990                 0.3940
 IR Inten    --     10.0389                21.9161                 2.6657

                     28                     29                     30
                      A                      A                      A
 Frequencies --    599.0212               602.7193               697.2623
 Red. masses --      3.4172                 3.3370                 2.6182
 Frc consts  --      0.7224                 0.7142                 0.7500
 IR Inten    --      0.9400                 7.3666                 5.9860

                     31                     32                     33
                      A                      A                      A
 Frequencies --    757.8321               785.2458               801.8368
 Red. masses --      3.1069                 1.9401                 1.8241
 Frc consts  --      1.0513                 0.7048                 0.6910
 IR Inten    --      8.7437                51.1674                32.3941

                     34                     35                     36
                      A                      A                      A
 Frequencies --    853.7195               862.3552               873.8231
 Red. masses --      3.1261                 2.3987                 2.6310
 Frc consts  --      1.3424                 1.0510                 1.1836
 IR Inten    --      4.2004                 4.7886                 5.8068

                     37                     38                     39
                      A                      A                      A
 Frequencies --    888.4505               907.6107               919.3447
 Red. masses --      2.0131                 1.6391                 2.0570
 Frc consts  --      0.9362                 0.7956                 1.0243
 IR Inten    --      5.6024                 2.1178                11.9412

                     40                     41                     42
                      A                      A                      A
 Frequencies --    935.5456               944.9535               951.9150
 Red. masses --      1.4136                 2.1316                 1.4221
 Frc consts  --      0.7290                 1.1215                 0.7592
 IR Inten    --      3.0380                 1.5499                 8.2925

                     43                     44                     45
                      A                      A                      A
 Frequencies --    956.3449               978.0050              1001.8440
 Red. masses --      1.7420                 1.7021                 2.5388
 Frc consts  --      0.9387                 0.9592                 1.5013
 IR Inten    --     12.5469                11.4772                56.6483

                     46                     47                     48
                      A                      A                      A
 Frequencies --   1019.4179              1033.6431              1070.1847
 Red. masses --      2.4812                 1.8054                 2.2512
 Frc consts  --      1.5192                 1.1365                 1.5191
 IR Inten    --      2.5187                 1.7155                 5.2782

                     49                     50                     51
                      A                      A                      A
 Frequencies --   1073.7324              1102.8552              1110.9339
 Red. masses --      1.8893                 2.2203                 2.0904
 Frc consts  --      1.2833                 1.5911                 1.5200
 IR Inten    --      7.5744                47.6206                 9.0877

                     52                     53                     54
                      A                      A                      A
 Frequencies --   1123.6799              1136.5014              1154.9113
 Red. masses --      2.3256                 2.3873                 2.9662
 Frc consts  --      1.7301                 1.8168                 2.3310
 IR Inten    --     42.3401                15.6163                25.3652

                     55                     56                     57
                      A                      A                      A
 Frequencies --   1162.7971              1183.5580              1193.5648
 Red. masses --      2.1724                 2.0548                 1.2992
 Frc consts  --      1.7306                 1.6959                 1.0905
 IR Inten    --     13.3202                33.7411                26.4849

                     58                     59                     60
                      A                      A                      A
 Frequencies --   1195.5578              1207.9076              1215.4711
 Red. masses --      1.6064                 2.6918                 1.9204
 Frc consts  --      1.3529                 2.3140                 1.6716
 IR Inten    --     50.7269               150.7044                 5.9551

                     61                     62                     63
                      A                      A                      A
 Frequencies --   1227.3294              1274.0282              1286.0573
 Red. masses --      1.2673                 1.3214                 1.2590
 Frc consts  --      1.1248                 1.2637                 1.2268
 IR Inten    --      4.9871                64.8318                 2.7582

                     64                     65                     66
                      A                      A                      A
 Frequencies --   1290.5630              1312.5813              1328.0566
 Red. masses --      1.8890                 1.2811                 1.3320
 Frc consts  --      1.8537                 1.3005                 1.3842
 IR Inten    --    181.7560                20.1830                 8.7584

                     67                     68                     69
                      A                      A                      A
 Frequencies --   1332.8990              1353.9794              1362.8067
 Red. masses --      1.2328                 1.1267                 1.2691
 Frc consts  --      1.2904                 1.2170                 1.3888
 IR Inten    --      6.9666                17.4518                 2.9304

                     70                     71                     72
                      A                      A                      A
 Frequencies --   1376.9095              1387.6878              1392.5863
 Red. masses --      1.3540                 1.3061                 1.3919
 Frc consts  --      1.5124                 1.4818                 1.5904
 IR Inten    --     10.8410                 3.7286                11.2825

                     73                     74                     75
                      A                      A                      A
 Frequencies --   1400.2689              1406.1992              1412.6256
 Red. masses --      1.4006                 1.3477                 1.3205
 Frc consts  --      1.6180                 1.5701                 1.5526
 IR Inten    --     11.7007                 2.2359                 9.5847

                     76                     77                     78
                      A                      A                      A
 Frequencies --   1421.6689              1425.7809              1426.6910
 Red. masses --      1.3009                 1.3499                 1.4015
 Frc consts  --      1.5492                 1.6168                 1.6807
 IR Inten    --      0.7599                11.2332                 6.4431

                     79                     80                     81
                      A                      A                      A
 Frequencies --   1440.5077              1443.7568              1452.0292
 Red. masses --      1.3433                 1.2838                 1.4824
 Frc consts  --      1.6424                 1.5766                 1.8415
 IR Inten    --     10.5534                21.9188                 3.6144

                     82                     83                     84
                      A                      A                      A
 Frequencies --   1500.6533              1504.2540              1507.4943
 Red. masses --      1.2362                 1.0942                 1.0784
 Frc consts  --      1.6402                 1.4588                 1.4439
 IR Inten    --      5.3436                 7.0733                 1.3178

                     85                     86                     87
                      A                      A                      A
 Frequencies --   1511.2164              1514.2159              1516.2882
 Red. masses --      1.0952                 1.0522                 1.1006
 Frc consts  --      1.4737                 1.4215                 1.4909
 IR Inten    --      5.6279                 0.1375                 7.3981

                     88                     89                     90
                      A                      A                      A
 Frequencies --   1518.0277              1521.6633              1528.9176
 Red. masses --      1.0946                 1.0991                 1.1112
 Frc consts  --      1.4862                 1.4994                 1.5304
 IR Inten    --      4.1127                 7.2014                 1.2733

                     91                     92                     93
                      A                      A                      A
 Frequencies --   1529.8851              1533.8239              1541.7965
 Red. masses --      1.0593                 1.0548                 1.0984
 Frc consts  --      1.4607                 1.4621                 1.5384
 IR Inten    --      1.5258                 1.8965                 3.0502

                     94                     95                     96
                      A                      A                      A
 Frequencies --   1550.9073              1822.7265              2923.5319
 Red. masses --      1.0579                11.3241                 1.0735
 Frc consts  --      1.4992                22.1665                 5.4060
 IR Inten    --      1.7990               211.7172                62.9005

                     97                     98                     99
                      A                      A                      A
 Frequencies --   2944.3122              3026.1078              3039.8952
 Red. masses --      1.0710                 1.0802                 1.0621
 Frc consts  --      5.4702                 5.8282                 5.7826
 IR Inten    --     60.7069                12.8783                52.3435

                    100                    101                    102
                      A                      A                      A
 Frequencies --   3042.9428              3045.7760              3046.7706
 Red. masses --      1.0617                 1.0662                 1.0816
 Frc consts  --      5.7919                 5.8277                 5.9154
 IR Inten    --     23.9975                25.1405                30.5965

                    103                    104                    105
                      A                      A                      A
 Frequencies --   3049.8427              3055.1518              3060.3704
 Red. masses --      1.0610                 1.0382                 1.0686
 Frc consts  --      5.8148                 5.7095                 5.8967
 IR Inten    --     41.2849                34.0366                16.6958

                    106                    107                    108
                      A                      A                      A
 Frequencies --   3061.2753              3065.6932              3075.7183
 Red. masses --      1.0400                 1.0887                 1.0670
 Frc consts  --      5.7422                 6.0284                 5.9470
 IR Inten    --     13.6867                57.6935                 0.7752

                    109                    110                    111
                      A                      A                      A
 Frequencies --   3080.6656              3082.6247              3087.2809
 Red. masses --      1.0880                 1.1027                 1.1004
 Frc consts  --      6.0839                 6.1735                 6.1797
 IR Inten    --     56.3549                11.3528                41.9309

                    112                    113                    114
                      A                      A                      A
 Frequencies --   3091.8386              3097.5797              3120.7063
 Red. masses --      1.0925                 1.1030                 1.1005
 Frc consts  --      6.1534                 6.2355                 6.3146
 IR Inten    --     40.1118                61.5391                12.0160

                    115                    116                    117
                      A                      A                      A
 Frequencies --   3124.0459              3130.8296              3139.4180
 Red. masses --      1.1013                 1.1089                 1.0952
 Frc consts  --      6.3329                 6.4041                 6.3600
 IR Inten    --     36.9690                25.0712                23.3636

                    118                    119                    120
                      A                      A                      A
 Frequencies --   3142.6587              3156.3955              3497.7491
 Red. masses --      1.1014                 1.1005                 1.0746
 Frc consts  --      6.4090                 6.4599                 7.7459
 IR Inten    --     17.8543                25.1530                 2.5569

 - Thermochemistry -
 -------------------
 Temperature   298.150 Kelvin.  Pressure   1.00000 Atm.
 Atom     1 has atomic number  6 and mass  12.00000

 Molecular mass:   243.18344 amu.
 Principal axes and moments of inertia in atomic units:
                           1         2         3
     Eigenvalues --  2210.773277813.795268065.17104
           X            0.99994  -0.00650  -0.00912
           Y            0.00749   0.99356   0.11305
           Z            0.00833  -0.11311   0.99355
 This molecule is an asymmetric top.
 Rotational symmetry number  1.
 Warning -- assumption of classical behavior for rotation
           may cause significant error
 Rotational temperatures (Kelvin)      0.03918     0.01108     0.01074
 Rotational constants (GHZ):           0.81634     0.23097     0.22377
 Zero-point vibrational energy     998803.0 (Joules/Mol)
                                  238.71965 (Kcal/Mol)
 Warning -- explicit consideration of  29 degrees of freedom as
           vibrations may cause significant error
 Vibrational temperatures:     14.13    33.64    51.74    80.73    94.29
          (Kelvin)            120.76   161.59   175.75   208.00   282.60
                              318.13   350.51   371.20   399.86   428.99
                              437.10   473.60   483.25   521.99   528.81
                              592.67   607.72   630.45   661.51   693.91
                              749.60   797.76   861.86   867.18  1003.20
                             1090.35  1129.79  1153.66  1228.31  1240.74
                             1257.24  1278.28  1305.85  1322.73  1346.04
                             1359.58  1369.59  1375.97  1407.13  1441.43
                             1466.71  1487.18  1539.76  1544.86  1586.76
                             1598.39  1616.72  1635.17  1661.66  1673.01
                             1702.88  1717.27  1720.14  1737.91  1748.79
                             1765.85  1833.04  1850.35  1856.83  1888.51
                             1910.78  1917.74  1948.07  1960.77  1981.07
                             1996.57  2003.62  2014.67  2023.21  2032.45
                             2045.46  2051.38  2052.69  2072.57  2077.24
                             2089.15  2159.11  2164.29  2168.95  2174.30
                             2178.62  2181.60  2184.10  2189.33  2199.77
                             2201.16  2206.83  2218.30  2231.41  2622.50
                             4206.31  4236.21  4353.89  4373.73  4378.12
                             4382.19  4383.62  4388.04  4395.68  4403.19
                             4404.49  4410.85  4425.27  4432.39  4435.21
                             4441.91  4448.47  4456.73  4490.00  4494.81
                             4504.57  4516.92  4521.58  4541.35  5032.48

 Zero-point correction=                           0.380424 (Hartree/Particle)
 Thermal correction to Energy=                    0.398805
 Thermal correction to Enthalpy=                  0.399749
 Thermal correction to Gibbs Free Energy=         0.331350
 Sum of electronic and zero-point Energies=           -790.553779
 Sum of electronic and thermal Energies=              -790.535398
 Sum of electronic and thermal Enthalpies=            -790.534454
 Sum of electronic and thermal Free Energies=         -790.602853

                     E (Thermal)             CV                S
                      KCal/Mol        Cal/Mol-Kelvin    Cal/Mol-Kelvin
 Total                  250.254             69.277            143.958
 Electronic               0.000              0.000              0.000
 Translational            0.889              2.981             42.367
 Rotational               0.889              2.981             33.299
 Vibrational            248.476             63.315             68.292
 Vibration     1          0.593              1.987              8.047
 Vibration     2          0.593              1.985              6.324
 Vibration     3          0.594              1.982              5.470
 Vibration     4          0.596              1.975              4.589
 Vibration     5          0.597              1.971              4.283
 Vibration     6          0.601              1.960              3.797
 Vibration     7          0.607              1.939              3.229
 Vibration     8          0.610              1.931              3.066
 Vibration     9          0.616              1.909              2.743
 Vibration    10          0.636              1.845              2.166
 Vibration    11          0.648              1.809              1.950
 Vibration    12          0.659              1.773              1.776
 Vibration    13          0.667              1.749              1.675
 Vibration    14          0.679              1.714              1.546
 Vibration    15          0.691              1.677              1.427
 Vibration    16          0.695              1.666              1.396
 Vibration    17          0.712              1.617              1.264
 Vibration    18          0.717              1.604              1.232
 Vibration    19          0.737              1.549              1.110
 Vibration    20          0.740              1.539              1.090
 Vibration    21          0.776              1.444              0.920
 Vibration    22          0.785              1.422              0.884
 Vibration    23          0.798              1.387              0.832
 Vibration    24          0.818              1.339              0.767
 Vibration    25          0.839              1.289              0.704
 Vibration    26          0.876              1.203              0.608
 Vibration    27          0.910              1.130              0.535
 Vibration    28          0.957              1.034              0.451
 Vibration    29          0.961              1.026              0.445

                           ! Non-Optimized Parameters !
 Normal termination of Gaussian 16 at Fri Dec 11 12:52:37 2020.

 ----------------------------------------------------------------------
 # B3LYP/6-311++G(d,p) empiricaldispersion=gd3bj scf=xqc pop=npa geom=c
 heck
 ----------------------------------------------------------------------

 --------------------------------------
 CID_61708097_JID_7556_Energie_neutraal
 --------------------------------------
 Structure from the checkpoint file:  "JID_7556.chk"
 Charge =  0 Multiplicity = 1

 SCF Done:  E(RB3LYP) =  -791.164221536     A.U. after   13 cycles
 Normal termination of Gaussian 16 at Fri Dec 11 13:01:30 2020.

 ----------------------------------------------------------------------
 # B3LYP/6-311++G(d,p) empiricaldispersion=gd3bj scf=xqc pop=npa geom=c
 heck
 ----------------------------------------------------------------------

 ------------------------------------
 CID_61708097_JID_7556_Energie_kation
 ------------------------------------
 Structure from the checkpoint file:  "JID_7556.chk"
 Charge =  1 Multiplicity = 2

 SCF Done:  E(UB3LYP) =  -790.862484932     A.U. after   25 cycles
 Normal termination of Gaussian 16 at Fri Dec 11 13:25:48 2020.
 Gaussian 16:  ES64L-G16RevA.03 25-Dec-2016

 ----------------------------------------------------------------------
 # B3LYP/6-311++G(d,p) empiricaldispersion=gd3bj scf=xqc pop=npa geom=c
 heck
 ----------------------------------------------------------------------

 -----------------------------------
 CID_61708097_JID_7556_Energie_anion
 -----------------------------------
 Structure from the checkpoint file:  "JID_7556.chk"
 Charge = -1 Multiplicity = 2

                         Standard orientation:
 ---------------------------------------------------------------------
 Center     Atomic      Atomic             Coordinates (Angstroms)
 Number     Number       Type             X           Y           Z
 ---------------------------------------------------------------------
      1          6           0       -3.022085   -0.623655    1.898717
      2          6           0       -3.981036   -0.340453    0.743621
      3          6           0       -4.031331    1.143057    0.372717
      4          8           0       -3.764118   -1.159442   -0.420022
      5          6           0       -2.458906   -1.530079   -0.810859
      6          6           0       -1.649108   -0.474258   -1.548307
      7          8           0       -1.070722    0.438712   -0.593071
      8          6           0       -0.052228    1.214482   -1.037007
      9          8           0        0.350751    1.196399   -2.179861
     10          6           0        0.495374    2.075154    0.078230
     11          6           0        1.007228    1.292691    1.305111
     12          6           0        2.156486    0.295410    1.071818
     13          6           0        1.742424   -1.005820    0.360337
     14          6           0        2.940852   -1.958243    0.249550
     15          6           0        4.116704   -1.255743   -0.433596
     16          7           0        4.460782   -0.042795    0.311320
     17          6           0        3.351014    0.913212    0.331167
     18          1           0       -2.008318   -0.279315    1.674942
     19          1           0       -2.990267   -1.693132    2.133855
     20          1           0       -3.368367   -0.092437    2.791815
     21          1           0       -4.987187   -0.642515    1.059983
     22          1           0       -3.041376    1.512945    0.094707
     23          1           0       -4.713792    1.294310   -0.469543
     24          1           0       -4.395421    1.734248    1.221537
     25          1           0       -1.863958   -1.911858    0.029899
     26          1           0       -2.608385   -2.362421   -1.508524
     27          1           0       -0.837486   -0.944650   -2.111563
     28          1           0       -2.278092    0.084689   -2.247889
     29          1           0        1.281524    2.697116   -0.354769
     30          1           0       -0.310777    2.742337    0.409028
     31          1           0        1.339940    2.037797    2.039218
     32          1           0        0.164805    0.761813    1.763448
     33          1           0        2.527280    0.009980    2.066288
     34          1           0        0.910629   -1.483105    0.893914
     35          1           0        1.387923   -0.780909   -0.652804
     36          1           0        3.254624   -2.278098    1.251132
     37          1           0        2.666344   -2.857499   -0.315265
     38          1           0        4.994814   -1.911061   -0.453431
     39          1           0        3.839042   -1.041420   -1.485108
     40          1           0        5.274899    0.395425   -0.113825
     41          1           0        3.031564    1.204720   -0.687618
     42          1           0        3.684950    1.822731    0.845965
 ---------------------------------------------------------------------

 SCF Done:  E(UB3LYP) =  -791.151759022     A.U. after   33 cycles
 SCF Done:  E(UB3LYP) =  -791.151759022     a.u. after    1 cycles

 The electronic state is 2-A.
 Alpha  occ. eigenvalues --  -19.08073 -19.03278 -19.02528 -14.20477 -10.21364
 Alpha  occ. eigenvalues --  -10.14190 -10.13535 -10.13217 -10.09880 -10.09507
 Alpha  occ. eigenvalues --  -10.09218 -10.08151 -10.07846 -10.07237 -10.07108
 Alpha  occ. eigenvalues --  -10.06741 -10.06384  -1.02180  -0.94491  -0.93313
 Alpha  occ. eigenvalues --   -0.81984  -0.72605  -0.70405  -0.68570  -0.66954
 Alpha  occ. eigenvalues --   -0.64608  -0.60060  -0.58134  -0.55521  -0.54495
 Alpha  occ. eigenvalues --   -0.50818  -0.49211  -0.47624  -0.46037  -0.42008
 Alpha  occ. eigenvalues --   -0.41234  -0.41053  -0.39697  -0.39120  -0.37819
 Alpha  occ. eigenvalues --   -0.36794  -0.36122  -0.35826  -0.34306  -0.33767
 Alpha  occ. eigenvalues --   -0.33224  -0.32575  -0.31829  -0.30944  -0.30526
 Alpha  occ. eigenvalues --   -0.30150  -0.29700  -0.28843  -0.28501  -0.27525
 Alpha  occ. eigenvalues --   -0.26409  -0.26222  -0.25592  -0.24653  -0.22993
 Alpha  occ. eigenvalues --   -0.22449  -0.21962  -0.21647  -0.21413  -0.19005
 Alpha  occ. eigenvalues --   -0.17257  -0.13758   0.04031
 Alpha virt. eigenvalues --    0.05705   0.06071   0.07076   0.07245   0.07759
 Alpha virt. eigenvalues --    0.08554   0.08792   0.09237   0.09332   0.09745
 Alpha virt. eigenvalues --    0.09962   0.10530   0.11115   0.11692   0.11920

  Beta  occ. eigenvalues --  -19.08067 -19.03276 -19.02516 -14.20462 -10.21351
  Beta  occ. eigenvalues --  -10.14184 -10.13520 -10.13209 -10.09869 -10.09491
  Beta  occ. eigenvalues --  -10.09205 -10.08131 -10.07842 -10.07226 -10.07097
  Beta  occ. eigenvalues --  -10.06711 -10.06363  -1.02163  -0.94481  -0.93296
  Beta  occ. eigenvalues --   -0.81958  -0.72576  -0.70382  -0.68542  -0.66929
  Beta  occ. eigenvalues --   -0.64578  -0.60011  -0.58096  -0.55486  -0.54453
  Beta  occ. eigenvalues --   -0.50781  -0.49179  -0.47586  -0.46002  -0.41962
  Beta  occ. eigenvalues --   -0.41201  -0.41028  -0.39659  -0.39090  -0.37779
  Beta  occ. eigenvalues --   -0.36767  -0.36098  -0.35799  -0.34281  -0.33741
  Beta  occ. eigenvalues --   -0.33202  -0.32543  -0.31799  -0.30908  -0.30495
  Beta  occ. eigenvalues --   -0.30124  -0.29671  -0.28804  -0.28464  -0.27498
  Beta  occ. eigenvalues --   -0.26384  -0.26197  -0.25565  -0.24630  -0.22972
  Beta  occ. eigenvalues --   -0.22415  -0.21929  -0.21621  -0.21390  -0.18986
  Beta  occ. eigenvalues --   -0.17237  -0.13727
  Beta virt. eigenvalues --    0.05976   0.06469   0.06791   0.07497   0.07673
  Beta virt. eigenvalues --    0.08224   0.08673   0.08921   0.09589   0.09825
  Beta virt. eigenvalues --    0.10110   0.10199   0.10727   0.11286   0.11849

 Mulliken charges and spin densities:
               1          2
     1  C    0.264017  -0.810094
     2  C   -1.212433   1.226874
     3  C    0.389974  -0.883733
     4  O   -0.084751  -0.013042
     5  C   -0.039217  -0.411169
     6  C    0.013683  -0.064079
     7  O    0.132887  -0.013622
     8  C   -0.342899  -0.026143
     9  O   -0.164756   0.005329
    10  C    0.368329  -0.754273
    11  C    0.137242  -0.514622
    12  C    0.530979  -0.119663
    13  C   -0.647259   0.581431
    14  C   -0.008586  -0.549148
    15  C    0.290808  -0.619814
    16  N   -0.219800   0.109955
    17  C    0.109269  -0.824986
    18  H    1.437011  -1.290599
    19  H   -0.307375   0.461253
    20  H   -0.338942   0.487273
    21  H   -0.127343   0.319798
    22  H    0.255629  -0.093366
    23  H   -0.010471   0.150425
    24  H   -0.212218   0.341870
    25  H    0.128552   0.034148
    26  H   -0.102054   0.282303
    27  H    0.116866   0.048733
    28  H    0.128842   0.069675
    29  H    0.088300   0.097453
    30  H   -0.268623   0.466089
    31  H   -0.503199   0.699408
    32  H   -0.719427   0.890284
    33  H    0.175845   0.033520
    34  H   -0.204374   0.351057
    35  H    0.314184  -0.213625
    36  H    0.038238   0.106862
    37  H   -0.185072   0.337849
    38  H   -0.136527   0.315500
    39  H    0.008829   0.087224
    40  H   -0.015247   0.253940
    41  H    0.139791   0.045356
    42  H   -0.218702   0.398368
 Sum of Mulliken charges =  -1.00000   1.00000

 Dipole moment (field-independent basis, Debye):
    X=             -0.3767    Y=             -1.1810    Z=             -3.5323  Tot=              3.7435
 Quadrupole moment (field-independent basis, Debye-Ang):
   XX=           -197.7119   YY=           -154.8284   ZZ=           -153.0793
   XY=             -0.7262   XZ=              5.2685   YZ=             -3.9085

 Summary of Natural Population Analysis:

                                       Natural Population
                Natural  -----------------------------------------------
    Atom  No    Charge         Core      Valence    Rydberg      Total
 -----------------------------------------------------------------------
      C    1   -0.30578      0.99964     2.30065    0.00550     3.30578
      C    2    0.06713      0.99956     1.91915    0.01415     2.93287
      C    3   -0.29954      0.99964     2.29377    0.00613     3.29954
      O    4   -0.30710      0.99988     3.29748    0.00974     4.30710
      C    5   -0.02184      0.99955     2.00845    0.01383     3.02184
      C    6   -0.03021      0.99955     2.02076    0.00990     3.03021
      O    7   -0.29135      0.99985     3.28171    0.00979     4.29135
      C    8    0.41410      0.99968     1.56096    0.02526     2.58590
      O    9   -0.30568      0.99987     3.30076    0.00504     4.30568
      C   10   -0.23693      0.99957     2.22831    0.00905     3.23693
      C   11   -0.18268      0.99960     2.17322    0.00986     3.18268
      C   12   -0.11545      0.99958     2.10478    0.01108     3.11545
      C   13   -0.19263      0.99960     2.18418    0.00884     3.19263
      C   14   -0.19161      0.99963     2.18385    0.00814     3.19161
      C   15   -0.08678      0.99962     2.07682    0.01033     3.08678
      N   16   -0.33973      0.99974     2.82840    0.01159     3.83973
      C   17   -0.08927      0.99959     2.07827    0.01140     3.08927
      H   18    0.10348      0.00000     0.39430    0.00222     0.39652
      H   19    0.10155      0.00000     0.39731    0.00114     0.39845
      H   20    0.10678      0.00000     0.39201    0.00121     0.39322
      H   21    0.08512      0.00000     0.41343    0.00145     0.41488
      H   22    0.10300      0.00000     0.39519    0.00180     0.39700
      H   23    0.09942      0.00000     0.39959    0.00099     0.40058
      H   24    0.10052      0.00000     0.39834    0.00114     0.39948
      H   25    0.08827      0.00000     0.40997    0.00176     0.41173
      H   26    0.09289      0.00000     0.40604    0.00107     0.40711
      H   27    0.09841      0.00000     0.40031    0.00128     0.40159
      H   28    0.09358      0.00000     0.40540    0.00103     0.40642
      H   29    0.10904      0.00000     0.38996    0.00101     0.39096
      H   30    0.11573      0.00000     0.38272    0.00154     0.38427
      H   31    0.10287      0.00000     0.39560    0.00153     0.39713
      H   32    0.10222      0.00000     0.39555    0.00223     0.39778
      H   33    0.10031      0.00000     0.39762    0.00207     0.39969
      H   34    0.10022      0.00000     0.39810    0.00168     0.39978
      H   35    0.09413      0.00000     0.40325    0.00261     0.40587
      H   36    0.09650      0.00000     0.40212    0.00138     0.40350
      H   37    0.09831      0.00000     0.40073    0.00097     0.40169
      H   38    0.09434      0.00000     0.40459    0.00107     0.40566
      H   39    0.07660      0.00000     0.42183    0.00157     0.42340
      H   40    0.17374      0.00000     0.32371    0.00256     0.32626
      H   41    0.08145      0.00000     0.41678    0.00177     0.41855
      H   42    0.09685      0.00000     0.40189    0.00126     0.40315
 =======================================================================
   * Total *    0.00000     16.99416    49.78784    0.21801    67.00000

 Normal termination of Gaussian 16 at Fri Dec 11 13:57:23 2020.
