 Gaussian 16, Revision A.03,

 -----------------------------------------------------------
 # opt freq B3LYP/6-31G(d) empiricaldispersion=gd3bj scf=xqc
 -----------------------------------------------------------

 ------------------------------
 CID_68061219_JID_8422_neutraal
 ------------------------------
 Symbolic Z-matrix:
 Charge =  0 Multiplicity = 1

 SCF Done:  E(RB3LYP) =  -972.492767196     A.U. after   14 cycles
 SCF Done:  E(RB3LYP) =  -972.498934677     A.U. after   12 cycles
 SCF Done:  E(RB3LYP) =  -972.496097423     A.U. after   14 cycles
 SCF Done:  E(RB3LYP) =  -972.502831734     A.U. after   12 cycles
 SCF Done:  E(RB3LYP) =  -972.504137887     A.U. after   11 cycles
 SCF Done:  E(RB3LYP) =  -972.504149061     A.U. after   12 cycles
 SCF Done:  E(RB3LYP) =  -972.505121783     A.U. after   12 cycles
 SCF Done:  E(RB3LYP) =  -972.505483305     A.U. after   12 cycles
 SCF Done:  E(RB3LYP) =  -972.505925911     A.U. after   12 cycles
 SCF Done:  E(RB3LYP) =  -972.506150281     A.U. after   11 cycles
 SCF Done:  E(RB3LYP) =  -972.506686618     A.U. after   11 cycles
 SCF Done:  E(RB3LYP) =  -972.506685554     A.U. after   10 cycles
 SCF Done:  E(RB3LYP) =  -972.506687804     A.U. after    9 cycles
 SCF Done:  E(RB3LYP) =  -972.506688513     A.U. after    8 cycles
 SCF Done:  E(RB3LYP) =  -972.506688670     A.U. after    8 cycles
 Optimization completed.
    -- Stationary point found.
 Normal termination of Gaussian 16 at Fri Dec 11 20:48:25 2020.

 --------------------------------------------------------------------
 #N Geom=AllCheck Guess=TCheck SCRF=Check GenChk RB3LYP/6-31G(d) Freq
 --------------------------------------------------------------------

 Structure from the checkpoint file:  "JID_8422.chk"
 ------------------------------
 CID_68061219_JID_8422_neutraal
 ------------------------------
 Charge =  0 Multiplicity = 1

 SCF Done:  E(RB3LYP) =  -972.506688670     A.U. after    1 cycles

  Exact polarizability: 158.624  -4.963 121.615   2.666   2.031 113.583
 Approx polarizability: 191.366  -4.933 174.730   1.188   5.457 186.176

                      1                      2                      3
                      A                      A                      A
 Frequencies --     26.0648                33.6049                45.6103
 Red. masses --      5.1456                 3.7077                 5.5368
 Frc consts  --      0.0021                 0.0025                 0.0068
 IR Inten    --      0.4972                 0.4170                 0.2782

                      4                      5                      6
                      A                      A                      A
 Frequencies --     68.4729                89.3960                98.4337
 Red. masses --      5.6123                 6.0478                 3.4912
 Frc consts  --      0.0155                 0.0285                 0.0199
 IR Inten    --      3.1184                 1.6756                 0.8551

                      7                      8                      9
                      A                      A                      A
 Frequencies --    110.9708               143.4488               161.5901
 Red. masses --      3.3889                 4.7216                 3.4234
 Frc consts  --      0.0246                 0.0572                 0.0527
 IR Inten    --      0.1261                 4.3324                 5.0291

                     10                     11                     12
                      A                      A                      A
 Frequencies --    179.7152               210.5181               228.9001
 Red. masses --      3.1626                 1.2867                 5.7427
 Frc consts  --      0.0602                 0.0336                 0.1773
 IR Inten    --      3.4229                49.8487                 5.7179

                     13                     14                     15
                      A                      A                      A
 Frequencies --    231.5909               248.4294               260.7628
 Red. masses --      2.7070                 4.0260                 3.0998
 Frc consts  --      0.0855                 0.1464                 0.1242
 IR Inten    --      7.1338                 3.5130                13.8995

                     16                     17                     18
                      A                      A                      A
 Frequencies --    277.4613               307.9612               359.7345
 Red. masses --      1.6661                 3.5929                 4.4522
 Frc consts  --      0.0756                 0.2008                 0.3395
 IR Inten    --      3.5239                 2.3918                 7.9700

                     19                     20                     21
                      A                      A                      A
 Frequencies --    391.4868               408.9361               423.9000
 Red. masses --      4.1313                 2.1660                 6.7063
 Frc consts  --      0.3731                 0.2134                 0.7100
 IR Inten    --      4.2212                 1.9789                 5.3901

                     22                     23                     24
                      A                      A                      A
 Frequencies --    503.4929               512.3589               548.3758
 Red. masses --      4.1583                 4.5036                 5.1781
 Frc consts  --      0.6211                 0.6966                 0.9174
 IR Inten    --     16.2115                24.6336                14.8997

                     25                     26                     27
                      A                      A                      A
 Frequencies --    602.7503               632.5331               643.1645
 Red. masses --      4.3436                 4.3474                 3.2393
 Frc consts  --      0.9298                 1.0248                 0.7895
 IR Inten    --      4.5324                 4.5784                 6.2487

                     28                     29                     30
                      A                      A                      A
 Frequencies --    661.2739               682.6098               735.3009
 Red. masses --      3.1387                 1.5903                 2.3794
 Frc consts  --      0.8087                 0.4366                 0.7580
 IR Inten    --      8.8146                84.0225                 5.4396

                     31                     32                     33
                      A                      A                      A
 Frequencies --    765.8373               797.5007               814.0469
 Red. masses --      5.8547                 4.5409                 1.8794
 Frc consts  --      2.0231                 1.7016                 0.7338
 IR Inten    --    150.1337                60.6841                 9.1353

                     34                     35                     36
                      A                      A                      A
 Frequencies --    831.2389               856.3643               865.7793
 Red. masses --      4.2809                 5.1330                 3.1449
 Frc consts  --      1.7427                 2.2179                 1.3889
 IR Inten    --     37.9893                10.6148                11.2016

                     37                     38                     39
                      A                      A                      A
 Frequencies --    883.0375               897.3801               923.1815
 Red. masses --      2.5773                 2.2193                 1.6945
 Frc consts  --      1.1840                 1.0530                 0.8509
 IR Inten    --     13.5753                 3.7484                 1.9345

                     40                     41                     42
                      A                      A                      A
 Frequencies --    929.0289               946.0548               978.2658
 Red. masses --      2.4738                 3.1030                 3.4913
 Frc consts  --      1.2580                 1.6363                 1.9686
 IR Inten    --      5.3790                 8.4335                16.5300

                     43                     44                     45
                      A                      A                      A
 Frequencies --    998.5787              1000.2631              1007.4613
 Red. masses --      5.2811                 2.4120                 5.2069
 Frc consts  --      3.1027                 1.4219                 3.1138
 IR Inten    --    105.1279                19.5605                59.2348

                     46                     47                     48
                      A                      A                      A
 Frequencies --   1044.9286              1061.6564              1081.1174
 Red. masses --      1.9325                 2.2936                 2.2466
 Frc consts  --      1.2432                 1.5232                 1.5471
 IR Inten    --     55.5072                 1.4375                17.2707

                     49                     50                     51
                      A                      A                      A
 Frequencies --   1090.0424              1111.7681              1112.5279
 Red. masses --      1.7409                 2.9643                 3.2543
 Frc consts  --      1.2187                 2.1588                 2.3732
 IR Inten    --     32.9371               243.6839                 6.1580

                     52                     53                     54
                      A                      A                      A
 Frequencies --   1127.0707              1129.0564              1146.3655
 Red. masses --      2.3094                 2.2639                 4.7458
 Frc consts  --      1.7285                 1.7004                 3.6746
 IR Inten    --     27.9521                21.6339                47.0477

                     55                     56                     57
                      A                      A                      A
 Frequencies --   1156.1618              1213.1016              1225.2272
 Red. masses --      4.4485                 2.1074                 1.2596
 Frc consts  --      3.5035                 1.8272                 1.1141
 IR Inten    --     31.3588               194.8867                26.2550

                     58                     59                     60
                      A                      A                      A
 Frequencies --   1235.8295              1276.9047              1282.9105
 Red. masses --      1.2609                 1.3339                 2.0090
 Frc consts  --      1.1346                 1.2814                 1.9482
 IR Inten    --     13.6210                 5.1069                 6.4671

                     61                     62                     63
                      A                      A                      A
 Frequencies --   1295.3926              1303.1163              1320.4831
 Red. masses --      1.4841                 1.3732                 1.4268
 Frc consts  --      1.4673                 1.3739                 1.4659
 IR Inten    --    119.1622                47.3278                 6.1872

                     64                     65                     66
                      A                      A                      A
 Frequencies --   1324.8277              1356.7191              1360.6454
 Red. masses --      1.2073                 1.2701                 1.3783
 Frc consts  --      1.2484                 1.3774                 1.5034
 IR Inten    --      1.9898                 0.5106                 5.3815

                     67                     68                     69
                      A                      A                      A
 Frequencies --   1368.9502              1378.3246              1391.1597
 Red. masses --      1.2806                 1.3556                 1.3520
 Frc consts  --      1.4139                 1.5174                 1.5417
 IR Inten    --      8.4184                25.0542                15.0681

                     70                     71                     72
                      A                      A                      A
 Frequencies --   1400.5202              1411.3786              1421.3524
 Red. masses --      1.4318                 1.5163                 1.4850
 Frc consts  --      1.6547                 1.7796                 1.7676
 IR Inten    --     28.6693                 0.2811                14.1987

                     73                     74                     75
                      A                      A                      A
 Frequencies --   1437.9509              1454.1006              1507.5463
 Red. masses --      1.2247                 1.2384                 1.1159
 Frc consts  --      1.4920                 1.5428                 1.4943
 IR Inten    --     33.5743                 2.7154                 8.3304

                     76                     77                     78
                      A                      A                      A
 Frequencies --   1521.5523              1533.2983              1539.3579
 Red. masses --      1.0696                 1.0540                 1.1084
 Frc consts  --      1.4590                 1.4599                 1.5474
 IR Inten    --      3.4233                 6.9467                64.3295

                     79                     80                     81
                      A                      A                      A
 Frequencies --   1539.9346              1548.1033              1563.1308
 Red. masses --      1.0724                 1.1615                 1.0846
 Frc consts  --      1.4983                 1.6401                 1.5613
 IR Inten    --     21.7419                96.9573                 3.8033

                     82                     83                     84
                      A                      A                      A
 Frequencies --   1823.4631              3052.2593              3053.6738
 Red. masses --     11.4660                 1.0540                 1.0444
 Frc consts  --     22.4623                 5.7856                 5.7382
 IR Inten    --    200.7768                18.4498                28.5256

                     85                     86                     87
                      A                      A                      A
 Frequencies --   3057.1290              3061.6202              3067.1391
 Red. masses --      1.0764                 1.0722                 1.0677
 Frc consts  --      5.9272                 5.9217                 5.9181
 IR Inten    --      6.9882                11.7035                56.7978

                     88                     89                     90
                      A                      A                      A
 Frequencies --   3076.8657              3090.8881              3108.1855
 Red. masses --      1.0701                 1.0912                 1.0881
 Frc consts  --      5.9689                 6.1424                 6.1933
 IR Inten    --      4.6217                18.8484                16.0653

                     91                     92                     93
                      A                      A                      A
 Frequencies --   3117.3451              3123.4237              3133.5614
 Red. masses --      1.1015                 1.1043                 1.0910
 Frc consts  --      6.3065                 6.3475                 6.3120
 IR Inten    --     32.9983                36.2775                26.4133

                     94                     95                     96
                      A                      A                      A
 Frequencies --   3134.2958              3135.6409              3151.4056
 Red. masses --      1.1023                 1.1043                 1.0881
 Frc consts  --      6.3803                 6.3971                 6.3668
 IR Inten    --     20.5481                26.6206                 7.6491

                     97                     98                     99
                      A                      A                      A
 Frequencies --   3175.9204              3535.7887              3730.4639
 Red. masses --      1.0971                 1.0655                 1.0668
 Frc consts  --      6.5200                 7.8480                 8.7468
 IR Inten    --     11.1545               381.7796                41.2768

 - Thermochemistry -
 -------------------
 Temperature   298.150 Kelvin.  Pressure   1.00000 Atm.
 Atom     1 has atomic number  6 and mass  12.00000

 Molecular mass:   263.10050 amu.
 Principal axes and moments of inertia in atomic units:
                           1         2         3
     Eigenvalues --  2315.297097588.423638720.02972
           X            0.99959  -0.02704   0.00894
           Y            0.02717   0.99952  -0.01488
           Z           -0.00853   0.01511   0.99985
 This molecule is an asymmetric top.
 Rotational symmetry number  1.
 Warning -- assumption of classical behavior for rotation
           may cause significant error
 Rotational temperatures (Kelvin)      0.03741     0.01141     0.00993
 Rotational constants (GHZ):           0.77949     0.23783     0.20697
 Zero-point vibrational energy     754989.9 (Joules/Mol)
                                  180.44691 (Kcal/Mol)
 Warning -- explicit consideration of  25 degrees of freedom as
           vibrations may cause significant error
 Vibrational temperatures:     37.50    48.35    65.62    98.52   128.62
          (Kelvin)            141.62   159.66   206.39   232.49   258.57
                              302.89   329.34   333.21   357.43   375.18
                              399.20   443.09   517.58   563.26   588.37
                              609.90   724.41   737.17   788.99   867.22
                              910.07   925.37   951.43   982.12  1057.93
                             1101.87  1147.43  1171.23  1195.97  1232.12
                             1245.66  1270.49  1291.13  1328.25  1336.67
                             1361.16  1407.51  1436.73  1439.16  1449.51
                             1503.42  1527.49  1555.49  1568.33  1599.59
                             1600.68  1621.60  1624.46  1649.36  1663.46
                             1745.38  1762.83  1778.08  1837.18  1845.82
                             1863.78  1874.89  1899.88  1906.13  1952.02
                             1957.67  1969.61  1983.10  2001.57  2015.04
                             2030.66  2045.01  2068.89  2092.13  2169.02
                             2189.17  2206.07  2214.79  2215.62  2227.38
                             2249.00  2623.56  4391.52  4393.56  4398.53
                             4404.99  4412.93  4426.92  4447.10  4471.99
                             4485.16  4493.91  4508.50  4509.55  4511.49
                             4534.17  4569.44  5087.21  5367.31

 Zero-point correction=                           0.287560 (Hartree/Particle)
 Thermal correction to Energy=                    0.305239
 Thermal correction to Enthalpy=                  0.306183
 Thermal correction to Gibbs Free Energy=         0.240468
 Sum of electronic and zero-point Energies=           -972.219128
 Sum of electronic and thermal Energies=              -972.201450
 Sum of electronic and thermal Enthalpies=            -972.200505
 Sum of electronic and thermal Free Energies=         -972.266221

                     E (Thermal)             CV                S
                      KCal/Mol        Cal/Mol-Kelvin    Cal/Mol-Kelvin
 Total                  191.540             66.075            138.309
 Electronic               0.000              0.000              0.000
 Translational            0.889              2.981             42.602
 Rotational               0.889              2.981             33.393
 Vibrational            189.763             60.114             62.315
 Vibration     1          0.593              1.985              6.108
 Vibration     2          0.594              1.983              5.604
 Vibration     3          0.595              1.979              4.999
 Vibration     4          0.598              1.969              4.197
 Vibration     5          0.602              1.957              3.673
 Vibration     6          0.604              1.950              3.485
 Vibration     7          0.607              1.940              3.252
 Vibration     8          0.616              1.910              2.757
 Vibration     9          0.622              1.889              2.531
 Vibration    10          0.629              1.867              2.331
 Vibration    11          0.643              1.825              2.039
 Vibration    12          0.652              1.797              1.888
 Vibration    13          0.653              1.793              1.867
 Vibration    14          0.662              1.765              1.742
 Vibration    15          0.669              1.745              1.657
 Vibration    16          0.678              1.715              1.549
 Vibration    17          0.698              1.659              1.373
 Vibration    18          0.734              1.555              1.123
 Vibration    19          0.759              1.488              0.994
 Vibration    20          0.773              1.451              0.930
 Vibration    21          0.786              1.418              0.879
 Vibration    22          0.859              1.242              0.649
 Vibration    23          0.867              1.223              0.628
 Vibration    24          0.904              1.143              0.548
 Vibration    25          0.961              1.026              0.445

                           ! Non-Optimized Parameters !
 Normal termination of Gaussian 16 at Fri Dec 11 21:04:17 2020.

 ----------------------------------------------------------------------
 # B3LYP/6-311++G(d,p) empiricaldispersion=gd3bj scf=xqc pop=npa geom=c
 heck
 ----------------------------------------------------------------------

 --------------------------------------
 CID_68061219_JID_8422_Energie_neutraal
 --------------------------------------
 Structure from the checkpoint file:  "JID_8422.chk"
 Charge =  0 Multiplicity = 1

 SCF Done:  E(RB3LYP) =  -972.807319999     A.U. after   14 cycles
 Normal termination of Gaussian 16 at Fri Dec 11 21:09:34 2020.

 ----------------------------------------------------------------------
 # B3LYP/6-311++G(d,p) empiricaldispersion=gd3bj scf=xqc pop=npa geom=c
 heck
 ----------------------------------------------------------------------

 ------------------------------------
 CID_68061219_JID_8422_Energie_kation
 ------------------------------------
 Structure from the checkpoint file:  "JID_8422.chk"
 Charge =  1 Multiplicity = 2

 SCF Done:  E(UB3LYP) =  -972.477273064     A.U. after   27 cycles
 Normal termination of Gaussian 16 at Fri Dec 11 21:23:52 2020.
 Gaussian 16:  ES64L-G16RevA.03 25-Dec-2016

 ----------------------------------------------------------------------
 # B3LYP/6-311++G(d,p) empiricaldispersion=gd3bj scf=xqc pop=npa geom=c
 heck
 ----------------------------------------------------------------------

 -----------------------------------
 CID_68061219_JID_8422_Energie_anion
 -----------------------------------
 Structure from the checkpoint file:  "JID_8422.chk"
 Charge = -1 Multiplicity = 2

                         Standard orientation:
 ---------------------------------------------------------------------
 Center     Atomic      Atomic             Coordinates (Angstroms)
 Number     Number       Type             X           Y           Z
 ---------------------------------------------------------------------
      1          6           0       -2.889409    2.191354   -0.946083
      2          6           0       -4.145988    1.643220   -0.263045
      3          6           0       -4.276727    0.104200   -0.328349
      4          6           0       -3.183875   -0.555073    0.475962
      5          8           0       -3.214252   -0.760879    1.669882
      6          8           0       -2.102310   -0.834152   -0.297631
      7          6           0       -0.930790   -1.312434    0.390884
      8          6           0       -0.253801   -0.192017    1.167489
      9          8           0        0.399846    0.594971    0.158177
     10          6           0        0.760566   -0.238941   -0.961739
     11          6           0        0.094226   -1.604152   -0.706234
     12          8           0        1.107218   -2.491101   -0.219426
     13          6           0        2.343572   -1.793646   -0.045863
     14          6           0        2.259246   -0.607286   -1.015963
     15          8           0        3.209705    0.422310   -0.864454
     16          7           0        3.214892    0.944363    0.535854
     17          8           0        4.545849    1.341054    0.695279
     18          8           0        2.572702    2.176491    0.471373
     19          1           0       -1.968769    1.829590   -0.477562
     20          1           0       -2.877721    3.285804   -0.907052
     21          1           0       -2.857391    1.893463   -2.000971
     22          1           0       -4.170117    1.949458    0.789981
     23          1           0       -5.037866    2.073021   -0.734392
     24          1           0       -5.233643   -0.203521    0.102415
     25          1           0       -4.228006   -0.232897   -1.368458
     26          1           0       -1.172817   -2.184675    0.998979
     27          1           0       -0.948294    0.451817    1.705268
     28          1           0        0.477716   -0.607444    1.871748
     29          1           0        0.419802    0.271681   -1.863977
     30          1           0       -0.376905   -2.046835   -1.587798
     31          1           0        2.464546   -1.445513    0.986505
     32          1           0        3.156418   -2.483563   -0.287441
     33          1           0        2.443407   -0.976743   -2.032562
     34          1           0        4.958346    0.533870    1.046978
     35          1           0        1.634862    1.881046    0.499424
 ---------------------------------------------------------------------

 SCF Done:  E(UB3LYP) =  -972.799847860     A.U. after   33 cycles
 SCF Done:  E(UB3LYP) =  -972.799847860     a.u. after    1 cycles

 The electronic state is 2-A.
 Alpha  occ. eigenvalues --  -19.08718 -19.08152 -19.06952 -19.06745 -19.06737
 Alpha  occ. eigenvalues --  -19.05281 -19.02846 -14.38541 -10.21520 -10.15986
 Alpha  occ. eigenvalues --  -10.15393 -10.15256 -10.14992 -10.14960 -10.13456
 Alpha  occ. eigenvalues --  -10.09415 -10.08929 -10.06894  -1.07679  -1.02941
 Alpha  occ. eigenvalues --   -0.98951  -0.96046  -0.94224  -0.93853  -0.93601
 Alpha  occ. eigenvalues --   -0.72975  -0.70656  -0.70231  -0.66332  -0.63788
 Alpha  occ. eigenvalues --   -0.62480  -0.57275  -0.52997  -0.51823  -0.50967
 Alpha  occ. eigenvalues --   -0.48915  -0.47844  -0.45109  -0.43763  -0.42956
 Alpha  occ. eigenvalues --   -0.42340  -0.41308  -0.40466  -0.39608  -0.37813
 Alpha  occ. eigenvalues --   -0.36885  -0.36374  -0.35180  -0.35064  -0.34430
 Alpha  occ. eigenvalues --   -0.32970  -0.32555  -0.32258  -0.31386  -0.30555
 Alpha  occ. eigenvalues --   -0.29851  -0.28396  -0.27131  -0.26543  -0.26143
 Alpha  occ. eigenvalues --   -0.25956  -0.25497  -0.25259  -0.24120  -0.22835
 Alpha  occ. eigenvalues --   -0.21424  -0.19845  -0.19025  -0.17875  -0.16369
 Alpha  occ. eigenvalues --    0.03717
 Alpha virt. eigenvalues --    0.05081   0.06265   0.07444   0.07685   0.08036
 Alpha virt. eigenvalues --    0.08580   0.08991   0.09725   0.09893   0.10371
 Alpha virt. eigenvalues --    0.10829   0.11240   0.11669   0.12580   0.13073

  Beta  occ. eigenvalues --  -19.08703 -19.08116 -19.06948 -19.06741 -19.06734
  Beta  occ. eigenvalues --  -19.05280 -19.02808 -14.38531 -10.21467 -10.15986
  Beta  occ. eigenvalues --  -10.15380 -10.15246 -10.14982 -10.14954 -10.13427
  Beta  occ. eigenvalues --  -10.09401 -10.08903 -10.06869  -1.07652  -1.02890
  Beta  occ. eigenvalues --   -0.98933  -0.96036  -0.94167  -0.93798  -0.93591
  Beta  occ. eigenvalues --   -0.72932  -0.70622  -0.70198  -0.66297  -0.63739
  Beta  occ. eigenvalues --   -0.62424  -0.57234  -0.52935  -0.51796  -0.50914
  Beta  occ. eigenvalues --   -0.48884  -0.47799  -0.45057  -0.43723  -0.42883
  Beta  occ. eigenvalues --   -0.42314  -0.41261  -0.40417  -0.39551  -0.37778
  Beta  occ. eigenvalues --   -0.36834  -0.36341  -0.35135  -0.35025  -0.34408
  Beta  occ. eigenvalues --   -0.32910  -0.32523  -0.32207  -0.31349  -0.30487
  Beta  occ. eigenvalues --   -0.29815  -0.28368  -0.27108  -0.26511  -0.26102
  Beta  occ. eigenvalues --   -0.25908  -0.25455  -0.25218  -0.24095  -0.22729
  Beta  occ. eigenvalues --   -0.21410  -0.19812  -0.19005  -0.17859  -0.16340
  Beta virt. eigenvalues --    0.05984   0.06444   0.07137   0.07662   0.07863
  Beta virt. eigenvalues --    0.08675   0.08927   0.09433   0.09957   0.10283
  Beta virt. eigenvalues --    0.10575   0.11144   0.11410   0.11896   0.12675

 Mulliken charges and spin densities:
               1          2
     1  C    0.377059  -0.919069
     2  C   -0.534098   0.390357
     3  C    0.050245  -0.285881
     4  C    0.510979  -0.638959
     5  O   -0.266942   0.027432
     6  O    0.077874   0.022267
     7  C   -0.885551   0.402273
     8  C    0.416690  -0.615806
     9  O   -0.028842  -0.020950
    10  C    0.779278  -0.634206
    11  C    0.067676  -0.268589
    12  O   -0.098598   0.009120
    13  C    0.791224  -1.099315
    14  C   -1.243452   0.554106
    15  O    0.092284  -0.002012
    16  N   -0.302212  -0.201130
    17  O   -0.004769   0.038306
    18  O   -0.100944  -0.004196
    19  H    0.266594  -0.100787
    20  H   -0.055830   0.186711
    21  H   -0.100462   0.241580
    22  H    0.086066   0.058900
    23  H   -0.545163   0.729170
    24  H   -0.026538   0.208180
    25  H   -0.201943   0.385557
    26  H    0.213262   0.045075
    27  H    0.305819  -0.067306
    28  H    0.028767   0.125004
    29  H   -0.034087   0.279501
    30  H   -0.320092   0.587223
    31  H    0.107797   0.118917
    32  H   -0.526721   0.730087
    33  H   -0.129068   0.363614
    34  H   -0.044368   0.324282
    35  H    0.278066   0.030544
 Sum of Mulliken charges =  -1.00000   1.00000

 Dipole moment (field-independent basis, Debye):
    X=             -0.7488    Y=             -1.0140    Z=              2.5459  Tot=              2.8408
 Quadrupole moment (field-independent basis, Debye-Ang):
   XX=           -211.8256   YY=           -151.7090   ZZ=           -141.7369
   XY=              4.9076   XZ=             -6.2165   YZ=              1.1941

 Summary of Natural Population Analysis:

                                       Natural Population
                Natural  -----------------------------------------------
    Atom  No    Charge         Core      Valence    Rydberg      Total
 -----------------------------------------------------------------------
      C    1   -0.28974      0.99966     2.28418    0.00590     3.28974
      C    2   -0.18469      0.99964     2.17723    0.00782     3.18469
      C    3   -0.23392      0.99958     2.22564    0.00869     3.23392
      C    4    0.41887      0.99968     1.55603    0.02542     2.58113
      O    5   -0.30771      0.99987     3.30258    0.00526     4.30771
      O    6   -0.28658      0.99985     3.27646    0.01026     4.28658
      C    7    0.03829      0.99949     1.94782    0.01439     2.96171
      C    8   -0.02206      0.99955     2.01211    0.01040     3.02206
      O    9   -0.31607      0.99988     3.30678    0.00940     4.31607
      C   10    0.04588      0.99952     1.93971    0.01489     2.95412
      C   11    0.05157      0.99951     1.93292    0.01600     2.94843
      O   12   -0.30079      0.99989     3.29266    0.00824     4.30079
      C   13   -0.02201      0.99956     2.00915    0.01331     3.02201
      C   14    0.03775      0.99950     1.94503    0.01772     2.96225
      O   15   -0.22777      0.99989     3.21758    0.01030     4.22777
      N   16    0.14041      0.99987     2.33847    0.02125     3.35959
      O   17   -0.26414      0.99989     3.25616    0.00808     4.26414
      O   18   -0.27743      0.99988     3.27008    0.00747     4.27743
      H   19    0.10112      0.00000     0.39711    0.00178     0.39888
      H   20    0.09844      0.00000     0.40073    0.00083     0.40156
      H   21    0.09959      0.00000     0.39910    0.00131     0.40041
      H   22    0.09564      0.00000     0.40334    0.00102     0.40436
      H   23    0.10075      0.00000     0.39724    0.00201     0.39925
      H   24    0.11080      0.00000     0.38813    0.00107     0.38920
      H   25    0.11031      0.00000     0.38777    0.00192     0.38969
      H   26    0.10860      0.00000     0.39031    0.00109     0.39140
      H   27    0.10478      0.00000     0.39420    0.00102     0.39522
      H   28    0.09108      0.00000     0.40759    0.00132     0.40892
      H   29    0.10522      0.00000     0.39322    0.00156     0.39478
      H   30    0.10599      0.00000     0.39219    0.00182     0.39401
      H   31    0.08599      0.00000     0.41129    0.00272     0.41401
      H   32    0.09643      0.00000     0.40134    0.00223     0.40357
      H   33    0.10364      0.00000     0.39457    0.00179     0.39636
      H   34    0.23597      0.00000     0.25775    0.00628     0.26403
      H   35    0.24578      0.00000     0.25064    0.00358     0.25422
 =======================================================================
   * Total *    0.00000     17.99472    51.75713    0.24815    70.00000

 Normal termination of Gaussian 16 at Fri Dec 11 21:41:25 2020.
