 Gaussian 16, Revision A.03,

 -----------------------------------------------------------
 # opt freq B3LYP/6-31G(d) empiricaldispersion=gd3bj scf=xqc
 -----------------------------------------------------------

 -------------------------------
 CID_150298810_JID_1575_neutraal
 -------------------------------
 Symbolic Z-matrix:
 Charge =  0 Multiplicity = 1

 SCF Done:  E(RB3LYP) =  -542.465929581     A.U. after   16 cycles
 SCF Done:  E(RB3LYP) =  -542.472115539     A.U. after   15 cycles
 SCF Done:  E(RB3LYP) =  -542.474074708     A.U. after   15 cycles
 SCF Done:  E(RB3LYP) =  -542.475263003     A.U. after   14 cycles
 SCF Done:  E(RB3LYP) =  -542.475977273     A.U. after   15 cycles
 SCF Done:  E(RB3LYP) =  -542.476140855     A.U. after   15 cycles
 SCF Done:  E(RB3LYP) =  -542.476281408     A.U. after   14 cycles
 SCF Done:  E(RB3LYP) =  -542.476386951     A.U. after   12 cycles
 SCF Done:  E(RB3LYP) =  -542.476404915     A.U. after   13 cycles
 SCF Done:  E(RB3LYP) =  -542.476412079     A.U. after   11 cycles
 SCF Done:  E(RB3LYP) =  -542.476413244     A.U. after   10 cycles
 SCF Done:  E(RB3LYP) =  -542.476413417     A.U. after    8 cycles
 Optimization completed.
    -- Stationary point found.
 Normal termination of Gaussian 16 at Tue Dec  8 20:23:43 2020.

 --------------------------------------------------------------------
 #N Geom=AllCheck Guess=TCheck SCRF=Check GenChk RB3LYP/6-31G(d) Freq
 --------------------------------------------------------------------

 Structure from the checkpoint file:  "JID_1575.chk"
 -------------------------------
 CID_150298810_JID_1575_neutraal
 -------------------------------
 Charge =  0 Multiplicity = 1

 SCF Done:  E(RB3LYP) =  -542.476413417     A.U. after    1 cycles

  Exact polarizability: 136.639   5.546  90.597  -0.005  -0.005  38.074
 Approx polarizability: 261.579  26.647 149.874  -0.022  -0.019  57.373

                      1                      2                      3
                      A                      A                      A
 Frequencies --     42.0132               113.0348               140.2611
 Red. masses --      8.9867                 3.6206                 6.8536
 Frc consts  --      0.0093                 0.0273                 0.0794
 IR Inten    --      0.0007                 3.4610                 1.0460

                      4                      5                      6
                      A                      A                      A
 Frequencies --    151.8622               185.2987               236.4982
 Red. masses --      1.6593                 1.9654                 4.8276
 Frc consts  --      0.0225                 0.0398                 0.1591
 IR Inten    --      0.0392                 0.4675                 1.5589

                      7                      8                      9
                      A                      A                      A
 Frequencies --    309.5800               327.1896               458.1541
 Red. masses --      6.0902                 5.9234                 4.7355
 Frc consts  --      0.3439                 0.3736                 0.5856
 IR Inten    --      4.7340                 5.3921                 6.6130

                     10                     11                     12
                      A                      A                      A
 Frequencies --    472.0405               524.6113               527.5045
 Red. masses --      9.4623                 7.2405                12.6277
 Frc consts  --      1.2422                 1.1741                 2.0703
 IR Inten    --      0.2333                 4.5289                 7.7382

                     13                     14                     15
                      A                      A                      A
 Frequencies --    602.5520               616.4621               705.6304
 Red. masses --      4.1997                 7.4840                 9.2883
 Frc consts  --      0.8984                 1.6757                 2.7248
 IR Inten    --      3.9274                 2.7327                14.4876

                     16                     17                     18
                      A                      A                      A
 Frequencies --    772.3784               790.3574               893.7968
 Red. masses --      6.5785                 7.0975                 7.5626
 Frc consts  --      2.3122                 2.6122                 3.5596
 IR Inten    --     14.6851                 0.3293                25.9762

                     19                     20                     21
                      A                      A                      A
 Frequencies --    937.3701               981.5426              1051.2607
 Red. masses --      1.4463                 1.4496                 7.9679
 Frc consts  --      0.7487                 0.8229                 5.1882
 IR Inten    --      8.8463                 0.6197                92.6980

                     22                     23                     24
                      A                      A                      A
 Frequencies --   1133.0581              1184.3275              1199.6215
 Red. masses --      9.7172                 1.2622                 2.0554
 Frc consts  --      7.3501                 1.0431                 1.7428
 IR Inten    --     32.8111                 0.7249                11.8827

                     25                     26                     27
                      A                      A                      A
 Frequencies --   1214.2186              1285.6372              1311.7587
 Red. masses --      1.6224                 4.7225                 3.9964
 Frc consts  --      1.4093                 4.5989                 4.0516
 IR Inten    --     32.2442                13.5785                 2.1223

                     28                     29                     30
                      A                      A                      A
 Frequencies --   1356.6407              1394.4488              1460.4084
 Red. masses --      2.8069                 2.7172                 2.5394
 Frc consts  --      3.0437                 3.1130                 3.1911
 IR Inten    --     68.6382                55.9034               131.4971

                     31                     32                     33
                      A                      A                      A
 Frequencies --   1470.0332              1509.9930              1522.9352
 Red. masses --      1.6878                 1.0483                 1.0540
 Frc consts  --      2.1490                 1.4083                 1.4403
 IR Inten    --    159.7256                 6.5213                27.5939

                     34                     35                     36
                      A                      A                      A
 Frequencies --   1538.1163              1609.4832              1622.1269
 Red. masses --      2.2455                 7.6700                 6.0650
 Frc consts  --      3.1299                11.7063                 9.4027
 IR Inten    --    122.0134               117.9262                40.3321

                     37                     38                     39
                      A                      A                      A
 Frequencies --   2280.6634              3078.0409              3154.6921
 Red. masses --     13.9910                 1.0292                 1.1078
 Frc consts  --     42.8767                 5.7450                 6.4958
 IR Inten    --    733.5117                33.9088                18.2387

                     40                     41                     42
                      A                      A                      A
 Frequencies --   3187.6670              3196.3259              3203.5402
 Red. masses --      1.1075                 1.0907                 1.0923
 Frc consts  --      6.6302                 6.5652                 6.6049
 IR Inten    --     13.7087                16.2461                15.2800

 - Thermochemistry -
 -------------------
 Temperature   298.150 Kelvin.  Pressure   1.00000 Atm.
 Atom     1 has atomic number  6 and mass  12.00000

 Molecular mass:   151.04941 amu.
 Principal axes and moments of inertia in atomic units:
                           1         2         3
     Eigenvalues --  1010.532471735.870052734.99879
           X            0.99951   0.03134   0.00000
           Y           -0.03134   0.99951   0.00000
           Z           -0.00000  -0.00000   1.00000
 This molecule is an asymmetric top.
 Rotational symmetry number  1.
 Warning -- assumption of classical behavior for rotation
           may cause significant error
 Rotational temperatures (Kelvin)      0.08571     0.04990     0.03167
 Rotational constants (GHZ):           1.78593     1.03968     0.65987
 Zero-point vibrational energy     297589.8 (Joules/Mol)
                                   71.12568 (Kcal/Mol)
 Warning -- explicit consideration of  14 degrees of freedom as
           vibrations may cause significant error
 Vibrational temperatures:     60.45   162.63   201.80   218.50   266.60
          (Kelvin)            340.27   445.42   470.75   659.18   679.16
                              754.80   758.96   866.94   886.95  1015.24
                             1111.28  1137.15  1285.97  1348.67  1412.22
                             1512.53  1630.22  1703.98  1725.99  1746.99
                             1849.75  1887.33  1951.90  2006.30  2101.20
                             2115.05  2172.54  2191.16  2213.01  2315.69
                             2333.88  3281.37  4428.61  4538.90  4586.34
                             4598.80  4609.18

 Zero-point correction=                           0.113346 (Hartree/Particle)
 Thermal correction to Energy=                    0.122742
 Thermal correction to Enthalpy=                  0.123686
 Thermal correction to Gibbs Free Energy=         0.077805
 Sum of electronic and zero-point Energies=           -542.363067
 Sum of electronic and thermal Energies=              -542.353671
 Sum of electronic and thermal Enthalpies=            -542.352727
 Sum of electronic and thermal Free Energies=         -542.398608

                     E (Thermal)             CV                S
                      KCal/Mol        Cal/Mol-Kelvin    Cal/Mol-Kelvin
 Total                   77.022             33.420             96.565
 Electronic               0.000              0.000              0.000
 Translational            0.889              2.981             40.947
 Rotational               0.889              2.981             29.952
 Vibrational             75.244             27.459             25.666
 Vibration     1          0.595              1.980              5.162
 Vibration     2          0.607              1.939              3.216
 Vibration     3          0.615              1.913              2.800
 Vibration     4          0.619              1.901              2.649
 Vibration     5          0.631              1.860              2.274
 Vibration     6          0.655              1.785              1.829
 Vibration     7          0.699              1.655              1.365
 Vibration     8          0.711              1.621              1.274
 Vibration     9          0.816              1.343              0.771
 Vibration    10          0.829              1.312              0.732
 Vibration    11          0.880              1.196              0.599
 Vibration    12          0.882              1.189              0.593
 Vibration    13          0.961              1.026              0.445
 Vibration    14          0.976              0.997              0.422

 Optimization completed.
    -- Stationary point found.
 Normal termination of Gaussian 16 at Tue Dec  8 20:26:25 2020.

 ----------------------------------------------------------------------
 # B3LYP/6-311++G(d,p) empiricaldispersion=gd3bj scf=xqc pop=npa geom=c
 heck
 ----------------------------------------------------------------------

 ---------------------------------------
 CID_150298810_JID_1575_Energie_neutraal
 ---------------------------------------
 Structure from the checkpoint file:  "JID_1575.chk"
 Charge =  0 Multiplicity = 1

 SCF Done:  E(RB3LYP) =  -542.622633072     A.U. after   15 cycles
 Normal termination of Gaussian 16 at Tue Dec  8 20:28:56 2020.

 ----------------------------------------------------------------------
 # B3LYP/6-311++G(d,p) empiricaldispersion=gd3bj scf=xqc pop=npa geom=c
 heck
 ----------------------------------------------------------------------

 -------------------------------------
 CID_150298810_JID_1575_Energie_kation
 -------------------------------------
 Structure from the checkpoint file:  "JID_1575.chk"
 Charge =  1 Multiplicity = 2

 SCF Done:  E(UB3LYP) =  -542.303974633     A.U. after   23 cycles
 Normal termination of Gaussian 16 at Tue Dec  8 20:31:38 2020.
 Gaussian 16:  ES64L-G16RevA.03 25-Dec-2016

 ----------------------------------------------------------------------
 # B3LYP/6-311++G(d,p) empiricaldispersion=gd3bj scf=xqc pop=npa geom=c
 heck
 ----------------------------------------------------------------------

 ------------------------------------
 CID_150298810_JID_1575_Energie_anion
 ------------------------------------
 Structure from the checkpoint file:  "JID_1575.chk"
 Charge = -1 Multiplicity = 2

                         Standard orientation:
 ---------------------------------------------------------------------
 Center     Atomic      Atomic             Coordinates (Angstroms)
 Number     Number       Type             X           Y           Z
 ---------------------------------------------------------------------
      1          6           0        0.642632    2.691716    0.000121
      2          8           0        0.819344    1.266874    0.000184
      3          6           0       -0.287715    0.510029    0.000258
      4          7           0       -1.488630    1.068546   -0.000107
      5          6           0       -2.544117    0.240783   -0.000411
      6          7           0       -2.511587   -1.088502   -0.000185
      7          6           0       -1.289598   -1.641953    0.000064
      8          6           0       -0.115013   -0.895468    0.000254
      9          7           0        1.102547   -1.593348    0.000625
     10          7           0        2.188730   -0.993298   -0.000138
     11          7           0        3.268666   -0.632175   -0.000665
     12          1           0        1.652707    3.101171    0.000360
     13          1           0        0.093823    3.009777    0.890003
     14          1           0        0.094268    3.009776   -0.890037
     15          1           0       -3.523370    0.712653   -0.000357
     16          1           0       -1.227401   -2.727572    0.000118
 ---------------------------------------------------------------------

 SCF Done:  E(UB3LYP) =  -542.618091145     A.U. after   33 cycles
 SCF Done:  E(UB3LYP) =  -542.618848303     a.u. after    8 cycles

 The electronic state is 2-A.
 Alpha  occ. eigenvalues --  -19.03940 -14.32013 -14.22703 -14.22663 -14.16773
 Alpha  occ. eigenvalues --  -14.16712 -10.13771 -10.10405 -10.07370 -10.07244
 Alpha  occ. eigenvalues --  -10.05972  -0.99425  -0.96304  -0.84480  -0.83067
 Alpha  occ. eigenvalues --   -0.74061  -0.66435  -0.60272  -0.54111  -0.49601
 Alpha  occ. eigenvalues --   -0.45132  -0.41468  -0.39794  -0.37346  -0.35463
 Alpha  occ. eigenvalues --   -0.35208  -0.32789  -0.31469  -0.30562  -0.28920
 Alpha  occ. eigenvalues --   -0.26704  -0.23516  -0.22570  -0.19553  -0.18825
 Alpha  occ. eigenvalues --   -0.15978  -0.15357  -0.11826  -0.08811   0.05764
 Alpha virt. eigenvalues --    0.07704   0.09636   0.10523   0.11010   0.11371
 Alpha virt. eigenvalues --    0.11797   0.12157   0.13420   0.15334   0.16218
 Alpha virt. eigenvalues --    0.16803   0.17260   0.18475   0.18618   0.19179

  Beta  occ. eigenvalues --  -19.03951 -14.31642 -14.22851 -14.22307 -14.16879
  Beta  occ. eigenvalues --  -14.16572 -10.13804 -10.10373 -10.07117 -10.06882
  Beta  occ. eigenvalues --  -10.05740  -0.98863  -0.96274  -0.84244  -0.82806
  Beta  occ. eigenvalues --   -0.73852  -0.66005  -0.60149  -0.53512  -0.49397
  Beta  occ. eigenvalues --   -0.44969  -0.41323  -0.39489  -0.36471  -0.35100
  Beta  occ. eigenvalues --   -0.34613  -0.32631  -0.31245  -0.29841  -0.28181
  Beta  occ. eigenvalues --   -0.26540  -0.23467  -0.22229  -0.18657  -0.18310
  Beta  occ. eigenvalues --   -0.15833  -0.14801  -0.11779  -0.07678
  Beta virt. eigenvalues --    0.08377   0.10017   0.10650   0.11274   0.11411
  Beta virt. eigenvalues --    0.11777   0.12126   0.12517   0.13468   0.16112
  Beta virt. eigenvalues --    0.16211   0.17221   0.17297   0.18450   0.18614

 Mulliken charges and spin densities:
               1          2
     1  C    0.562415  -0.836763
     2  O   -0.196387   0.038089
     3  C    0.027477   0.017692
     4  N   -0.200024   0.080022
     5  C   -0.206754   0.311741
     6  N   -0.163067  -0.063998
     7  C   -0.051526   0.218791
     8  C   -0.449077   0.028484
     9  N    0.393161  -0.125101
    10  N    0.086209   0.151783
    11  N   -0.613969   0.222943
    12  H   -0.249859   0.394059
    13  H   -0.071608   0.244712
    14  H   -0.125853   0.299114
    15  H    0.117258   0.015146
    16  H    0.141605   0.003286
 Sum of Mulliken charges =  -1.00000   1.00000

 Dipole moment (field-independent basis, Debye):
    X=             -0.4348    Y=             -0.8534    Z=             -0.2584  Tot=              0.9920
 Quadrupole moment (field-independent basis, Debye-Ang):
   XX=           -105.1166   YY=            -91.8141   ZZ=            -71.4206
   XY=             -4.3762   XZ=              0.0335   YZ=             -0.4523

 Summary of Natural Population Analysis:

                                       Natural Population
                Natural  -----------------------------------------------
    Atom  No    Charge         Core      Valence    Rydberg      Total
 -----------------------------------------------------------------------
      C    1   -0.10154      0.99959     2.09199    0.00996     3.10154
      O    2   -0.27628      0.99985     3.26681    0.00961     4.27628
      C    3    0.25984      0.99944     1.72390    0.01682     2.74016
      N    4   -0.26809      0.99966     2.75741    0.01101     3.76809
      C    5    0.19077      0.99969     1.79105    0.01849     2.80923
      N    6   -0.27647      0.99972     2.76603    0.01071     3.77647
      C    7    0.06939      0.99956     1.91756    0.01349     2.93061
      C    8    0.04023      0.99939     1.94644    0.01394     2.95977
      N    9   -0.21033      0.99965     2.69703    0.01364     3.71033
      N   10    0.15669      0.99970     2.32850    0.01511     3.34331
      N   11   -0.00634      0.99981     2.49356    0.01296     3.50634
      H   12    0.08966      0.00000     0.40913    0.00121     0.41034
      H   13    0.08939      0.00000     0.40901    0.00161     0.41061
      H   14    0.08990      0.00000     0.40857    0.00153     0.41010
      H   15    0.06934      0.00000     0.42896    0.00170     0.43066
      H   16    0.08384      0.00000     0.41479    0.00137     0.41616
 =======================================================================
   * Total *   -0.00000     10.99608    27.85074    0.15318    39.00000

 Normal termination of Gaussian 16 at Tue Dec  8 20:49:46 2020.
