 Gaussian 16, Revision A.03,

 -----------------------------------------------------------
 # opt freq B3LYP/6-31G(d) empiricaldispersion=gd3bj scf=xqc
 -----------------------------------------------------------

 --------------------------------
 CID_116690144_JID_10635_neutraal
 --------------------------------
 Symbolic Z-matrix:
 Charge =  0 Multiplicity = 1

 SCF Done:  E(RB3LYP) =  -938.772739227     A.U. after   15 cycles
 SCF Done:  E(RB3LYP) =  -938.778799639     A.U. after   13 cycles
 SCF Done:  E(RB3LYP) =  -938.779911122     A.U. after   12 cycles
 SCF Done:  E(RB3LYP) =  -938.780948152     A.U. after   14 cycles
 SCF Done:  E(RB3LYP) =  -938.781051719     A.U. after   14 cycles
 SCF Done:  E(RB3LYP) =  -938.782384292     A.U. after   12 cycles
 SCF Done:  E(RB3LYP) =  -938.783487130     A.U. after   12 cycles
 SCF Done:  E(RB3LYP) =  -938.784368145     A.U. after   15 cycles
 SCF Done:  E(RB3LYP) =  -938.783518862     A.U. after   14 cycles
 SCF Done:  E(RB3LYP) =  -938.785129605     A.U. after   12 cycles
 SCF Done:  E(RB3LYP) =  -938.785413731     A.U. after   10 cycles
 SCF Done:  E(RB3LYP) =  -938.785415096     A.U. after    9 cycles
 SCF Done:  E(RB3LYP) =  -938.785416166     A.U. after    8 cycles
 SCF Done:  E(RB3LYP) =  -938.785416640     A.U. after    8 cycles
 SCF Done:  E(RB3LYP) =  -938.785416676     A.U. after    7 cycles
 Optimization completed.
    -- Stationary point found.
 Normal termination of Gaussian 16 at Sun Dec 13 16:54:03 2020.

 --------------------------------------------------------------------
 #N Geom=AllCheck Guess=TCheck SCRF=Check GenChk RB3LYP/6-31G(d) Freq
 --------------------------------------------------------------------

 Structure from the checkpoint file:  "JID_10635.chk"
 --------------------------------
 CID_116690144_JID_10635_neutraal
 --------------------------------
 Charge =  0 Multiplicity = 1

 SCF Done:  E(RB3LYP) =  -938.785416676     A.U. after    1 cycles

  Exact polarizability: 253.771 -28.093 157.644  18.764  19.507 125.214
 Approx polarizability: 327.171 -44.480 256.047  39.026  53.717 209.383

                      1                      2                      3
                      A                      A                      A
 Frequencies --     17.9124                22.6379                38.2465
 Red. masses --      5.4902                 3.6773                 3.7322
 Frc consts  --      0.0010                 0.0011                 0.0032
 IR Inten    --      0.0107                 0.2060                 0.0833

                      4                      5                      6
                      A                      A                      A
 Frequencies --     53.8592                63.0222                67.4061
 Red. masses --      3.9245                 4.5830                 4.6271
 Frc consts  --      0.0067                 0.0107                 0.0124
 IR Inten    --      0.6250                 0.5791                 0.2190

                      7                      8                      9
                      A                      A                      A
 Frequencies --     90.8058               109.4788               150.7720
 Red. masses --      5.9918                 3.3381                 3.1665
 Frc consts  --      0.0291                 0.0236                 0.0424
 IR Inten    --      0.3515                 0.1939                 2.5908

                     10                     11                     12
                      A                      A                      A
 Frequencies --    166.2452               185.9065               217.5337
 Red. masses --      5.4000                 3.3988                 2.3783
 Frc consts  --      0.0879                 0.0692                 0.0663
 IR Inten    --      0.9607                 0.2005                 1.4739

                     13                     14                     15
                      A                      A                      A
 Frequencies --    238.1792               276.8608               293.3103
 Red. masses --      1.9404                 5.5085                 2.7071
 Frc consts  --      0.0649                 0.2488                 0.1372
 IR Inten    --      1.4522                 1.7505                 1.9402

                     16                     17                     18
                      A                      A                      A
 Frequencies --    298.8250               310.1101               362.2238
 Red. masses --      2.2824                 3.3010                 2.9775
 Frc consts  --      0.1201                 0.1870                 0.2302
 IR Inten    --      0.5476                 0.4211                 0.6718

                     19                     20                     21
                      A                      A                      A
 Frequencies --    374.8102               382.5338               413.7389
 Red. masses --      2.9241                 5.3354                 2.0206
 Frc consts  --      0.2420                 0.4600                 0.2038
 IR Inten    --      0.1973                 1.2151                 3.3616

                     22                     23                     24
                      A                      A                      A
 Frequencies --    438.0745               465.7965               506.4512
 Red. masses --      3.2375                 2.6234                 3.8217
 Frc consts  --      0.3661                 0.3354                 0.5775
 IR Inten    --      2.9175                 6.9870                 4.8206

                     25                     26                     27
                      A                      A                      A
 Frequencies --    543.7350               556.3714               572.1740
 Red. masses --      3.1386                 2.0891                 4.2058
 Frc consts  --      0.5467                 0.3810                 0.8112
 IR Inten    --      5.4041                35.9675                24.2496

                     28                     29                     30
                      A                      A                      A
 Frequencies --    599.6328               638.5579               647.1728
 Red. masses --      5.1011                 1.7009                 4.8773
 Frc consts  --      1.0806                 0.4086                 1.2036
 IR Inten    --     14.1887                49.6187                52.2820

                     31                     32                     33
                      A                      A                      A
 Frequencies --    719.8036               724.2692               731.2832
 Red. masses --      1.3767                 4.8024                10.0249
 Frc consts  --      0.4203                 1.4843                 3.1586
 IR Inten    --     22.5037                17.7859                 6.3068

                     34                     35                     36
                      A                      A                      A
 Frequencies --    741.2501               748.9223               763.0797
 Red. masses --      4.8261                 1.6980                 5.4979
 Frc consts  --      1.5623                 0.5611                 1.8862
 IR Inten    --     17.6878                 0.0422                27.1299

                     37                     38                     39
                      A                      A                      A
 Frequencies --    773.6970               810.2322               830.6704
 Red. masses --      4.7264                 1.7035                 2.3824
 Frc consts  --      1.6670                 0.6589                 0.9685
 IR Inten    --     61.1700                 3.9479                 0.4073

                     40                     41                     42
                      A                      A                      A
 Frequencies --    850.1266               867.0452               885.6543
 Red. masses --      1.5576                 2.7541                 2.1228
 Frc consts  --      0.6633                 1.2199                 0.9810
 IR Inten    --     10.1510                40.5858                 8.3914

                     43                     44                     45
                      A                      A                      A
 Frequencies --    920.3249               922.0664               942.7066
 Red. masses --      2.4000                 1.4205                 2.3820
 Frc consts  --      1.1977                 0.7116                 1.2472
 IR Inten    --     17.5196                12.7955                31.7976

                     46                     47                     48
                      A                      A                      A
 Frequencies --    954.3620               965.9358               974.9222
 Red. masses --      3.8381                 1.2935                 2.0807
 Frc consts  --      2.0596                 0.7111                 1.1652
 IR Inten    --     14.1361                 0.0128                29.1553

                     49                     50                     51
                      A                      A                      A
 Frequencies --   1004.0083              1022.3632              1050.2057
 Red. masses --      1.9038                 2.3153                 1.9622
 Frc consts  --      1.1307                 1.4258                 1.2751
 IR Inten    --     16.9566                 0.7091                27.9615

                     52                     53                     54
                      A                      A                      A
 Frequencies --   1073.1747              1076.6666              1093.5359
 Red. masses --      1.6118                 2.0565                 2.1689
 Frc consts  --      1.0937                 1.4045                 1.5281
 IR Inten    --      3.5112                28.3669                24.2125

                     55                     56                     57
                      A                      A                      A
 Frequencies --   1112.0489              1153.3139              1155.2217
 Red. masses --      2.2889                 1.9318                 1.7926
 Frc consts  --      1.6677                 1.5140                 1.4095
 IR Inten    --     15.7511                 8.0486                25.9978

                     58                     59                     60
                      A                      A                      A
 Frequencies --   1166.3409              1182.2831              1218.4363
 Red. masses --      2.2149                 2.5132                 2.0725
 Frc consts  --      1.7752                 2.0698                 1.8128
 IR Inten    --      2.0723               166.0426               279.7255

                     61                     62                     63
                      A                      A                      A
 Frequencies --   1221.0469              1239.0525              1277.1869
 Red. masses --      1.3260                 1.4584                 1.9447
 Frc consts  --      1.1648                 1.3192                 1.8690
 IR Inten    --     52.5569                 5.0984                63.0827

                     64                     65                     66
                      A                      A                      A
 Frequencies --   1288.4851              1305.4384              1315.4940
 Red. masses --      1.2581                 1.2543                 2.5020
 Frc consts  --      1.2307                 1.2594                 2.5510
 IR Inten    --      1.6946                 5.3436               164.2863

                     67                     68                     69
                      A                      A                      A
 Frequencies --   1330.1334              1354.8169              1369.4143
 Red. masses --      1.1595                 1.1352                 2.4048
 Frc consts  --      1.2087                 1.2277                 2.6570
 IR Inten    --     23.9757                 3.3665               303.2832

                     70                     71                     72
                      A                      A                      A
 Frequencies --   1386.1268              1391.2768              1396.0769
 Red. masses --      1.6196                 1.5797                 2.7266
 Frc consts  --      1.8334                 1.8015                 3.1311
 IR Inten    --     52.9491                 5.7836                71.6335

                     73                     74                     75
                      A                      A                      A
 Frequencies --   1402.1382              1408.5218              1420.5658
 Red. masses --      4.1257                 1.6163                 1.4796
 Frc consts  --      4.7789                 1.8893                 1.7592
 IR Inten    --     34.9030                 9.3604                 2.2484

                     76                     77                     78
                      A                      A                      A
 Frequencies --   1428.0506              1436.8772              1444.0845
 Red. masses --      1.4657                 1.4318                 1.2728
 Frc consts  --      1.7611                 1.7418                 1.5638
 IR Inten    --     21.6319                18.5406                 5.6296

                     79                     80                     81
                      A                      A                      A
 Frequencies --   1486.4757              1502.2011              1515.6305
 Red. masses --      3.9236                 1.0845                 1.0770
 Frc consts  --      5.1080                 1.4418                 1.4577
 IR Inten    --    178.1322                 3.5568                 1.9506

                     82                     83                     84
                      A                      A                      A
 Frequencies --   1521.1338              1523.5694              1530.0479
 Red. masses --      1.0916                 1.1155                 3.2324
 Frc consts  --      1.4881                 1.5256                 4.4585
 IR Inten    --      6.0149                15.1342                 8.5566

                     85                     86                     87
                      A                      A                      A
 Frequencies --   1531.4440              1534.6053              1538.3003
 Red. masses --      1.0628                 1.0676                 1.0893
 Frc consts  --      1.4686                 1.4814                 1.5188
 IR Inten    --      7.6479                 6.1655                20.7318

                     88                     89                     90
                      A                      A                      A
 Frequencies --   1550.7156              1619.2293              1671.0179
 Red. masses --      1.0843                 7.0330                 8.0513
 Frc consts  --      1.5363                10.8645                13.2459
 IR Inten    --      3.2329               432.2789               343.3033

                     91                     92                     93
                      A                      A                      A
 Frequencies --   1690.7286              1816.0722              3026.1144
 Red. masses --      8.0588                 9.6908                 1.0615
 Frc consts  --     13.5728                18.8312                 5.7271
 IR Inten    --     94.7155               337.8921                29.3355

                     94                     95                     96
                      A                      A                      A
 Frequencies --   3033.8117              3042.6304              3045.8405
 Red. masses --      1.0651                 1.0620                 1.0436
 Frc consts  --      5.7756                 5.7926                 5.7042
 IR Inten    --     25.0328                 8.4267                 7.9556

                     97                     98                     99
                      A                      A                      A
 Frequencies --   3047.9570              3054.3339              3060.1509
 Red. masses --      1.0638                 1.0679                 1.0892
 Frc consts  --      5.8225                 5.8695                 6.0097
 IR Inten    --      9.2127                10.5395                47.1722

                    100                    101                    102
                      A                      A                      A
 Frequencies --   3068.3378              3076.8885              3088.8303
 Red. masses --      1.0976                 1.0998                 1.0990
 Frc consts  --      6.0884                 6.1346                 6.1778
 IR Inten    --     75.1904                40.7518                23.7138

                    103                    104                    105
                      A                      A                      A
 Frequencies --   3097.7506              3104.0041              3110.1783
 Red. masses --      1.0988                 1.0644                 1.1017
 Frc consts  --      6.2126                 6.0422                 6.2789
 IR Inten    --     40.7956                49.5274                46.4631

                    106                    107                    108
                      A                      A                      A
 Frequencies --   3116.9015              3167.7754              3222.1905
 Red. masses --      1.1020                 1.1072                 1.0898
 Frc consts  --      6.3077                 6.5463                 6.6662
 IR Inten    --     52.2797                 8.7773                 3.6474

                    109                    110                    111
                      A                      A                      A
 Frequencies --   3241.0206              3249.6757              3702.9312
 Red. masses --      1.0933                 1.0926                 1.0642
 Frc consts  --      6.7665                 6.7984                 8.5971
 IR Inten    --      2.5221                 1.4980                86.4055

 - Thermochemistry -
 -------------------
 Temperature   298.150 Kelvin.  Pressure   1.00000 Atm.
 Atom     1 has atomic number  6 and mass  12.00000

 Molecular mass:   277.13141 amu.
 Principal axes and moments of inertia in atomic units:
                           1         2         3
     Eigenvalues --  2504.45400********************
           X            0.99995   0.00928  -0.00484
           Y           -0.00930   0.99994  -0.00561
           Z            0.00479   0.00565   0.99997
 This molecule is an asymmetric top.
 Rotational symmetry number  1.
 Warning -- assumption of classical behavior for rotation
           may cause significant error
 Rotational temperatures (Kelvin)      0.03458     0.00615     0.00560
 Rotational constants (GHZ):           0.72061     0.12807     0.11671
 Zero-point vibrational energy     858557.6 (Joules/Mol)
                                  205.20018 (Kcal/Mol)
 Warning -- explicit consideration of  28 degrees of freedom as
           vibrations may cause significant error
 Vibrational temperatures:     25.77    32.57    55.03    77.49    90.67
          (Kelvin)             96.98   130.65   157.52   216.93   239.19
                              267.48   312.98   342.69   398.34   422.01
                              429.94   446.18   521.16   539.27   550.38
                              595.28   630.29   670.18   728.67   782.31
                              800.49   823.23   862.74   918.74   931.14
                             1035.64  1042.06  1052.15  1066.49  1077.53
                             1097.90  1113.18  1165.74  1195.15  1223.14
                             1247.48  1274.26  1324.14  1326.65  1356.34
                             1373.11  1389.77  1402.70  1444.54  1470.95
                             1511.01  1544.06  1549.08  1573.35  1599.99
                             1659.36  1662.11  1678.10  1701.04  1753.06
                             1756.81  1782.72  1837.59  1853.84  1878.23
                             1892.70  1913.77  1949.28  1970.28  1994.33
                             2001.74  2008.64  2017.36  2026.55  2043.88
                             2054.65  2067.35  2077.72  2138.71  2161.33
                             2180.65  2188.57  2192.08  2201.40  2203.41
                             2207.95  2213.27  2231.13  2329.71  2404.22
                             2432.58  2612.92  4353.90  4364.98  4377.67
                             4382.29  4385.33  4394.51  4402.87  4414.65
                             4426.96  4444.14  4456.97  4465.97  4474.85
                             4484.53  4557.72  4636.01  4663.11  4675.56
                             5327.69

 Zero-point correction=                           0.327007 (Hartree/Particle)
 Thermal correction to Energy=                    0.345821
 Thermal correction to Enthalpy=                  0.346765
 Thermal correction to Gibbs Free Energy=         0.276935
 Sum of electronic and zero-point Energies=           -938.458409
 Sum of electronic and thermal Energies=              -938.439596
 Sum of electronic and thermal Enthalpies=            -938.438651
 Sum of electronic and thermal Free Energies=         -938.508482

                     E (Thermal)             CV                S
                      KCal/Mol        Cal/Mol-Kelvin    Cal/Mol-Kelvin
 Total                  217.006             71.148            146.970
 Electronic               0.000              0.000              0.000
 Translational            0.889              2.981             42.756
 Rotational               0.889              2.981             34.655
 Vibrational            215.229             65.187             69.559
 Vibration     1          0.593              1.986              6.853
 Vibration     2          0.593              1.985              6.388
 Vibration     3          0.594              1.982              5.348
 Vibration     4          0.596              1.976              4.670
 Vibration     5          0.597              1.972              4.360
 Vibration     6          0.598              1.970              4.228
 Vibration     7          0.602              1.956              3.643
 Vibration     8          0.606              1.942              3.278
 Vibration     9          0.618              1.902              2.662
 Vibration    10          0.624              1.884              2.478
 Vibration    11          0.632              1.859              2.268
 Vibration    12          0.646              1.814              1.980
 Vibration    13          0.656              1.782              1.816
 Vibration    14          0.678              1.716              1.553
 Vibration    15          0.688              1.686              1.455
 Vibration    16          0.692              1.676              1.423
 Vibration    17          0.699              1.654              1.362
 Vibration    18          0.736              1.550              1.113
 Vibration    19          0.746              1.524              1.060
 Vibration    20          0.752              1.507              1.029
 Vibration    21          0.777              1.440              0.914
 Vibration    22          0.798              1.387              0.833
 Vibration    23          0.823              1.326              0.749
 Vibration    24          0.862              1.236              0.642
 Vibration    25          0.899              1.153              0.557
 Vibration    26          0.912              1.126              0.531
 Vibration    27          0.928              1.091              0.500
 Vibration    28          0.958              1.033              0.450

 Optimization completed.
    -- Stationary point found.
 Normal termination of Gaussian 16 at Sun Dec 13 17:10:55 2020.

 ----------------------------------------------------------------------
 # B3LYP/6-311++G(d,p) empiricaldispersion=gd3bj scf=xqc pop=npa geom=c
 heck
 ----------------------------------------------------------------------

 ----------------------------------------
 CID_116690144_JID_10635_Energie_neutraal
 ----------------------------------------
 Structure from the checkpoint file:  "JID_10635.chk"
 Charge =  0 Multiplicity = 1

 SCF Done:  E(RB3LYP) =  -939.050148920     A.U. after   15 cycles
 Normal termination of Gaussian 16 at Sun Dec 13 17:18:00 2020.

 ----------------------------------------------------------------------
 # B3LYP/6-311++G(d,p) empiricaldispersion=gd3bj scf=xqc pop=npa geom=c
 heck
 ----------------------------------------------------------------------

 --------------------------------------
 CID_116690144_JID_10635_Energie_kation
 --------------------------------------
 Structure from the checkpoint file:  "JID_10635.chk"
 Charge =  1 Multiplicity = 2

 SCF Done:  E(UB3LYP) =  -938.741850899     A.U. after   27 cycles
 Normal termination of Gaussian 16 at Sun Dec 13 17:34:51 2020.
 Gaussian 16:  ES64L-G16RevA.03 25-Dec-2016

 ----------------------------------------------------------------------
 # B3LYP/6-311++G(d,p) empiricaldispersion=gd3bj scf=xqc pop=npa geom=c
 heck
 ----------------------------------------------------------------------

 -------------------------------------
 CID_116690144_JID_10635_Energie_anion
 -------------------------------------
 Structure from the checkpoint file:  "JID_10635.chk"
 Charge = -1 Multiplicity = 2

                         Standard orientation:
 ---------------------------------------------------------------------
 Center     Atomic      Atomic             Coordinates (Angstroms)
 Number     Number       Type             X           Y           Z
 ---------------------------------------------------------------------
      1          6           0        5.692184    2.397313   -1.069444
      2          6           0        5.658760    1.282673   -0.019699
      3          6           0        4.326601    1.183659    0.739265
      4          6           0        3.090924    0.913935   -0.134309
      5          6           0        3.175235   -0.347047   -1.010100
      6          6           0        3.457752   -1.655148   -0.256809
      7          6           0        2.401806   -2.047445    0.765579
      8          8           0        1.146368   -2.346227    0.084937
      9          6           0        0.147201   -1.513156    0.264235
     10          7           0        0.069915   -0.452085    1.014364
     11          6           0       -1.227416    0.011209    0.793014
     12          6           0       -1.871799   -0.847435   -0.115637
     13          8           0       -0.965219   -1.839735   -0.454449
     14          6           0       -3.164311   -0.682312   -0.553650
     15          6           0       -3.847541    0.432105   -0.032691
     16          6           0       -3.226387    1.309428    0.878568
     17          6           0       -1.913386    1.113588    1.303285
     18          6           0       -5.241588    0.635537   -0.487060
     19          8           0       -5.831838   -0.083654   -1.270264
     20          8           0       -5.829872    1.731216    0.061969
     21          1           0        4.966566    2.221574   -1.871306
     22          1           0        6.682227    2.475326   -1.532182
     23          1           0        5.456276    3.368940   -0.618027
     24          1           0        5.885615    0.322419   -0.502490
     25          1           0        6.463357    1.449179    0.708494
     26          1           0        4.413678    0.401782    1.506371
     27          1           0        4.161578    2.120538    1.288987
     28          1           0        2.206797    0.851931    0.509920
     29          1           0        2.917793    1.772803   -0.794992
     30          1           0        2.237398   -0.454029   -1.569845
     31          1           0        3.959497   -0.220320   -1.766765
     32          1           0        3.563928   -2.476248   -0.976161
     33          1           0        4.412960   -1.587519    0.279868
     34          1           0        2.670257   -2.976787    1.273546
     35          1           0        2.219571   -1.268234    1.506564
     36          1           0       -3.651898   -1.349487   -1.253787
     37          1           0       -3.792133    2.154344    1.252450
     38          1           0       -1.436365    1.789521    2.004418
     39          1           0       -6.730232    1.754651   -0.310449
 ---------------------------------------------------------------------

 SCF Done:  E(UB3LYP) =  -939.056975548     A.U. after   33 cycles
 SCF Done:  E(UB3LYP) =  -939.056975548     a.u. after    1 cycles

 The electronic state is 2-A.
 Alpha  occ. eigenvalues --  -19.08145 -19.07770 -19.04003 -18.96676 -14.19691
 Alpha  occ. eigenvalues --  -10.20417 -10.15208 -10.14367 -10.10965 -10.08933
 Alpha  occ. eigenvalues --  -10.08434 -10.08111 -10.08109 -10.07987 -10.07711
 Alpha  occ. eigenvalues --  -10.07179 -10.05401 -10.05293 -10.04788 -10.04731
 Alpha  occ. eigenvalues --   -1.04153  -0.97839  -0.97583  -0.88081  -0.81601
 Alpha  occ. eigenvalues --   -0.73627  -0.73002  -0.70215  -0.65916  -0.63419
 Alpha  occ. eigenvalues --   -0.63123  -0.60509  -0.56653  -0.53729  -0.52484
 Alpha  occ. eigenvalues --   -0.50119  -0.48269  -0.47891  -0.45825  -0.43172
 Alpha  occ. eigenvalues --   -0.41816  -0.41032  -0.39354  -0.38845  -0.38282
 Alpha  occ. eigenvalues --   -0.36444  -0.35726  -0.34978  -0.33997  -0.32915
 Alpha  occ. eigenvalues --   -0.32519  -0.32269  -0.31723  -0.31398  -0.30915
 Alpha  occ. eigenvalues --   -0.30291  -0.28532  -0.27909  -0.27467  -0.26987
 Alpha  occ. eigenvalues --   -0.26352  -0.25734  -0.25551  -0.24161  -0.23774
 Alpha  occ. eigenvalues --   -0.23415  -0.22966  -0.22663  -0.20593  -0.19331
 Alpha  occ. eigenvalues --   -0.18617  -0.14957  -0.13231  -0.11317   0.03691
 Alpha virt. eigenvalues --    0.04854   0.06291   0.07016   0.07670   0.08255
 Alpha virt. eigenvalues --    0.08650   0.09492   0.09845   0.10049   0.10613
 Alpha virt. eigenvalues --    0.10901   0.11213   0.11303   0.11967   0.12896

  Beta  occ. eigenvalues --  -19.08105 -19.07726 -19.03940 -18.96447 -14.19780
  Beta  occ. eigenvalues --  -10.20209 -10.14966 -10.14363 -10.11052 -10.08920
  Beta  occ. eigenvalues --  -10.08418 -10.08109 -10.08097 -10.07980 -10.07453
  Beta  occ. eigenvalues --  -10.07179 -10.05406 -10.05249 -10.04642 -10.04501
  Beta  occ. eigenvalues --   -1.04018  -0.97759  -0.97322  -0.87729  -0.81508
  Beta  occ. eigenvalues --   -0.73493  -0.72859  -0.70177  -0.65846  -0.63142
  Beta  occ. eigenvalues --   -0.62836  -0.60423  -0.56572  -0.53341  -0.52307
  Beta  occ. eigenvalues --   -0.50052  -0.48140  -0.47782  -0.45793  -0.42990
  Beta  occ. eigenvalues --   -0.41636  -0.40843  -0.39249  -0.38816  -0.38083
  Beta  occ. eigenvalues --   -0.36296  -0.35526  -0.34910  -0.33944  -0.32731
  Beta  occ. eigenvalues --   -0.32403  -0.31722  -0.31391  -0.31075  -0.30829
  Beta  occ. eigenvalues --   -0.30229  -0.28451  -0.27790  -0.27352  -0.26943
  Beta  occ. eigenvalues --   -0.26283  -0.25585  -0.25306  -0.23896  -0.23576
  Beta  occ. eigenvalues --   -0.23334  -0.22947  -0.22597  -0.19907  -0.18668
  Beta  occ. eigenvalues --   -0.18495  -0.14725  -0.12440  -0.10312
  Beta virt. eigenvalues --    0.05297   0.06515   0.07105   0.07741   0.08254
  Beta virt. eigenvalues --    0.08527   0.08764   0.09484   0.09917   0.10017
  Beta virt. eigenvalues --    0.10614   0.11217   0.11277   0.11353   0.11946

 Mulliken charges and spin densities:
               1          2
     1  C   -0.076071  -0.531354
     2  C   -0.131500  -0.123301
     3  C   -0.207430  -0.021111
     4  C   -0.138516  -0.109451
     5  C    0.052260  -0.000573
     6  C   -0.293980  -0.190384
     7  C   -0.151249  -0.204896
     8  O   -0.113784   0.015541
     9  C   -0.012786   0.114352
    10  N    0.043026  -0.048963
    11  C    0.181262   0.140920
    12  C    0.052055  -0.060623
    13  O   -0.144481   0.008351
    14  C   -0.647969   0.209143
    15  C    0.490807   0.023596
    16  C   -0.597916   0.074784
    17  C   -0.442360   0.013876
    18  C    0.160858   0.144933
    19  O   -0.409242   0.083473
    20  O   -0.233025   0.014209
    21  H    0.071493   0.068894
    22  H   -0.103903   0.239048
    23  H    0.100966   0.029042
    24  H    0.001340   0.125845
    25  H   -0.216964   0.369026
    26  H    0.052865   0.096359
    27  H    0.096628   0.051586
    28  H    0.167290   0.001088
    29  H    0.147004  -0.003219
    30  H    0.173704   0.002004
    31  H    0.127263   0.033631
    32  H    0.131472   0.053293
    33  H   -0.097726   0.229115
    34  H    0.008655   0.172948
    35  H    0.219911  -0.010248
    36  H    0.184146  -0.012747
    37  H    0.168685  -0.002520
    38  H    0.120551   0.005287
    39  H    0.266661  -0.000955
 Sum of Mulliken charges =  -1.00000   1.00000

 Dipole moment (field-independent basis, Debye):
    X=              4.3428    Y=              0.3776    Z=              0.8438  Tot=              4.4401
 Quadrupole moment (field-independent basis, Debye-Ang):
   XX=           -237.0839   YY=           -140.8449   ZZ=           -138.1999
   XY=            -10.2975   XZ=             -9.2639   YZ=             -1.3550

 Summary of Natural Population Analysis:

                                       Natural Population
                Natural  -----------------------------------------------
    Atom  No    Charge         Core      Valence    Rydberg      Total
 -----------------------------------------------------------------------
      C    1   -0.28907      0.99967     2.28314    0.00627     3.28907
      C    2   -0.19383      0.99964     2.18602    0.00817     3.19383
      C    3   -0.19126      0.99963     2.18256    0.00907     3.19126
      C    4   -0.20210      0.99962     2.19495    0.00754     3.20210
      C    5   -0.19458      0.99963     2.18608    0.00887     3.19458
      C    6   -0.20506      0.99962     2.19653    0.00891     3.20506
      C    7   -0.01537      0.99955     2.00370    0.01212     3.01537
      O    8   -0.26673      0.99983     3.25841    0.00848     4.26673
      C    9    0.45273      0.99954     1.52640    0.02133     2.54727
      N   10   -0.31425      0.99965     2.80602    0.00858     3.81425
      C   11    0.09274      0.99945     1.89555    0.01225     2.90726
      C   12    0.11200      0.99934     1.87541    0.01325     2.88800
      O   13   -0.24390      0.99985     3.23689    0.00716     4.24390
      C   14   -0.05530      0.99949     2.04752    0.00829     3.05530
      C   15   -0.07315      0.99949     2.06239    0.01127     3.07315
      C   16   -0.07845      0.99956     2.07070    0.00819     3.07845
      C   17   -0.12162      0.99954     2.11359    0.00849     3.12162
      C   18    0.43544      0.99947     1.53689    0.02820     2.56456
      O   19   -0.31135      0.99987     3.30429    0.00718     4.31135
      O   20   -0.35487      0.99988     3.34851    0.00649     4.35487
      H   21    0.09649      0.00000     0.40273    0.00078     0.40351
      H   22    0.09837      0.00000     0.40087    0.00075     0.40163
      H   23    0.09502      0.00000     0.40421    0.00077     0.40498
      H   24    0.09350      0.00000     0.40537    0.00113     0.40650
      H   25    0.09545      0.00000     0.40345    0.00110     0.40455
      H   26    0.09519      0.00000     0.40382    0.00100     0.40481
      H   27    0.09571      0.00000     0.40338    0.00091     0.40429
      H   28    0.11422      0.00000     0.38436    0.00143     0.38578
      H   29    0.09549      0.00000     0.40352    0.00099     0.40451
      H   30    0.10282      0.00000     0.39616    0.00103     0.39718
      H   31    0.09552      0.00000     0.40359    0.00089     0.40448
      H   32    0.10051      0.00000     0.39848    0.00101     0.39949
      H   33    0.10086      0.00000     0.39791    0.00123     0.39914
      H   34    0.09037      0.00000     0.40865    0.00098     0.40963
      H   35    0.10314      0.00000     0.39507    0.00180     0.39686
      H   36    0.11204      0.00000     0.38688    0.00108     0.38796
      H   37    0.10319      0.00000     0.39571    0.00110     0.39681
      H   38    0.09818      0.00000     0.40035    0.00147     0.40182
      H   39    0.23201      0.00000     0.26486    0.00313     0.26799
 =======================================================================
   * Total *    0.00006     19.99234    53.77491    0.23268    73.99994

 Normal termination of Gaussian 16 at Sun Dec 13 17:56:03 2020.
