 Gaussian 16, Revision A.03,

 -----------------------------------------------------------
 # opt freq B3LYP/6-31G(d) empiricaldispersion=gd3bj scf=xqc
 -----------------------------------------------------------

 ------------------------------
 CID_83037429_JID_5433_neutraal
 ------------------------------
 Symbolic Z-matrix:
 Charge =  0 Multiplicity = 1

 SCF Done:  E(RB3LYP) =  -733.352310719     A.U. after   14 cycles
 SCF Done:  E(RB3LYP) =  -733.327194218     A.U. after   13 cycles
 SCF Done:  E(RB3LYP) =  -733.357400231     A.U. after   12 cycles
 SCF Done:  E(RB3LYP) =  -733.327136032     A.U. after   13 cycles
 SCF Done:  E(RB3LYP) =  -733.356552099     A.U. after   12 cycles
 SCF Done:  E(RB3LYP) =  -733.358100517     A.U. after   10 cycles
 SCF Done:  E(RB3LYP) =  -733.358783926     A.U. after   11 cycles
 SCF Done:  E(RB3LYP) =  -733.359016636     A.U. after   12 cycles
 SCF Done:  E(RB3LYP) =  -733.358896507     A.U. after   12 cycles
 SCF Done:  E(RB3LYP) =  -733.359453378     A.U. after   11 cycles
 SCF Done:  E(RB3LYP) =  -733.362966767     A.U. after   10 cycles
 SCF Done:  E(RB3LYP) =  -733.362972921     A.U. after    9 cycles
 SCF Done:  E(RB3LYP) =  -733.362974871     A.U. after    8 cycles
 SCF Done:  E(RB3LYP) =  -733.362975335     A.U. after    8 cycles
 SCF Done:  E(RB3LYP) =  -733.362975432     A.U. after    6 cycles
 SCF Done:  E(RB3LYP) =  -733.362975485     A.U. after    6 cycles
 Optimization completed.
    -- Stationary point found.
 Normal termination of Gaussian 16 at Thu Dec 10 16:32:24 2020.

 --------------------------------------------------------------------
 #N Geom=AllCheck Guess=TCheck SCRF=Check GenChk RB3LYP/6-31G(d) Freq
 --------------------------------------------------------------------

 Structure from the checkpoint file:  "JID_5433.chk"
 ------------------------------
 CID_83037429_JID_5433_neutraal
 ------------------------------
 Charge =  0 Multiplicity = 1

 SCF Done:  E(RB3LYP) =  -733.362975485     A.U. after    1 cycles

  Exact polarizability: 141.332   0.958 120.701   1.339  -1.505 123.626
 Approx polarizability: 173.375  -0.295 165.780   4.472  -3.734 182.764

                      1                      2                      3
                      A                      A                      A
 Frequencies --     49.8655                54.5670                61.7034
 Red. masses --      2.9859                 2.3144                 3.6596
 Frc consts  --      0.0044                 0.0041                 0.0082
 IR Inten    --      0.4686                 0.1068                 0.1032

                      4                      5                      6
                      A                      A                      A
 Frequencies --     75.8459                80.6789               106.6494
 Red. masses --      3.3953                 3.8216                 2.1915
 Frc consts  --      0.0115                 0.0147                 0.0147
 IR Inten    --      0.8639                 0.3489                 1.7031

                      7                      8                      9
                      A                      A                      A
 Frequencies --    121.5212               130.2856               143.0347
 Red. masses --      2.7258                 2.8173                 2.7706
 Frc consts  --      0.0237                 0.0282                 0.0334
 IR Inten    --      0.4068                 2.2110                 0.8153

                     10                     11                     12
                      A                      A                      A
 Frequencies --    158.5574               173.1380               176.6048
 Red. masses --      2.3599                 3.5526                 2.7498
 Frc consts  --      0.0350                 0.0627                 0.0505
 IR Inten    --      0.4258                 7.5453                 2.6133

                     13                     14                     15
                      A                      A                      A
 Frequencies --    202.6700               252.5576               266.6061
 Red. masses --      2.8848                 1.1366                 1.3921
 Frc consts  --      0.0698                 0.0427                 0.0583
 IR Inten    --      0.4798                 0.2595                 4.9656

                     16                     17                     18
                      A                      A                      A
 Frequencies --    269.1744               276.3892               287.3944
 Red. masses --      2.4481                 1.4951                 2.2083
 Frc consts  --      0.1045                 0.0673                 0.1075
 IR Inten    --      7.2105                 0.9853                 1.1887

                     19                     20                     21
                      A                      A                      A
 Frequencies --    292.8627               339.2535               376.5328
 Red. masses --      2.9336                 4.8422                 2.7383
 Frc consts  --      0.1482                 0.3284                 0.2287
 IR Inten    --      2.4211                 4.2526                 7.2808

                     22                     23                     24
                      A                      A                      A
 Frequencies --    392.9628               439.1195               500.5956
 Red. masses --      3.6671                 2.8333                 3.6673
 Frc consts  --      0.3336                 0.3219                 0.5415
 IR Inten    --      3.9619                 1.4514                 2.8858

                     25                     26                     27
                      A                      A                      A
 Frequencies --    543.8614               558.4761               611.9396
 Red. masses --      5.0011                 2.9614                 3.3704
 Frc consts  --      0.8716                 0.5442                 0.7436
 IR Inten    --      1.2805                21.2129                11.2856

                     28                     29                     30
                      A                      A                      A
 Frequencies --    736.1778               804.6711               817.6648
 Red. masses --      1.2601                 2.0954                 1.2684
 Frc consts  --      0.4024                 0.7994                 0.4996
 IR Inten    --      5.9106                 6.3747                 2.0528

                     31                     32                     33
                      A                      A                      A
 Frequencies --    825.2653               838.1934               864.8815
 Red. masses --      2.8838                 1.0855                 2.6286
 Frc consts  --      1.1572                 0.4493                 1.1585
 IR Inten    --      3.4622                 1.3220                12.8842

                     34                     35                     36
                      A                      A                      A
 Frequencies --    877.4392               884.2399               900.0325
 Red. masses --      2.0096                 2.0629                 1.9960
 Frc consts  --      0.9116                 0.9503                 0.9527
 IR Inten    --      4.1711                 7.6089                 4.1837

                     37                     38                     39
                      A                      A                      A
 Frequencies --    944.4005               969.2431              1002.0497
 Red. masses --      2.3692                 2.2491                 2.0499
 Frc consts  --      1.2450                 1.2449                 1.2127
 IR Inten    --     11.2770                17.3107                 7.3541

                     40                     41                     42
                      A                      A                      A
 Frequencies --   1034.8505              1062.6946              1073.0760
 Red. masses --      2.8229                 2.9887                 2.9272
 Frc consts  --      1.7812                 1.9886                 1.9860
 IR Inten    --      3.3096                19.1211                31.4077

                     43                     44                     45
                      A                      A                      A
 Frequencies --   1093.8146              1126.3175              1130.1635
 Red. masses --      2.2895                 2.0265                 2.2108
 Frc consts  --      1.6139                 1.5147                 1.6637
 IR Inten    --     48.1210                 0.1504                31.6494

                     46                     47                     48
                      A                      A                      A
 Frequencies --   1143.7973              1147.8714              1173.7501
 Red. masses --      2.4479                 2.1909                 4.9957
 Frc consts  --      1.8868                 1.7008                 4.0551
 IR Inten    --     67.8290                16.4500               107.0895

                     49                     50                     51
                      A                      A                      A
 Frequencies --   1183.2302              1193.2162              1201.4263
 Red. masses --      2.3966                 1.5530                 2.9292
 Frc consts  --      1.9769                 1.3027                 2.4911
 IR Inten    --     30.6108                 8.8123                87.7870

                     52                     53                     54
                      A                      A                      A
 Frequencies --   1204.5983              1269.0693              1280.2524
 Red. masses --      1.6622                 2.8730                 1.1178
 Frc consts  --      1.4211                 2.7262                 1.0794
 IR Inten    --     22.7945               330.6929                 4.4035

                     55                     56                     57
                      A                      A                      A
 Frequencies --   1291.1142              1307.1469              1309.9698
 Red. masses --      1.3968                 1.1074                 1.1131
 Frc consts  --      1.3719                 1.1148                 1.1254
 IR Inten    --     20.5885                 2.2852                 0.6670

                     58                     59                     60
                      A                      A                      A
 Frequencies --   1327.8333              1345.8230              1356.9767
 Red. masses --      1.4883                 1.1594                 1.2355
 Frc consts  --      1.5461                 1.2372                 1.3404
 IR Inten    --     24.9396                16.3001                 1.8937

                     61                     62                     63
                      A                      A                      A
 Frequencies --   1381.4111              1400.9504              1409.3653
 Red. masses --      1.2662                 1.2379                 1.1989
 Frc consts  --      1.4236                 1.4314                 1.4031
 IR Inten    --     20.9643                28.8605                10.7740

                     64                     65                     66
                      A                      A                      A
 Frequencies --   1417.0143              1429.9358              1432.5708
 Red. masses --      1.3580                 1.2814                 1.4446
 Frc consts  --      1.6065                 1.5437                 1.7467
 IR Inten    --      2.8878                 8.3418                 2.3069

                     67                     68                     69
                      A                      A                      A
 Frequencies --   1440.4553              1440.7119              1451.4862
 Red. masses --      1.2469                 1.3079                 1.3986
 Frc consts  --      1.5243                 1.5995                 1.7361
 IR Inten    --      1.6922                17.7940                 7.5893

                     70                     71                     72
                      A                      A                      A
 Frequencies --   1469.6122              1502.8782              1513.6809
 Red. masses --      1.4811                 1.0845                 1.0813
 Frc consts  --      1.8846                 1.4432                 1.4596
 IR Inten    --      9.9784                 4.1835                 5.0252

                     73                     74                     75
                      A                      A                      A
 Frequencies --   1515.3122              1515.7716              1522.9667
 Red. masses --      1.0435                 1.0405                 1.0694
 Frc consts  --      1.4117                 1.4085                 1.4614
 IR Inten    --      6.1701                 2.0338                 0.7017

                     76                     77                     78
                      A                      A                      A
 Frequencies --   1525.1070              1530.2484              1530.5287
 Red. masses --      1.0562                 1.0520                 1.0604
 Frc consts  --      1.4474                 1.4514                 1.4635
 IR Inten    --      1.3694                 9.5083                 2.1604

                     79                     80                     81
                      A                      A                      A
 Frequencies --   1536.6856              1542.1211              1546.8928
 Red. masses --      1.0531                 1.0827                 1.0811
 Frc consts  --      1.4651                 1.5170                 1.5241
 IR Inten    --      4.6651                 4.4000                 4.8244

                     82                     83                     84
                      A                      A                      A
 Frequencies --   1563.9912              1804.1124              2974.7422
 Red. masses --      1.0920                12.0320                 1.0628
 Frc consts  --      1.5737                23.0736                 5.5412
 IR Inten    --      0.5880               164.3801                27.1484

                     85                     86                     87
                      A                      A                      A
 Frequencies --   2985.8943              3010.6053              3019.5012
 Red. masses --      1.0609                 1.1043                 1.0799
 Frc consts  --      5.5727                 5.8970                 5.8010
 IR Inten    --    110.2227                66.7287                17.7454

                     88                     89                     90
                      A                      A                      A
 Frequencies --   3036.3266              3042.3356              3044.1662
 Red. masses --      1.0392                 1.0642                 1.0848
 Frc consts  --      5.6450                 5.8034                 5.9230
 IR Inten    --     29.1173                36.3413                19.4232

                     91                     92                     93
                      A                      A                      A
 Frequencies --   3060.3170              3060.7500              3061.8989
 Red. masses --      1.0359                 1.0646                 1.0359
 Frc consts  --      5.7161                 5.8762                 5.7220
 IR Inten    --     13.0609                73.5459                15.1933

                     94                     95                     96
                      A                      A                      A
 Frequencies --   3075.8392              3077.1489              3092.8033
 Red. masses --      1.1008                 1.0604                 1.1009
 Frc consts  --      6.1361                 5.9157                 6.2045
 IR Inten    --     14.6270                17.6403                20.7298

                     97                     98                     99
                      A                      A                      A
 Frequencies --   3097.9877              3104.2030              3114.4140
 Red. masses --      1.0772                 1.1027                 1.0875
 Frc consts  --      6.0913                 6.2606                 6.2147
 IR Inten    --     21.5962                26.6733                49.8261

                    100                    101                    102
                      A                      A                      A
 Frequencies --   3115.9531              3131.0080              3131.2750
 Red. masses --      1.1043                 1.1025                 1.1023
 Frc consts  --      6.3171                 6.3681                 6.3678
 IR Inten    --      6.1849                35.6241                25.9108

                    103                    104                    105
                      A                      A                      A
 Frequencies --   3142.0996              3145.4080              3147.5250
 Red. masses --      1.1046                 1.1032                 1.1035
 Frc consts  --      6.4255                 6.4306                 6.4414
 IR Inten    --     51.9401                 3.9585                35.3209

 - Thermochemistry -
 -------------------
 Temperature   298.150 Kelvin.  Pressure   1.00000 Atm.
 Atom     1 has atomic number  6 and mass  12.00000

 Molecular mass:   218.15181 amu.
 Principal axes and moments of inertia in atomic units:
                           1         2         3
     Eigenvalues --  2566.315534100.867674382.73363
           X            0.99995   0.00312   0.00939
           Y           -0.00283   0.99951  -0.03116
           Z           -0.00949   0.03113   0.99947
 This molecule is an asymmetric top.
 Rotational symmetry number  1.
 Warning -- assumption of classical behavior for rotation
           may cause significant error
 Rotational temperatures (Kelvin)      0.03375     0.02112     0.01976
 Rotational constants (GHZ):           0.70324     0.44009     0.41178
 Zero-point vibrational energy     865857.7 (Joules/Mol)
                                  206.94497 (Kcal/Mol)
 Warning -- explicit consideration of  27 degrees of freedom as
           vibrations may cause significant error
 Vibrational temperatures:     71.75    78.51    88.78   109.13   116.08
          (Kelvin)            153.44   174.84   187.45   205.80   228.13
                              249.11   254.09   291.60   363.37   383.59
                              387.28   397.66   413.50   421.36   488.11
                              541.75   565.39   631.80   720.25   782.50
                              803.52   880.44  1059.20  1157.74  1176.44
                             1187.37  1205.97  1244.37  1262.44  1272.22
                             1294.95  1358.78  1394.52  1441.73  1488.92
                             1528.98  1543.92  1573.76  1620.52  1626.05
                             1645.67  1651.53  1688.76  1702.40  1716.77
                             1728.58  1733.15  1825.91  1842.00  1857.63
                             1880.69  1884.75  1910.46  1936.34  1952.39
                             1987.54  2015.66  2027.76  2038.77  2057.36
                             2061.15  2072.49  2072.86  2088.36  2114.44
                             2162.31  2177.85  2180.20  2180.86  2191.21
                             2194.29  2201.69  2202.09  2210.95  2218.77
                             2225.63  2250.23  2595.72  4279.99  4296.04
                             4331.59  4344.39  4368.60  4377.24  4379.88
                             4403.11  4403.74  4405.39  4425.45  4427.33
                             4449.85  4457.31  4466.26  4480.95  4483.16
                             4504.82  4505.21  4520.78  4525.54  4528.59

 Zero-point correction=                           0.329788 (Hartree/Particle)
 Thermal correction to Energy=                    0.347795
 Thermal correction to Enthalpy=                  0.348739
 Thermal correction to Gibbs Free Energy=         0.283937
 Sum of electronic and zero-point Energies=           -733.033188
 Sum of electronic and thermal Energies=              -733.015181
 Sum of electronic and thermal Enthalpies=            -733.014236
 Sum of electronic and thermal Free Energies=         -733.079039

                     E (Thermal)             CV                S
                      KCal/Mol        Cal/Mol-Kelvin    Cal/Mol-Kelvin
 Total                  218.245             64.651            136.387
 Electronic               0.000              0.000              0.000
 Translational            0.889              2.981             42.043
 Rotational               0.889              2.981             32.200
 Vibrational            216.467             58.689             62.144
 Vibration     1          0.595              1.978              4.823
 Vibration     2          0.596              1.976              4.645
 Vibration     3          0.597              1.973              4.402
 Vibration     4          0.599              1.965              3.996
 Vibration     5          0.600              1.962              3.874
 Vibration     6          0.606              1.944              3.329
 Vibration     7          0.609              1.931              3.076
 Vibration     8          0.612              1.923              2.942
 Vibration     9          0.616              1.910              2.763
 Vibration    10          0.621              1.893              2.567
 Vibration    11          0.627              1.876              2.401
 Vibration    12          0.628              1.871              2.364
 Vibration    13          0.639              1.836              2.109
 Vibration    14          0.664              1.758              1.713
 Vibration    15          0.672              1.734              1.618
 Vibration    16          0.674              1.730              1.602
 Vibration    17          0.678              1.717              1.556
 Vibration    18          0.685              1.697              1.489
 Vibration    19          0.688              1.687              1.457
 Vibration    20          0.719              1.597              1.216
 Vibration    21          0.747              1.520              1.053
 Vibration    22          0.760              1.485              0.989
 Vibration    23          0.799              1.385              0.829
 Vibration    24          0.856              1.249              0.657
 Vibration    25          0.899              1.153              0.557
 Vibration    26          0.914              1.121              0.527
 Vibration    27          0.971              1.007              0.430

 Optimization completed.
    -- Stationary point found.
 Normal termination of Gaussian 16 at Thu Dec 10 16:45:45 2020.

 ----------------------------------------------------------------------
 # B3LYP/6-311++G(d,p) empiricaldispersion=gd3bj scf=xqc pop=npa geom=c
 heck
 ----------------------------------------------------------------------

 --------------------------------------
 CID_83037429_JID_5433_Energie_neutraal
 --------------------------------------
 Structure from the checkpoint file:  "JID_5433.chk"
 Charge =  0 Multiplicity = 1

 SCF Done:  E(RB3LYP) =  -733.578438951     A.U. after   14 cycles
 Normal termination of Gaussian 16 at Thu Dec 10 16:51:08 2020.

 ----------------------------------------------------------------------
 # B3LYP/6-311++G(d,p) empiricaldispersion=gd3bj scf=xqc pop=npa geom=c
 heck
 ----------------------------------------------------------------------

 ------------------------------------
 CID_83037429_JID_5433_Energie_kation
 ------------------------------------
 Structure from the checkpoint file:  "JID_5433.chk"
 Charge =  1 Multiplicity = 2

 SCF Done:  E(UB3LYP) =  -733.259134184     A.U. after   23 cycles
 Normal termination of Gaussian 16 at Thu Dec 10 17:06:16 2020.
 Gaussian 16:  ES64L-G16RevA.03 25-Dec-2016

 ----------------------------------------------------------------------
 # B3LYP/6-311++G(d,p) empiricaldispersion=gd3bj scf=xqc pop=npa geom=c
 heck
 ----------------------------------------------------------------------

 -----------------------------------
 CID_83037429_JID_5433_Energie_anion
 -----------------------------------
 Structure from the checkpoint file:  "JID_5433.chk"
 Charge = -1 Multiplicity = 2

                         Standard orientation:
 ---------------------------------------------------------------------
 Center     Atomic      Atomic             Coordinates (Angstroms)
 Number     Number       Type             X           Y           Z
 ---------------------------------------------------------------------
      1          6           0       -3.995090    0.518612   -0.973286
      2          6           0       -2.531785    0.332619   -0.562410
      3          6           0       -2.219399   -1.149581   -0.310252
      4          6           0       -0.792496   -1.587389    0.081559
      5          6           0        0.297977   -0.982218   -0.810068
      6          8           0        0.110055   -0.610114   -1.950521
      7          8           0        1.516599   -1.054560   -0.243140
      8          6           0        2.618365   -0.650855   -1.082805
      9          6           0        3.880976   -0.761664   -0.251532
     10          8           0       -0.483264   -1.587271    1.468879
     11          6           0       -0.703789   -0.423704    2.249194
     12          6           0        0.322187    0.679977    2.051817
     13          8           0        0.082209    1.312558    0.810597
     14          6           0        1.051877    2.286453    0.466173
     15          6           0        0.695540    2.845442   -0.900364
     16          1           0       -4.227013   -0.047384   -1.884079
     17          1           0       -4.220657    1.572713   -1.170412
     18          1           0       -4.679107    0.172900   -0.187596
     19          1           0       -1.873397    0.701106   -1.353073
     20          1           0       -2.314339    0.941654    0.317700
     21          1           0       -2.885879   -1.551767    0.464777
     22          1           0       -2.463483   -1.694610   -1.230519
     23          1           0       -0.734492   -2.659191   -0.157971
     24          1           0        2.646270   -1.300614   -1.963637
     25          1           0        2.445453    0.370292   -1.433816
     26          1           0        4.021868   -1.785848    0.107360
     27          1           0        4.751676   -0.481578   -0.854145
     28          1           0        3.835091   -0.097544    0.617923
     29          1           0       -1.713319   -0.022780    2.097175
     30          1           0       -0.636790   -0.772273    3.285526
     31          1           0        0.234704    1.409263    2.876257
     32          1           0        1.332772    0.247640    2.077808
     33          1           0        1.069186    3.083951    1.228001
     34          1           0        2.053936    1.827486    0.455408
     35          1           0       -0.290314    3.320187   -0.871459
     36          1           0        1.432828    3.592793   -1.213190
     37          1           0        0.664029    2.042553   -1.642714
 ---------------------------------------------------------------------

 SCF Done:  E(UB3LYP) =  -733.563815246     A.U. after   32 cycles

 The electronic state is 2-A.
 Alpha  occ. eigenvalues --  -19.06910 -19.03382 -19.02947 -19.01593 -10.20500
 Alpha  occ. eigenvalues --  -10.14496 -10.13122 -10.12363 -10.11852 -10.11757
 Alpha  occ. eigenvalues --  -10.07969 -10.06982 -10.06808 -10.06352 -10.06223
 Alpha  occ. eigenvalues --   -1.01321  -0.95188  -0.93795  -0.92496  -0.71104
 Alpha  occ. eigenvalues --   -0.68548  -0.68077  -0.65204  -0.61778  -0.57819
 Alpha  occ. eigenvalues --   -0.54469  -0.52048  -0.50552  -0.49513  -0.46634
 Alpha  occ. eigenvalues --   -0.43653  -0.42030  -0.40688  -0.38569  -0.38389
 Alpha  occ. eigenvalues --   -0.37784  -0.36361  -0.36009  -0.35205  -0.32805
 Alpha  occ. eigenvalues --   -0.32368  -0.31950  -0.30516  -0.30317  -0.29682
 Alpha  occ. eigenvalues --   -0.28812  -0.28677  -0.28018  -0.26927  -0.26551
 Alpha  occ. eigenvalues --   -0.25867  -0.25577  -0.24299  -0.23849  -0.22836
 Alpha  occ. eigenvalues --   -0.21856  -0.20966  -0.19555  -0.17003  -0.15804
 Alpha  occ. eigenvalues --    0.04316
 Alpha virt. eigenvalues --    0.06125   0.06647   0.06943   0.07838   0.08753
 Alpha virt. eigenvalues --    0.08855   0.09413   0.09477   0.09831   0.10616
 Alpha virt. eigenvalues --    0.11175   0.11435   0.11661   0.12100   0.12776

  Beta  occ. eigenvalues --  -19.06905 -19.03382 -19.02937 -19.01591 -10.20495
  Beta  occ. eigenvalues --  -10.14492 -10.13106 -10.12347 -10.11826 -10.11736
  Beta  occ. eigenvalues --  -10.07961 -10.06938 -10.06793 -10.06348 -10.06205
  Beta  occ. eigenvalues --   -1.01312  -0.95176  -0.93784  -0.92489  -0.71088
  Beta  occ. eigenvalues --   -0.68523  -0.68044  -0.65176  -0.61747  -0.57778
  Beta  occ. eigenvalues --   -0.54412  -0.51992  -0.50488  -0.49472  -0.46605
  Beta  occ. eigenvalues --   -0.43637  -0.41995  -0.40657  -0.38541  -0.38369
  Beta  occ. eigenvalues --   -0.37765  -0.36341  -0.35991  -0.35171  -0.32778
  Beta  occ. eigenvalues --   -0.32340  -0.31918  -0.30480  -0.30286  -0.29645
  Beta  occ. eigenvalues --   -0.28785  -0.28651  -0.27977  -0.26901  -0.26520
  Beta  occ. eigenvalues --   -0.25842  -0.25546  -0.24274  -0.23831  -0.22785
  Beta  occ. eigenvalues --   -0.21835  -0.20954  -0.19545  -0.16987  -0.15791
  Beta virt. eigenvalues --    0.06231   0.06952   0.07175   0.07622   0.08307
  Beta virt. eigenvalues --    0.09134   0.09327   0.09583   0.09881   0.10201
  Beta virt. eigenvalues --    0.10878   0.11408   0.11878   0.11952   0.12503

 Mulliken charges and spin densities:
               1          2
     1  C    0.327884  -1.100625
     2  C   -0.762676   1.044889
     3  C    0.308221  -1.073170
     4  C   -0.280636   0.774582
     5  C   -0.180190  -0.608997
     6  O   -0.162983   0.018148
     7  O    0.054782   0.023013
     8  C   -0.652095   0.720224
     9  C    1.445246  -1.989910
    10  O    0.011091  -0.025928
    11  C    0.134136  -0.644303
    12  C    0.001471  -0.195544
    13  O   -0.053942   0.014814
    14  C    0.321981  -0.403332
    15  C    0.048202  -0.648369
    16  H   -0.001591   0.125760
    17  H   -0.077427   0.214033
    18  H   -0.028916   0.158266
    19  H    0.362736  -0.165785
    20  H   -0.002331   0.137909
    21  H    0.066722   0.120885
    22  H    0.141264   0.001563
    23  H   -0.088422   0.326030
    24  H   -0.031368   0.198734
    25  H    0.123630   0.062311
    26  H   -0.142604   0.298332
    27  H   -0.475817   0.628945
    28  H   -0.376161   0.498191
    29  H    0.155872   0.014429
    30  H   -0.506762   0.686809
    31  H   -0.493191   0.622641
    32  H    0.459085  -0.241568
    33  H   -0.442857   0.601577
    34  H    0.088479   0.049587
    35  H    0.122784   0.023613
    36  H   -0.407578   0.553453
    37  H   -0.006037   0.178794
 Sum of Mulliken charges =  -1.00000   1.00000

 Dipole moment (field-independent basis, Debye):
    X=             -4.0538    Y=             -2.8207    Z=             -1.7833  Tot=              5.2507
 Quadrupole moment (field-independent basis, Debye-Ang):
   XX=           -165.6066   YY=           -141.5594   ZZ=           -141.2947
   XY=             -2.0325   XZ=              3.0843   YZ=             -2.3233

 Summary of Natural Population Analysis:

                                       Natural Population
                Natural  -----------------------------------------------
    Atom  No    Charge         Core      Valence    Rydberg      Total
 -----------------------------------------------------------------------
      C    1   -0.28229      0.99967     2.27877    0.00385     3.28229
      C    2   -0.20114      0.99962     2.19281    0.00871     3.20114
      C    3   -0.20209      0.99961     2.19382    0.00867     3.20209
      C    4    0.03041      0.99947     1.95456    0.01556     2.96959
      C    5    0.40683      0.99966     1.56611    0.02740     2.59317
      O    6   -0.31278      0.99987     3.30785    0.00506     4.31278
      O    7   -0.27836      0.99985     3.26852    0.00998     4.27836
      C    8   -0.01699      0.99957     2.00560    0.01182     3.01699
      C    9   -0.29307      0.99966     2.28785    0.00557     3.29307
      O   10   -0.29686      0.99988     3.28762    0.00936     4.29686
      C   11   -0.01762      0.99955     2.00462    0.01345     3.01762
      C   12   -0.02311      0.99958     2.01135    0.01219     3.02311
      O   13   -0.30955      0.99987     3.29633    0.01334     4.30955
      C   14   -0.00700      0.99960     1.99550    0.01190     3.00700
      C   15   -0.29550      0.99965     2.28961    0.00624     3.29550
      H   16    0.09298      0.00000     0.40604    0.00098     0.40702
      H   17    0.09848      0.00000     0.40072    0.00079     0.40152
      H   18    0.09310      0.00000     0.40586    0.00104     0.40690
      H   19    0.10681      0.00000     0.39159    0.00159     0.39319
      H   20    0.10108      0.00000     0.39694    0.00199     0.39892
      H   21    0.10009      0.00000     0.39886    0.00105     0.39991
      H   22    0.10285      0.00000     0.39606    0.00109     0.39715
      H   23    0.10343      0.00000     0.39512    0.00145     0.39657
      H   24    0.08889      0.00000     0.41001    0.00110     0.41111
      H   25    0.09149      0.00000     0.40644    0.00207     0.40851
      H   26    0.10101      0.00000     0.39777    0.00122     0.39899
      H   27    0.10415      0.00000     0.39411    0.00173     0.39585
      H   28    0.10184      0.00000     0.39648    0.00168     0.39816
      H   29    0.08422      0.00000     0.41411    0.00167     0.41578
      H   30    0.09343      0.00000     0.40527    0.00130     0.40657
      H   31    0.08376      0.00000     0.41428    0.00197     0.41624
      H   32    0.08840      0.00000     0.40979    0.00181     0.41160
      H   33    0.07968      0.00000     0.41843    0.00189     0.42032
      H   34    0.07867      0.00000     0.41923    0.00210     0.42133
      H   35    0.09939      0.00000     0.39952    0.00109     0.40061
      H   36    0.10012      0.00000     0.39893    0.00095     0.39988
      H   37    0.10526      0.00000     0.39317    0.00158     0.39474
 =======================================================================
   * Total *   -0.00000     14.99512    44.80965    0.19523    60.00000

 Normal termination of Gaussian 16 at Thu Dec 10 17:28:09 2020.
