 Gaussian 16, Revision A.03,

 -----------------------------------------------------------
 # opt freq B3LYP/6-31G(d) empiricaldispersion=gd3bj scf=xqc
 -----------------------------------------------------------

 ------------------------------
 CID_88186438_JID_6781_neutraal
 ------------------------------
 Symbolic Z-matrix:
 Charge =  0 Multiplicity = 1

 SCF Done:  E(RB3LYP) =  -740.458559573     A.U. after   16 cycles
 SCF Done:  E(RB3LYP) =  -740.464981735     A.U. after   16 cycles
 SCF Done:  E(RB3LYP) =  -740.465365294     A.U. after   14 cycles
 SCF Done:  E(RB3LYP) =  -740.465451139     A.U. after   15 cycles
 SCF Done:  E(RB3LYP) =  -740.466354843     A.U. after   15 cycles
 SCF Done:  E(RB3LYP) =  -740.466461927     A.U. after   15 cycles
 SCF Done:  E(RB3LYP) =  -740.467405545     A.U. after   14 cycles
 SCF Done:  E(RB3LYP) =  -740.468032374     A.U. after   15 cycles
 SCF Done:  E(RB3LYP) =  -740.469049762     A.U. after   15 cycles
 SCF Done:  E(RB3LYP) =  -740.470028640     A.U. after   16 cycles
 SCF Done:  E(RB3LYP) =  -740.473715995     A.U. after   10 cycles
 SCF Done:  E(RB3LYP) =  -740.473717202     A.U. after    9 cycles
 SCF Done:  E(RB3LYP) =  -740.473717528     A.U. after    9 cycles
 SCF Done:  E(RB3LYP) =  -740.473717615     A.U. after    9 cycles
 SCF Done:  E(RB3LYP) =  -740.473717658     A.U. after    9 cycles
 Optimization completed.
    -- Stationary point found.
 Normal termination of Gaussian 16 at Fri Dec 11 00:38:03 2020.

 --------------------------------------------------------------------
 #N Geom=AllCheck Guess=TCheck SCRF=Check GenChk RB3LYP/6-31G(d) Freq
 --------------------------------------------------------------------

 Structure from the checkpoint file:  "JID_6781.chk"
 ------------------------------
 CID_88186438_JID_6781_neutraal
 ------------------------------
 Charge =  0 Multiplicity = 1

 SCF Done:  E(RB3LYP) =  -740.473717658     A.U. after    1 cycles

  Exact polarizability: 183.943 -10.670 130.011   3.112 -14.761  92.679
 Approx polarizability: 274.126 -24.785 222.340   9.736 -38.059 134.784

                      1                      2                      3
                      A                      A                      A
 Frequencies --     36.8040                50.2226                70.0774
 Red. masses --      4.2883                 7.5008                 8.1589
 Frc consts  --      0.0034                 0.0111                 0.0236
 IR Inten    --      0.1755                 0.9060                 2.1832

                      4                      5                      6
                      A                      A                      A
 Frequencies --     78.9258                81.0464               123.0707
 Red. masses --      3.1937                 7.7183                 4.3202
 Frc consts  --      0.0117                 0.0299                 0.0386
 IR Inten    --      0.4123                 1.0817                 1.3632

                      7                      8                      9
                      A                      A                      A
 Frequencies --    141.9772               165.7135               188.5135
 Red. masses --      5.6726                 3.2958                 2.6884
 Frc consts  --      0.0674                 0.0533                 0.0563
 IR Inten    --      0.6563                 0.6203                 0.9451

                     10                     11                     12
                      A                      A                      A
 Frequencies --    235.2270               243.8780               275.1039
 Red. masses --      6.2150                 1.7953                 3.5320
 Frc consts  --      0.2026                 0.0629                 0.1575
 IR Inten    --      1.8840                 0.8337                 0.0696

                     13                     14                     15
                      A                      A                      A
 Frequencies --    321.3590               332.2092               358.9625
 Red. masses --      8.1148                 3.6283                 5.7421
 Frc consts  --      0.4938                 0.2359                 0.4359
 IR Inten    --      0.6172                 0.5583                 7.1049

                     16                     17                     18
                      A                      A                      A
 Frequencies --    376.7643               415.6271               461.9259
 Red. masses --      4.2935                 3.0269                 5.3028
 Frc consts  --      0.3591                 0.3081                 0.6667
 IR Inten    --      4.5227                 0.0136                 0.1687

                     19                     20                     21
                      A                      A                      A
 Frequencies --    515.6105               534.4047               569.6450
 Red. masses --      3.4059                 7.3189                 2.3653
 Frc consts  --      0.5335                 1.2315                 0.4522
 IR Inten    --      2.3751                 4.7750                23.9296

                     22                     23                     24
                      A                      A                      A
 Frequencies --    606.1775               635.7481               649.8515
 Red. masses --      3.8370                 5.5704                 2.5816
 Frc consts  --      0.8307                 1.3265                 0.6423
 IR Inten    --     30.3363                 3.7286                68.2045

                     25                     26                     27
                      A                      A                      A
 Frequencies --    671.4881               718.5568               738.4760
 Red. masses --      4.1701                 1.9008                 4.3180
 Frc consts  --      1.1078                 0.5782                 1.3874
 IR Inten    --     45.8571                36.0645                14.4550

                     28                     29                     30
                      A                      A                      A
 Frequencies --    767.1231               799.0576               810.9483
 Red. masses --      1.7579                 1.7481                 2.8538
 Frc consts  --      0.6095                 0.6576                 1.1058
 IR Inten    --     10.9591                19.5028                11.3624

                     31                     32                     33
                      A                      A                      A
 Frequencies --    868.5011               928.4859               935.6715
 Red. masses --      1.2457                 3.6064                 1.4587
 Frc consts  --      0.5536                 1.8318                 0.7524
 IR Inten    --      0.0668                 4.2228                 5.5344

                     34                     35                     36
                      A                      A                      A
 Frequencies --    971.8621               980.1922              1003.8887
 Red. masses --      2.3996                 1.3453                 1.2731
 Frc consts  --      1.3354                 0.7616                 0.7560
 IR Inten    --      6.6031                 0.0100                 0.2414

                     37                     38                     39
                      A                      A                      A
 Frequencies --   1014.4622              1022.6149              1043.2307
 Red. masses --      3.5827                 6.1742                 6.9183
 Frc consts  --      2.1724                 3.8041                 4.4362
 IR Inten    --      3.6061                 2.4353                 8.9135

                     40                     41                     42
                      A                      A                      A
 Frequencies --   1063.6473              1076.4198              1117.6341
 Red. masses --      2.2930                 3.4557                 1.6389
 Frc consts  --      1.5284                 2.3591                 1.2061
 IR Inten    --      5.2915                 5.1704                 2.5440

                     43                     44                     45
                      A                      A                      A
 Frequencies --   1131.3857              1168.3537              1196.8242
 Red. masses --      2.1032                 2.1744                 1.0999
 Frc consts  --      1.5862                 1.7488                 0.9282
 IR Inten    --      7.2335                 4.5101                 1.1704

                     46                     47                     48
                      A                      A                      A
 Frequencies --   1200.8886              1223.0432              1246.1353
 Red. masses --      2.5078                 1.1470                 3.0056
 Frc consts  --      2.1309                 1.0108                 2.7499
 IR Inten    --    207.6880                 4.7989                 7.4339

                     49                     50                     51
                      A                      A                      A
 Frequencies --   1323.5172              1348.7322              1372.6794
 Red. masses --      1.3217                 3.2642                 1.6973
 Frc consts  --      1.3640                 3.4985                 1.8843
 IR Inten    --     10.9328                 2.6645                13.9558

                     52                     53                     54
                      A                      A                      A
 Frequencies --   1375.5262              1382.2312              1447.5134
 Red. masses --      1.6702                 1.9011                 1.2398
 Frc consts  --      1.8619                 2.1400                 1.5305
 IR Inten    --      2.4577                27.6702                 6.2219

                     55                     56                     57
                      A                      A                      A
 Frequencies --   1498.6125              1507.6776              1527.3592
 Red. masses --      2.2406                 1.0949                 1.0408
 Frc consts  --      2.9648                 1.4663                 1.4305
 IR Inten    --      8.4537                 4.1873                 4.7484

                     58                     59                     60
                      A                      A                      A
 Frequencies --   1536.2609              1547.7544              1595.3000
 Red. masses --      1.0548                 2.1674                11.0734
 Frc consts  --      1.4667                 3.0591                16.6041
 IR Inten    --      2.8408                17.5808                 7.5031

                     61                     62                     63
                      A                      A                      A
 Frequencies --   1647.0359              1666.2925              1844.0826
 Red. masses --      5.7779                 5.4246                10.6352
 Frc consts  --      9.2348                 8.8741                21.3087
 IR Inten    --      1.1648                 7.2687               257.8099

                     64                     65                     66
                      A                      A                      A
 Frequencies --   2311.4741              3064.0986              3079.3817
 Red. masses --     12.7039                 1.0356                 1.0637
 Frc consts  --     39.9912                 5.7285                 5.9428
 IR Inten    --      2.6353                16.6460                10.4207

                     67                     68                     69
                      A                      A                      A
 Frequencies --   3123.5094              3135.0092              3143.3774
 Red. masses --      1.1018                 1.1013                 1.1029
 Frc consts  --      6.3335                 6.3770                 6.4209
 IR Inten    --      4.2142                19.1089                30.3692

                     70                     71                     72
                      A                      A                      A
 Frequencies --   3187.1559              3194.6955              3203.6871
 Red. masses --      1.0853                 1.0885                 1.0928
 Frc consts  --      6.4954                 6.5455                 6.6084
 IR Inten    --      0.5408                 4.7449                20.8797

                     73                     74                     75
                      A                      A                      A
 Frequencies --   3214.1035              3240.5621              3686.0500
 Red. masses --      1.0973                 1.0919                 1.0641
 Frc consts  --      6.6787                 6.7558                 8.5183
 IR Inten    --     24.0437                 2.5785                70.2922

 - Thermochemistry -
 -------------------
 Temperature   298.150 Kelvin.  Pressure   1.00000 Atm.
 Atom     1 has atomic number  6 and mass  12.00000

 Molecular mass:   217.08513 amu.
 Principal axes and moments of inertia in atomic units:
                           1         2         3
     Eigenvalues --  2250.215924744.882925226.25497
           X            0.99985   0.01456  -0.00935
           Y           -0.01448   0.99986   0.00852
           Z            0.00947  -0.00838   0.99992
 This molecule is an asymmetric top.
 Rotational symmetry number  1.
 Warning -- assumption of classical behavior for rotation
           may cause significant error
 Rotational temperatures (Kelvin)      0.03849     0.01825     0.01657
 Rotational constants (GHZ):           0.80203     0.38036     0.34532
 Zero-point vibrational energy     546522.4 (Joules/Mol)
                                  130.62200 (Kcal/Mol)
 Warning -- explicit consideration of  22 degrees of freedom as
           vibrations may cause significant error
 Vibrational temperatures:     52.95    72.26   100.83   113.56   116.61
          (Kelvin)            177.07   204.27   238.42   271.23   338.44
                              350.89   395.81   462.36   477.97   516.47
                              542.08   597.99   664.61   741.85   768.89
                              819.59   872.15   914.70   934.99   966.12
                             1033.84  1062.50  1103.72  1149.67  1166.77
                             1249.58  1335.88  1346.22  1398.29  1410.28
                             1444.37  1459.58  1471.31  1500.98  1530.35
                             1548.73  1608.03  1627.81  1681.00  1721.96
                             1727.81  1759.69  1792.91  1904.25  1940.52
                             1974.98  1979.08  1988.72  2082.65  2156.17
                             2169.21  2197.53  2210.34  2226.87  2295.28
                             2369.72  2397.42  2653.22  3325.70  4408.55
                             4430.54  4494.03  4510.58  4522.62  4585.61
                             4596.45  4609.39  4624.38  4662.45  5303.40

 Zero-point correction=                           0.208159 (Hartree/Particle)
 Thermal correction to Energy=                    0.223269
 Thermal correction to Enthalpy=                  0.224213
 Thermal correction to Gibbs Free Energy=         0.164935
 Sum of electronic and zero-point Energies=           -740.265558
 Sum of electronic and thermal Energies=              -740.250449
 Sum of electronic and thermal Enthalpies=            -740.249505
 Sum of electronic and thermal Free Energies=         -740.308782

                     E (Thermal)             CV                S
                      KCal/Mol        Cal/Mol-Kelvin    Cal/Mol-Kelvin
 Total                  140.103             55.617            124.761
 Electronic               0.000              0.000              0.000
 Translational            0.889              2.981             42.028
 Rotational               0.889              2.981             32.390
 Vibrational            138.326             49.656             50.342
 Vibration     1          0.594              1.982              5.424
 Vibration     2          0.595              1.978              4.809
 Vibration     3          0.598              1.968              4.151
 Vibration     4          0.600              1.963              3.917
 Vibration     5          0.600              1.962              3.865
 Vibration     6          0.610              1.930              3.052
 Vibration     7          0.615              1.911              2.777
 Vibration     8          0.624              1.885              2.484
 Vibration     9          0.633              1.856              2.242
 Vibration    10          0.655              1.787              1.839
 Vibration    11          0.659              1.773              1.774
 Vibration    12          0.677              1.719              1.564
 Vibration    13          0.707              1.633              1.303
 Vibration    14          0.714              1.611              1.249
 Vibration    15          0.734              1.557              1.127
 Vibration    16          0.747              1.520              1.052
 Vibration    17          0.779              1.436              0.907
 Vibration    18          0.820              1.335              0.761
 Vibration    19          0.871              1.215              0.620
 Vibration    20          0.889              1.174              0.577
 Vibration    21          0.926              1.097              0.505
 Vibration    22          0.965              1.019              0.439

 Optimization completed.
    -- Stationary point found.
 Normal termination of Gaussian 16 at Fri Dec 11 00:46:46 2020.

 ----------------------------------------------------------------------
 # B3LYP/6-311++G(d,p) empiricaldispersion=gd3bj scf=xqc pop=npa geom=c
 heck
 ----------------------------------------------------------------------

 --------------------------------------
 CID_88186438_JID_6781_Energie_neutraal
 --------------------------------------
 Structure from the checkpoint file:  "JID_6781.chk"
 Charge =  0 Multiplicity = 1

 SCF Done:  E(RB3LYP) =  -740.684079785     A.U. after   18 cycles
 Normal termination of Gaussian 16 at Fri Dec 11 00:50:26 2020.

 ----------------------------------------------------------------------
 # B3LYP/6-311++G(d,p) empiricaldispersion=gd3bj scf=xqc pop=npa geom=c
 heck
 ----------------------------------------------------------------------

 ------------------------------------
 CID_88186438_JID_6781_Energie_kation
 ------------------------------------
 Structure from the checkpoint file:  "JID_6781.chk"
 Charge =  1 Multiplicity = 2

 SCF Done:  E(UB3LYP) =  -740.349669525     A.U. after   33 cycles
 SCF Done:  E(UB3LYP) =  -740.349669525     a.u. after    1 cycles
 Normal termination of Gaussian 16 at Fri Dec 11 00:59:37 2020.
 Gaussian 16:  ES64L-G16RevA.03 25-Dec-2016

 ----------------------------------------------------------------------
 # B3LYP/6-311++G(d,p) empiricaldispersion=gd3bj scf=xqc pop=npa geom=c
 heck
 ----------------------------------------------------------------------

 -----------------------------------
 CID_88186438_JID_6781_Energie_anion
 -----------------------------------
 Structure from the checkpoint file:  "JID_6781.chk"
 Charge = -1 Multiplicity = 2

                         Standard orientation:
 ---------------------------------------------------------------------
 Center     Atomic      Atomic             Coordinates (Angstroms)
 Number     Number       Type             X           Y           Z
 ---------------------------------------------------------------------
      1          6           0       -0.235256    0.603560    2.693595
      2          6           0       -0.482688   -0.629372    1.825312
      3          6           0       -0.323658   -0.368027    0.301063
      4          6           0        1.081225    0.133808   -0.036238
      5          6           0        1.318063    1.439454   -0.474534
      6          6           0        2.621491    1.862141   -0.741372
      7          6           0        3.695810    0.989207   -0.575941
      8          6           0        3.461547   -0.316254   -0.141034
      9          6           0        2.162337   -0.741376    0.128014
     10          6           0       -0.565296   -1.681712   -0.467992
     11          8           0       -0.520198   -2.785496    0.022034
     12          8           0       -0.756661   -1.456066   -1.782741
     13          7           0       -1.314494    0.667495   -0.058809
     14          7           0       -2.463279    0.184545   -0.196185
     15          6           0       -3.439640    1.096289   -0.472140
     16          7           0       -4.386657    1.732494   -0.709807
     17          1           0        0.774007    0.998072    2.542703
     18          1           0       -0.343475    0.340420    3.750406
     19          1           0       -0.945536    1.406203    2.470932
     20          1           0        0.215648   -1.429950    2.081883
     21          1           0       -1.491835   -1.025354    1.982151
     22          1           0        0.486894    2.121494   -0.603368
     23          1           0        2.793232    2.879599   -1.080858
     24          1           0        4.708299    1.321799   -0.785432
     25          1           0        4.290062   -1.006413   -0.010680
     26          1           0        1.987096   -1.760976    0.459561
     27          1           0       -0.872130   -2.330453   -2.200432
 ---------------------------------------------------------------------

 SCF Done:  E(UB3LYP) =  -740.746169653     A.U. after   23 cycles

 The electronic state is 2-A.
 Alpha  occ. eigenvalues --  -19.05832 -19.00492 -14.17669 -14.16068 -14.12974
 Alpha  occ. eigenvalues --  -10.19085 -10.09180 -10.07977 -10.07920 -10.07903
 Alpha  occ. eigenvalues --  -10.07613 -10.07291 -10.06490 -10.05344 -10.04954
 Alpha  occ. eigenvalues --  -10.04351  -1.00014  -0.91210  -0.87133  -0.76173
 Alpha  occ. eigenvalues --   -0.73555  -0.69974  -0.64819  -0.63973  -0.61122
 Alpha  occ. eigenvalues --   -0.55410  -0.51853  -0.50802  -0.50016  -0.44946
 Alpha  occ. eigenvalues --   -0.41320  -0.39555  -0.37937  -0.36501  -0.34973
 Alpha  occ. eigenvalues --   -0.34458  -0.33185  -0.32511  -0.31815  -0.30145
 Alpha  occ. eigenvalues --   -0.29382  -0.27315  -0.26940  -0.26352  -0.25799
 Alpha  occ. eigenvalues --   -0.24510  -0.23977  -0.22752  -0.22342  -0.21366
 Alpha  occ. eigenvalues --   -0.20513  -0.18114  -0.15903  -0.15739  -0.15566
 Alpha  occ. eigenvalues --   -0.14333  -0.07323   0.00904
 Alpha virt. eigenvalues --    0.06828   0.07988   0.08391   0.08601   0.09023
 Alpha virt. eigenvalues --    0.09252   0.10482   0.11543   0.11590   0.12524
 Alpha virt. eigenvalues --    0.13364   0.13877   0.14204   0.14980   0.15605

  Beta  occ. eigenvalues --  -19.05831 -19.00485 -14.17058 -14.14955 -14.12641
  Beta  occ. eigenvalues --  -10.19051 -10.09231 -10.07970 -10.07917 -10.07896
  Beta  occ. eigenvalues --  -10.07596 -10.07289 -10.06494 -10.05401 -10.04892
  Beta  occ. eigenvalues --  -10.04346  -0.99990  -0.91195  -0.85529  -0.76117
  Beta  occ. eigenvalues --   -0.73042  -0.69706  -0.64784  -0.63913  -0.60686
  Beta  occ. eigenvalues --   -0.54341  -0.51770  -0.50713  -0.49914  -0.44835
  Beta  occ. eigenvalues --   -0.41262  -0.39243  -0.37866  -0.36420  -0.34891
  Beta  occ. eigenvalues --   -0.34284  -0.33067  -0.32324  -0.31460  -0.29859
  Beta  occ. eigenvalues --   -0.29221  -0.26762  -0.26615  -0.25770  -0.24661
  Beta  occ. eigenvalues --   -0.24381  -0.23457  -0.22396  -0.21761  -0.21239
  Beta  occ. eigenvalues --   -0.19955  -0.17972  -0.15683  -0.15329  -0.14578
  Beta  occ. eigenvalues --   -0.12330  -0.06245
  Beta virt. eigenvalues --    0.06821   0.07957   0.08195   0.08547   0.09004
  Beta virt. eigenvalues --    0.09221   0.10466   0.11398   0.11641   0.11813
  Beta virt. eigenvalues --    0.12672   0.13370   0.13879   0.14212   0.14986

 Mulliken charges and spin densities:
               1          2
     1  C   -0.757251   0.001673
     2  C   -0.168964  -0.009937
     3  C   -0.000911  -0.041121
     4  C    0.724167  -0.014815
     5  C   -0.128545   0.037164
     6  C   -0.458934   0.025766
     7  C   -0.389225  -0.000140
     8  C   -0.303643   0.015251
     9  C   -0.425047  -0.005105
    10  C   -0.146746   0.005213
    11  O   -0.225888   0.002882
    12  O   -0.119901   0.002275
    13  N   -0.070348   0.536650
    14  N   -0.034035   0.292595
    15  C    0.153042  -0.030180
    16  N   -0.461568   0.174392
    17  H    0.123874   0.001599
    18  H    0.111164   0.001445
    19  H    0.162392   0.005401
    20  H    0.121199   0.009131
    21  H    0.209388  -0.002602
    22  H    0.222519  -0.007252
    23  H    0.155912  -0.001105
    24  H    0.124424   0.000485
    25  H    0.151882  -0.001025
    26  H    0.173627   0.000857
    27  H    0.257414   0.000503
 Sum of Mulliken charges =  -1.00000   1.00000

 Dipole moment (field-independent basis, Debye):
    X=             10.7567    Y=             -2.9707    Z=              0.7970  Tot=             11.1878
 Quadrupole moment (field-independent basis, Debye-Ang):
   XX=           -151.6200   YY=           -112.6582   ZZ=           -101.5380
   XY=             16.6738   XZ=             -6.9868   YZ=              6.2202

 Summary of Natural Population Analysis:

                                       Natural Population
                Natural  -----------------------------------------------
    Atom  No    Charge         Core      Valence    Rydberg      Total
 -----------------------------------------------------------------------
      C    1   -0.28763      0.99966     2.28377    0.00420     3.28763
      C    2   -0.17611      0.99960     2.16697    0.00954     3.17611
      C    3   -0.01016      0.99948     1.99045    0.02023     3.01016
      C    4   -0.00271      0.99947     1.98962    0.01362     3.00271
      C    5   -0.09487      0.99950     2.08668    0.00868     3.09487
      C    6   -0.09898      0.99957     2.09049    0.00891     3.09898
      C    7   -0.11561      0.99957     2.10679    0.00925     3.11561
      C    8   -0.10222      0.99957     2.09356    0.00908     3.10222
      C    9   -0.10644      0.99951     2.09923    0.00770     3.10644
      C   10    0.42606      0.99964     1.54452    0.02978     2.57394
      O   11   -0.31754      0.99986     3.31135    0.00632     4.31754
      O   12   -0.33360      0.99987     3.32693    0.00681     4.33360
      N   13    0.06175      0.99972     2.41660    0.02193     3.43825
      N   14   -0.09454      0.99964     2.57737    0.01752     3.59454
      C   15    0.20494      0.99964     1.77493    0.02049     2.79506
      N   16   -0.19230      0.99978     2.68438    0.00814     3.69230
      H   17    0.09634      0.00000     0.40280    0.00086     0.40366
      H   18    0.09100      0.00000     0.40815    0.00086     0.40900
      H   19    0.10729      0.00000     0.39181    0.00090     0.39271
      H   20    0.09677      0.00000     0.40219    0.00103     0.40323
      H   21    0.10652      0.00000     0.39192    0.00156     0.39348
      H   22    0.12197      0.00000     0.37686    0.00117     0.37803
      H   23    0.09558      0.00000     0.40348    0.00094     0.40442
      H   24    0.09444      0.00000     0.40459    0.00098     0.40556
      H   25    0.09483      0.00000     0.40420    0.00097     0.40517
      H   26    0.10482      0.00000     0.39387    0.00131     0.39518
      H   27    0.23040      0.00000     0.26481    0.00479     0.26960
 =======================================================================
   * Total *   -0.00000     15.99409    40.78832    0.21758    57.00000

 Normal termination of Gaussian 16 at Fri Dec 11 01:05:58 2020.
