 Gaussian 16, Revision A.03,

 -----------------------------------------------------------
 # opt freq B3LYP/6-31G(d) empiricaldispersion=gd3bj scf=xqc
 -----------------------------------------------------------

 -------------------------------
 CID_104580196_JID_6154_neutraal
 -------------------------------
 Symbolic Z-matrix:
 Charge =  0 Multiplicity = 1

 SCF Done:  E(RB3LYP) =  -1068.35692544     A.U. after   15 cycles
 SCF Done:  E(RB3LYP) =  -1068.36101003     A.U. after   13 cycles
 SCF Done:  E(RB3LYP) =  -1068.35996994     A.U. after   15 cycles
 SCF Done:  E(RB3LYP) =  -1068.36183247     A.U. after   13 cycles
 SCF Done:  E(RB3LYP) =  -1068.36273678     A.U. after   13 cycles
 SCF Done:  E(RB3LYP) =  -1068.36336822     A.U. after   13 cycles
 SCF Done:  E(RB3LYP) =  -1068.36394396     A.U. after   13 cycles
 SCF Done:  E(RB3LYP) =  -1068.36472786     A.U. after   12 cycles
 SCF Done:  E(RB3LYP) =  -1068.36482850     A.U. after   11 cycles
 SCF Done:  E(RB3LYP) =  -1068.36490551     A.U. after   12 cycles
 SCF Done:  E(RB3LYP) =  -1068.36602285     A.U. after    9 cycles
 SCF Done:  E(RB3LYP) =  -1068.36602307     A.U. after    8 cycles
 SCF Done:  E(RB3LYP) =  -1068.36602329     A.U. after    9 cycles
 SCF Done:  E(RB3LYP) =  -1068.36602339     A.U. after    7 cycles
 SCF Done:  E(RB3LYP) =  -1068.36602342     A.U. after    7 cycles
 Optimization completed.
    -- Stationary point found.
 Normal termination of Gaussian 16 at Thu Dec 10 21:34:42 2020.

 --------------------------------------------------------------------
 #N Geom=AllCheck Guess=TCheck SCRF=Check GenChk RB3LYP/6-31G(d) Freq
 --------------------------------------------------------------------

 Structure from the checkpoint file:  "JID_6154.chk"
 -------------------------------
 CID_104580196_JID_6154_neutraal
 -------------------------------
 Charge =  0 Multiplicity = 1

 SCF Done:  E(RB3LYP) =  -1068.36602342     A.U. after    1 cycles

  Exact polarizability: 190.718   0.023 154.716  -2.093   8.777 113.213
 Approx polarizability: 250.642   4.340 249.379  -0.531  19.799 183.945

                      1                      2                      3
                      A                      A                      A
 Frequencies --     21.1959                38.5839                60.4729
 Red. masses --      3.9977                 4.0681                 4.2533
 Frc consts  --      0.0011                 0.0036                 0.0092
 IR Inten    --      0.3525                 2.0867                 2.4052

                      4                      5                      6
                      A                      A                      A
 Frequencies --     72.2993                80.3857               109.4918
 Red. masses --      1.0640                 4.6235                 6.1288
 Frc consts  --      0.0033                 0.0176                 0.0433
 IR Inten    --      0.2918                 2.7662                12.2699

                      7                      8                      9
                      A                      A                      A
 Frequencies --    127.7351               143.8754               169.4391
 Red. masses --      1.1827                 2.9653                 3.3323
 Frc consts  --      0.0114                 0.0362                 0.0564
 IR Inten    --      0.5253                 2.8833                 1.4151

                     10                     11                     12
                      A                      A                      A
 Frequencies --    177.6428               197.6172               210.0394
 Red. masses --      3.5012                 3.9806                 3.2252
 Frc consts  --      0.0651                 0.0916                 0.0838
 IR Inten    --      0.6206                 0.4037                 4.1415

                     13                     14                     15
                      A                      A                      A
 Frequencies --    238.7339               263.9972               275.1795
 Red. masses --      1.1342                 2.3903                 1.1848
 Frc consts  --      0.0381                 0.0982                 0.0529
 IR Inten    --     12.7278                 4.9971                95.5448

                     16                     17                     18
                      A                      A                      A
 Frequencies --    289.2291               299.9479               311.9678
 Red. masses --      2.1987                 2.8464                 1.4273
 Frc consts  --      0.1084                 0.1509                 0.0818
 IR Inten    --     12.3456                 2.6126               144.7881

                     19                     20                     21
                      A                      A                      A
 Frequencies --    339.1103               347.4586               407.5530
 Red. masses --      2.4980                 2.3614                 3.2092
 Frc consts  --      0.1693                 0.1680                 0.3141
 IR Inten    --     10.1153                20.3671                 0.9136

                     22                     23                     24
                      A                      A                      A
 Frequencies --    427.0015               447.5563               464.7043
 Red. masses --      2.5855                 2.7402                 2.6292
 Frc consts  --      0.2778                 0.3234                 0.3345
 IR Inten    --      5.1858                 0.3988                10.6116

                     25                     26                     27
                      A                      A                      A
 Frequencies --    479.0742               538.4287               550.7470
 Red. masses --      2.3613                 4.7832                 2.8549
 Frc consts  --      0.3193                 0.8170                 0.5102
 IR Inten    --      1.4348                 3.1998                 9.0095

                     28                     29                     30
                      A                      A                      A
 Frequencies --    568.9017               587.1533               596.0969
 Red. masses --      3.8274                 1.6683                 4.2334
 Frc consts  --      0.7298                 0.3389                 0.8863
 IR Inten    --     10.5553                13.4970                 2.2947

                     31                     32                     33
                      A                      A                      A
 Frequencies --    656.2073               662.6496               701.3614
 Red. masses --      4.7573                 5.7212                 3.1919
 Frc consts  --      1.2069                 1.4801                 0.9251
 IR Inten    --      9.7181                 5.3474                 7.7563

                     34                     35                     36
                      A                      A                      A
 Frequencies --    743.8823               752.2850               845.7457
 Red. masses --      4.2092                 1.6308                 2.6198
 Frc consts  --      1.3723                 0.5438                 1.1041
 IR Inten    --     12.8724                63.3997                 4.7986

                     37                     38                     39
                      A                      A                      A
 Frequencies --    879.9387               901.8271               926.9452
 Red. masses --      3.3922                 2.9716                 2.0996
 Frc consts  --      1.5475                 1.4239                 1.0629
 IR Inten    --      0.1386                14.2710                 1.7791

                     40                     41                     42
                      A                      A                      A
 Frequencies --    937.9902               966.7522               987.2483
 Red. masses --      1.6317                 1.8488                 1.7552
 Frc consts  --      0.8458                 1.0181                 1.0079
 IR Inten    --      0.0718                 1.0638                 6.2630

                     43                     44                     45
                      A                      A                      A
 Frequencies --    993.9796              1034.6541              1049.8043
 Red. masses --      1.6855                 1.3898                 1.9089
 Frc consts  --      0.9812                 0.8766                 1.2395
 IR Inten    --      7.0377                 1.9761                 5.9106

                     46                     47                     48
                      A                      A                      A
 Frequencies --   1063.3110              1080.7102              1084.4994
 Red. masses --      1.4092                 1.5510                 1.8728
 Frc consts  --      0.9388                 1.0673                 1.2978
 IR Inten    --      1.5570                 0.8585                 4.3287

                     49                     50                     51
                      A                      A                      A
 Frequencies --   1099.2235              1121.4418              1176.5448
 Red. masses --      1.8164                 3.2432                 1.5826
 Frc consts  --      1.2931                 2.4031                 1.2907
 IR Inten    --      0.7993                42.4153                 0.5553

                     52                     53                     54
                      A                      A                      A
 Frequencies --   1193.9848              1200.3090              1209.1008
 Red. masses --      3.2843                 2.2966                 3.5112
 Frc consts  --      2.7586                 1.9495                 3.0244
 IR Inten    --     13.7233                42.1241                19.0370

                     55                     56                     57
                      A                      A                      A
 Frequencies --   1257.0881              1295.0406              1306.6888
 Red. masses --      2.1116                 2.0910                 1.5112
 Frc consts  --      1.9661                 2.0662                 1.5202
 IR Inten    --     16.7222                83.5685                12.4679

                     58                     59                     60
                      A                      A                      A
 Frequencies --   1347.3603              1351.2179              1395.8021
 Red. masses --      3.3889                 1.4672                 2.6702
 Frc consts  --      3.6248                 1.5783                 3.0651
 IR Inten    --     12.0513                 1.3155                90.9209

                     61                     62                     63
                      A                      A                      A
 Frequencies --   1408.8356              1427.1968              1432.2870
 Red. masses --      1.4373                 1.3138                 1.2634
 Frc consts  --      1.6809                 1.5767                 1.5270
 IR Inten    --     24.7910                 5.9265                 0.6762

                     64                     65                     66
                      A                      A                      A
 Frequencies --   1442.1736              1450.7352              1505.4582
 Red. masses --      1.2322                 1.2797                 1.1703
 Frc consts  --      1.5100                 1.5868                 1.5628
 IR Inten    --     11.8758                 2.4692                14.0362

                     67                     68                     69
                      A                      A                      A
 Frequencies --   1505.9022              1508.4232              1510.5848
 Red. masses --      1.1399                 1.0464                 1.0875
 Frc consts  --      1.5231                 1.4028                 1.4621
 IR Inten    --     27.3427                 9.2830                 2.5242

                     70                     71                     72
                      A                      A                      A
 Frequencies --   1513.3063              1516.8015              1518.3098
 Red. masses --      1.1117                 1.0608                 1.0554
 Frc consts  --      1.5000                 1.4380                 1.4335
 IR Inten    --      9.7123                 7.2665                 0.9048

                     73                     74                     75
                      A                      A                      A
 Frequencies --   1524.8493              1541.2620              1547.7724
 Red. masses --      1.0779                 1.0975                 1.0754
 Frc consts  --      1.4766                 1.5361                 1.5179
 IR Inten    --     10.2668                 6.1449                14.4631

                     76                     77                     78
                      A                      A                      A
 Frequencies --   1555.7166              1570.7770              1620.2562
 Red. masses --      1.0788                 4.6526                 5.7621
 Frc consts  --      1.5384                 6.7636                 8.9125
 IR Inten    --      1.2712                14.4293                29.1499

                     79                     80                     81
                      A                      A                      A
 Frequencies --   1648.7716              1790.8772              2983.4865
 Red. masses --      1.2517                 8.1570                 1.0721
 Frc consts  --      2.0048                15.4139                 5.6228
 IR Inten    --     93.0923               336.5829                43.7132

                     82                     83                     84
                      A                      A                      A
 Frequencies --   3044.4347              3049.5561              3049.8547
 Red. masses --      1.0365                 1.0381                 1.0404
 Frc consts  --      5.6604                 5.6882                 5.7020
 IR Inten    --     17.5850                30.4277                19.0177

                     85                     86                     87
                      A                      A                      A
 Frequencies --   3053.5401              3066.3822              3100.9542
 Red. masses --      1.0372                 1.0646                 1.0993
 Frc consts  --      5.6981                 5.8980                 6.2283
 IR Inten    --     25.4838                23.2097                18.9563

                     88                     89                     90
                      A                      A                      A
 Frequencies --   3104.7011              3107.3271              3107.9662
 Red. masses --      1.1022                 1.1015                 1.0893
 Frc consts  --      6.2594                 6.2665                 6.1995
 IR Inten    --      2.7257                12.9961                 4.7656

                     91                     92                     93
                      A                      A                      A
 Frequencies --   3112.4635              3124.5910              3130.1467
 Red. masses --      1.1011                 1.1003                 1.0985
 Frc consts  --      6.2844                 6.3292                 6.3414
 IR Inten    --     59.3597                 6.8563                41.3598

                     94                     95                     96
                      A                      A                      A
 Frequencies --   3141.8845              3156.4037              3170.6774
 Red. masses --      1.1005                 1.1006                 1.0994
 Frc consts  --      6.4007                 6.4604                 6.5119
 IR Inten    --     21.4814                 5.5383                 1.6796

                     97                     98                     99
                      A                      A                      A
 Frequencies --   3484.9063              3589.2470              3717.0935
 Red. masses --      1.0741                 1.0456                 1.1040
 Frc consts  --      7.6857                 7.9366                 8.9871
 IR Inten    --      0.3654                30.3210                26.7961

 - Thermochemistry -
 -------------------
 Temperature   298.150 Kelvin.  Pressure   1.00000 Atm.
 Atom     1 has atomic number  6 and mass  12.00000

 Molecular mass:   241.12488 amu.
 Principal axes and moments of inertia in atomic units:
                           1         2         3
     Eigenvalues --  2068.014047029.807258244.20033
           X            0.99986   0.01673  -0.00285
           Y           -0.01670   0.99981   0.00965
           Z            0.00301  -0.00960   0.99995
 This molecule is an asymmetric top.
 Rotational symmetry number  1.
 Warning -- assumption of classical behavior for rotation
           may cause significant error
 Rotational temperatures (Kelvin)      0.04188     0.01232     0.01051
 Rotational constants (GHZ):           0.87269     0.25673     0.21891
 Zero-point vibrational energy     782962.6 (Joules/Mol)
                                  187.13256 (Kcal/Mol)
 Warning -- explicit consideration of  30 degrees of freedom as
           vibrations may cause significant error
 Vibrational temperatures:     30.50    55.51    87.01   104.02   115.66
          (Kelvin)            157.53   183.78   207.00   243.79   255.59
                              284.33   302.20   343.48   379.83   395.92
                              416.14   431.56   448.85   487.90   499.92
                              586.38   614.36   643.93   668.61   689.28
                              774.68   792.40   818.52   844.78   857.65
                              944.14   953.40  1009.10  1070.28  1082.37
                             1216.84  1266.04  1297.53  1333.67  1349.56
                             1390.94  1420.43  1430.11  1488.64  1510.43
                             1529.87  1554.90  1560.35  1581.54  1613.50
                             1692.79  1717.88  1726.98  1739.63  1808.67
                             1863.27  1880.03  1938.55  1944.10  2008.25
                             2027.00  2053.42  2060.74  2074.97  2087.28
                             2166.02  2166.66  2170.28  2173.39  2177.31
                             2182.34  2184.51  2193.92  2217.53  2226.90
                             2238.33  2260.00  2331.19  2372.21  2576.67
                             4292.57  4380.26  4387.63  4388.06  4393.36
                             4411.84  4461.58  4466.97  4470.75  4471.67
                             4478.14  4495.59  4503.58  4520.47  4541.36
                             4561.90  5014.00  5164.13  5348.07

 Zero-point correction=                           0.298215 (Hartree/Particle)
 Thermal correction to Energy=                    0.316573
 Thermal correction to Enthalpy=                  0.317517
 Thermal correction to Gibbs Free Energy=         0.251194
 Sum of electronic and zero-point Energies=          -1068.067809
 Sum of electronic and thermal Energies=             -1068.049451
 Sum of electronic and thermal Enthalpies=           -1068.048506
 Sum of electronic and thermal Free Energies=        -1068.114830

                     E (Thermal)             CV                S
                      KCal/Mol        Cal/Mol-Kelvin    Cal/Mol-Kelvin
 Total                  198.653             67.839            139.589
 Electronic               0.000              0.000              0.000
 Translational            0.889              2.981             42.342
 Rotational               0.889              2.981             33.149
 Vibrational            196.875             61.878             64.099
 Vibration     1          0.593              1.985              6.519
 Vibration     2          0.594              1.981              5.330
 Vibration     3          0.597              1.973              4.442
 Vibration     4          0.598              1.967              4.090
 Vibration     5          0.600              1.962              3.881
 Vibration     6          0.606              1.942              3.278
 Vibration     7          0.611              1.925              2.980
 Vibration     8          0.616              1.909              2.752
 Vibration     9          0.625              1.880              2.442
 Vibration    10          0.628              1.870              2.353
 Vibration    11          0.637              1.843              2.155
 Vibration    12          0.642              1.825              2.043
 Vibration    13          0.657              1.781              1.812
 Vibration    14          0.671              1.739              1.635
 Vibration    15          0.677              1.719              1.563
 Vibration    16          0.686              1.694              1.478
 Vibration    17          0.692              1.674              1.417
 Vibration    18          0.700              1.651              1.352
 Vibration    19          0.719              1.597              1.216
 Vibration    20          0.725              1.580              1.178
 Vibration    21          0.772              1.454              0.935
 Vibration    22          0.789              1.411              0.869
 Vibration    23          0.807              1.366              0.803
 Vibration    24          0.822              1.328              0.753
 Vibration    25          0.836              1.296              0.713
 Vibration    26          0.893              1.165              0.569
 Vibration    27          0.906              1.138              0.543
 Vibration    28          0.925              1.099              0.506
 Vibration    29          0.944              1.059              0.472
 Vibration    30          0.954              1.040              0.456

 Optimization completed.
    -- Stationary point found.
 Normal termination of Gaussian 16 at Thu Dec 10 21:46:31 2020.

 ----------------------------------------------------------------------
 # B3LYP/6-311++G(d,p) empiricaldispersion=gd3bj scf=xqc pop=npa geom=c
 heck
 ----------------------------------------------------------------------

 ---------------------------------------
 CID_104580196_JID_6154_Energie_neutraal
 ---------------------------------------
 Structure from the checkpoint file:  "JID_6154.chk"
 Charge =  0 Multiplicity = 1

 SCF Done:  E(RB3LYP) =  -1068.58950147     A.U. after   15 cycles
 Normal termination of Gaussian 16 at Thu Dec 10 21:52:02 2020.

 ----------------------------------------------------------------------
 # B3LYP/6-311++G(d,p) empiricaldispersion=gd3bj scf=xqc pop=npa geom=c
 heck
 ----------------------------------------------------------------------

 -------------------------------------
 CID_104580196_JID_6154_Energie_kation
 -------------------------------------
 Structure from the checkpoint file:  "JID_6154.chk"
 Charge =  1 Multiplicity = 2

 SCF Done:  E(UB3LYP) =  -1068.30289947     A.U. after   26 cycles
 Normal termination of Gaussian 16 at Thu Dec 10 22:04:43 2020.
 Gaussian 16:  ES64L-G16RevA.03 25-Dec-2016

 ----------------------------------------------------------------------
 # B3LYP/6-311++G(d,p) empiricaldispersion=gd3bj scf=xqc pop=npa geom=c
 heck
 ----------------------------------------------------------------------

 ------------------------------------
 CID_104580196_JID_6154_Energie_anion
 ------------------------------------
 Structure from the checkpoint file:  "JID_6154.chk"
 Charge = -1 Multiplicity = 2

                         Standard orientation:
 ---------------------------------------------------------------------
 Center     Atomic      Atomic             Coordinates (Angstroms)
 Number     Number       Type             X           Y           Z
 ---------------------------------------------------------------------
      1          6           0        0.947658    2.372503    0.321560
      2          6           0        1.786325    1.151164    0.096352
      3          6           0        1.346149   -0.042142   -0.413240
      4         16           0        2.674097   -1.182484   -0.461900
      5          6           0        3.730703    0.061620    0.200202
      6          7           0        3.131116    1.192194    0.429350
      7          6           0        5.185866   -0.188234    0.447497
      8          6           0       -0.046345   -0.439963   -0.804379
      9          7           0       -0.871401   -0.597629    0.403592
     10          6           0       -2.208667   -1.190580    0.243639
     11          6           0       -2.186280   -2.626257   -0.323024
     12          6           0       -2.828192   -1.222063    1.649517
     13          6           0       -3.055203   -0.309324   -0.716038
     14          6           0       -2.970878    1.188478   -0.446718
     15          8           0       -2.208401    1.925612   -1.060346
     16          7           0       -3.836871    1.674581    0.493629
     17          1           0        1.410390    3.241118   -0.160654
     18          1           0       -0.065544    2.247979   -0.064188
     19          1           0        0.884733    2.594823    1.393997
     20          1           0        5.621958    0.715239    0.879742
     21          1           0        5.340782   -1.022966    1.140703
     22          1           0        5.716763   -0.425671   -0.481749
     23          1           0       -0.492859    0.351747   -1.412418
     24          1           0       -0.001526   -1.347858   -1.427834
     25          1           0       -0.348264   -1.149432    1.081912
     26          1           0       -1.594916   -3.281296    0.327732
     27          1           0       -3.198237   -3.042540   -0.389395
     28          1           0       -1.749147   -2.658650   -1.325838
     29          1           0       -2.793727   -0.230123    2.107638
     30          1           0       -3.864640   -1.578388    1.619353
     31          1           0       -2.265437   -1.905232    2.296815
     32          1           0       -2.713230   -0.452781   -1.743971
     33          1           0       -4.096099   -0.650799   -0.668923
     34          1           0       -4.360812    1.059551    1.097015
     35          1           0       -3.715264    2.634899    0.785035
 ---------------------------------------------------------------------

 SCF Done:  E(UB3LYP) =  -1068.58191301     A.U. after   33 cycles
 SCF Done:  E(UB3LYP) =  -1068.58191301     a.u. after    1 cycles

 The electronic state is 2-A.
 Alpha  occ. eigenvalues --  -88.78091 -18.98869 -14.22909 -14.21425 -14.19990
 Alpha  occ. eigenvalues --  -10.17534 -10.14307 -10.11941 -10.10551 -10.10300
 Alpha  occ. eigenvalues --  -10.10205 -10.10005 -10.07658 -10.06319 -10.06051
 Alpha  occ. eigenvalues --  -10.05774  -7.86756  -5.83018  -5.82685  -5.82367
 Alpha  occ. eigenvalues --   -0.93839  -0.86701  -0.81873  -0.80268  -0.71714
 Alpha  occ. eigenvalues --   -0.69643  -0.68108  -0.63763  -0.62261  -0.59873
 Alpha  occ. eigenvalues --   -0.58591  -0.54386  -0.49767  -0.47243  -0.46264
 Alpha  occ. eigenvalues --   -0.44185  -0.43223  -0.39845  -0.38455  -0.36781
 Alpha  occ. eigenvalues --   -0.36011  -0.35706  -0.34738  -0.34693  -0.32581
 Alpha  occ. eigenvalues --   -0.32330  -0.32048  -0.31129  -0.30829  -0.29546
 Alpha  occ. eigenvalues --   -0.29155  -0.28427  -0.27759  -0.27462  -0.27139
 Alpha  occ. eigenvalues --   -0.26381  -0.25045  -0.24417  -0.23447  -0.18591
 Alpha  occ. eigenvalues --   -0.18020  -0.17424  -0.15861  -0.13758  -0.13079
 Alpha  occ. eigenvalues --    0.04072
 Alpha virt. eigenvalues --    0.05629   0.06052   0.07029   0.07896   0.08230
 Alpha virt. eigenvalues --    0.08852   0.09588   0.09743   0.09853   0.10445
 Alpha virt. eigenvalues --    0.10562   0.11030   0.11334   0.11495   0.12229

  Beta  occ. eigenvalues --  -88.78081 -18.98864 -14.22846 -14.21422 -14.19969
  Beta  occ. eigenvalues --  -10.17529 -10.14230 -10.11937 -10.10539 -10.10294
  Beta  occ. eigenvalues --  -10.10171 -10.10004 -10.07631 -10.06287 -10.06049
  Beta  occ. eigenvalues --  -10.05722  -7.86747  -5.83011  -5.82680  -5.82339
  Beta  occ. eigenvalues --   -0.93823  -0.86644  -0.81843  -0.80181  -0.71665
  Beta  occ. eigenvalues --   -0.69575  -0.68064  -0.63743  -0.62206  -0.59815
  Beta  occ. eigenvalues --   -0.58519  -0.54346  -0.49679  -0.47171  -0.46178
  Beta  occ. eigenvalues --   -0.44136  -0.43152  -0.39803  -0.38407  -0.36733
  Beta  occ. eigenvalues --   -0.35897  -0.35666  -0.34699  -0.34653  -0.32545
  Beta  occ. eigenvalues --   -0.32289  -0.32014  -0.31101  -0.30794  -0.29505
  Beta  occ. eigenvalues --   -0.29118  -0.28379  -0.27726  -0.27415  -0.27078
  Beta  occ. eigenvalues --   -0.26330  -0.25008  -0.24372  -0.23405  -0.18461
  Beta  occ. eigenvalues --   -0.18002  -0.17377  -0.15839  -0.13607  -0.12971
  Beta virt. eigenvalues --    0.05707   0.06444   0.06757   0.07903   0.08311
  Beta virt. eigenvalues --    0.08640   0.09129   0.09818   0.09841   0.10167
  Beta virt. eigenvalues --    0.10718   0.11032   0.11154   0.11288   0.11673

 Mulliken charges and spin densities:
               1          2
     1  C   -0.748978  -0.092100
     2  C   -1.424542  -0.084343
     3  C    1.693582  -0.106821
     4  S   -0.451903   0.008862
     5  C   -0.057522   0.179701
     6  N    0.094205   0.009260
     7  C    0.045908  -0.302978
     8  C   -0.261687  -0.083835
     9  N    0.331925  -0.130952
    10  C   -2.744813   2.833776
    11  C    0.434047  -0.891264
    12  C    1.559831  -2.135539
    13  C    1.595975  -1.910232
    14  C    0.160801  -0.256975
    15  O   -0.320044   0.001075
    16  N   -0.223763  -0.066915
    17  H    0.124526   0.017978
    18  H    0.176218  -0.026202
    19  H    0.096406   0.059940
    20  H    0.131107   0.025644
    21  H    0.128071   0.028442
    22  H    0.022756   0.137503
    23  H    0.165376   0.044706
    24  H    0.067639   0.052897
    25  H    0.232952  -0.017887
    26  H   -0.014990   0.155474
    27  H   -0.193831   0.363218
    28  H   -0.215223   0.351629
    29  H    0.001172   0.155864
    30  H   -0.507190   0.681624
    31  H   -0.247389   0.387136
    32  H    0.237342  -0.044335
    33  H   -0.445493   0.662617
    34  H   -0.343160   0.611016
    35  H   -0.099311   0.382016
 Sum of Mulliken charges =  -1.00000   1.00000

 Dipole moment (field-independent basis, Debye):
    X=              9.6559    Y=             -0.5926    Z=             -1.6538  Tot=              9.8144
 Quadrupole moment (field-independent basis, Debye-Ang):
   XX=           -199.3643   YY=           -147.4755   ZZ=           -136.7082
   XY=             -8.9268   XZ=             11.8060   YZ=              1.4119

 Summary of Natural Population Analysis:

                                       Natural Population
                Natural  -----------------------------------------------
    Atom  No    Charge         Core      Valence    Rydberg      Total
 -----------------------------------------------------------------------
      C    1   -0.30013      0.99962     2.29484    0.00567     3.30013
      C    2    0.07176      0.99941     1.91653    0.01230     2.92824
      C    3   -0.10195      0.99942     2.09200    0.01053     3.10195
      S    4    0.17572      4.99939     2.80606    0.01883     7.82428
      C    5    0.04777      0.99964     1.93652    0.01606     2.95223
      N    6   -0.24965      0.99963     2.73847    0.01156     3.74965
      C    7   -0.30652      0.99961     2.30133    0.00558     3.30652
      C    8   -0.11301      0.99955     2.10259    0.01087     3.11301
      N    9   -0.34117      0.99971     2.83032    0.01114     3.84117
      C   10    0.06239      0.99958     1.92399    0.01403     2.93761
      C   11   -0.29393      0.99962     2.28734    0.00698     3.29393
      C   12   -0.28976      0.99961     2.28203    0.00812     3.28976
      C   13   -0.23879      0.99953     2.22854    0.01072     3.23879
      C   14    0.34691      0.99969     1.62890    0.02450     2.65309
      O   15   -0.33011      0.99987     3.32428    0.00595     4.33011
      N   16   -0.39826      0.99970     2.89044    0.00812     3.89826
      H   17    0.10098      0.00000     0.39776    0.00126     0.39902
      H   18    0.12259      0.00000     0.37629    0.00112     0.37741
      H   19    0.10409      0.00000     0.39439    0.00152     0.39591
      H   20    0.11187      0.00000     0.38645    0.00168     0.38813
      H   21    0.10434      0.00000     0.39456    0.00110     0.39566
      H   22    0.10556      0.00000     0.39302    0.00143     0.39444
      H   23    0.11707      0.00000     0.38102    0.00190     0.38293
      H   24    0.08455      0.00000     0.41307    0.00237     0.41545
      H   25    0.17356      0.00000     0.32358    0.00286     0.32644
      H   26    0.09950      0.00000     0.39946    0.00103     0.40050
      H   27    0.10565      0.00000     0.39308    0.00127     0.39435
      H   28    0.09850      0.00000     0.40045    0.00105     0.40150
      H   29    0.10569      0.00000     0.39240    0.00191     0.39431
      H   30    0.10560      0.00000     0.39136    0.00305     0.39440
      H   31    0.09961      0.00000     0.39926    0.00113     0.40039
      H   32    0.11027      0.00000     0.38864    0.00109     0.38973
      H   33    0.11328      0.00000     0.38482    0.00190     0.38672
      H   34    0.20074      0.00000     0.29198    0.00727     0.29926
      H   35    0.19526      0.00000     0.30271    0.00203     0.30474
 =======================================================================
   * Total *   -0.00000     19.99359    44.78849    0.21792    65.00000

 Normal termination of Gaussian 16 at Thu Dec 10 22:20:52 2020.
