 Gaussian 16, Revision A.03,

 -----------------------------------------------------------
 # opt freq B3LYP/6-31G(d) empiricaldispersion=gd3bj scf=xqc
 -----------------------------------------------------------

 -------------------------------
 CID_148370608_JID_3750_neutraal
 -------------------------------
 Symbolic Z-matrix:
 Charge =  0 Multiplicity = 1

 SCF Done:  E(RB3LYP) =  -1009.96903623     A.U. after   15 cycles
 SCF Done:  E(RB3LYP) =  -1009.97416773     A.U. after   12 cycles
 SCF Done:  E(RB3LYP) =  -1009.97450997     A.U. after   12 cycles
 SCF Done:  E(RB3LYP) =  -1009.97466544     A.U. after   12 cycles
 SCF Done:  E(RB3LYP) =  -1009.97511094     A.U. after   12 cycles
 SCF Done:  E(RB3LYP) =  -1009.97516117     A.U. after   12 cycles
 SCF Done:  E(RB3LYP) =  -1009.97527319     A.U. after   11 cycles
 SCF Done:  E(RB3LYP) =  -1009.97529711     A.U. after   10 cycles
 SCF Done:  E(RB3LYP) =  -1009.97530947     A.U. after   11 cycles
 SCF Done:  E(RB3LYP) =  -1009.97531072     A.U. after    9 cycles
 SCF Done:  E(RB3LYP) =  -1009.97531111     A.U. after    8 cycles
 SCF Done:  E(RB3LYP) =  -1009.97531125     A.U. after    8 cycles
 SCF Done:  E(RB3LYP) =  -1009.97531128     A.U. after    6 cycles
 Optimization completed.
    -- Stationary point found.
 Normal termination of Gaussian 16 at Sun Dec 13 20:02:03 2020.

 --------------------------------------------------------------------
 #N Geom=AllCheck Guess=TCheck SCRF=Check GenChk RB3LYP/6-31G(d) Freq
 --------------------------------------------------------------------

 Structure from the checkpoint file:  "JID_3750.chk"
 -------------------------------
 CID_148370608_JID_3750_neutraal
 -------------------------------
 Charge =  0 Multiplicity = 1

 SCF Done:  E(RB3LYP) =  -1009.97531128     A.U. after    1 cycles

  Exact polarizability: 162.756  13.778  97.519  -7.835   8.223  75.951
 Approx polarizability: 206.254  23.464 166.871  -9.728  20.735 117.085

                      1                      2                      3
                      A                      A                      A
 Frequencies --     30.3726                32.9973                37.3415
 Red. masses --      5.0524                 5.8681                 4.2188
 Frc consts  --      0.0027                 0.0038                 0.0035
 IR Inten    --      2.1089                 1.9038                 0.3862

                      4                      5                      6
                      A                      A                      A
 Frequencies --     66.6050                90.5322               136.4576
 Red. masses --      5.1710                 6.6983                 4.6829
 Frc consts  --      0.0135                 0.0323                 0.0514
 IR Inten    --      2.5604                 1.0298                 1.9790

                      7                      8                      9
                      A                      A                      A
 Frequencies --    166.8173               185.5968               222.9243
 Red. masses --      1.0506                 4.4895                 5.2067
 Frc consts  --      0.0172                 0.0911                 0.1525
 IR Inten    --      0.1237                 3.1849                 3.4914

                     10                     11                     12
                      A                      A                      A
 Frequencies --    257.5766               347.7739               363.5078
 Red. masses --      4.3098                 4.0307                 5.0009
 Frc consts  --      0.1685                 0.2872                 0.3893
 IR Inten    --      1.6215                18.4746                 1.6517

                     13                     14                     15
                      A                      A                      A
 Frequencies --    385.0156               427.8078               459.7295
 Red. masses --      3.7598                 3.0526                 2.3387
 Frc consts  --      0.3284                 0.3292                 0.2912
 IR Inten    --      0.4200                15.3207                 4.5007

                     16                     17                     18
                      A                      A                      A
 Frequencies --    518.3398               579.6434               623.3274
 Red. masses --      5.7536                 8.7620                 4.2287
 Frc consts  --      0.9108                 1.7345                 0.9680
 IR Inten    --      4.1026                 1.3256                 4.4560

                     19                     20                     21
                      A                      A                      A
 Frequencies --    643.5548               648.5913               707.4922
 Red. masses --     11.3845                 1.3856                 4.5325
 Frc consts  --      2.7780                 0.3434                 1.3367
 IR Inten    --      3.3652                10.0075                 7.5958

                     22                     23                     24
                      A                      A                      A
 Frequencies --    828.6967               832.8263               880.5879
 Red. masses --      2.5735                 3.9697                 5.8576
 Frc consts  --      1.0413                 1.6223                 2.6762
 IR Inten    --     11.4070                 6.0652                 0.2208

                     25                     26                     27
                      A                      A                      A
 Frequencies --    913.6439               950.1209               965.9915
 Red. masses --      4.1370                 2.0927                 1.5836
 Frc consts  --      2.0346                 1.1130                 0.8707
 IR Inten    --     21.9886                 5.0588                 6.3900

                     28                     29                     30
                      A                      A                      A
 Frequencies --    978.9130              1020.2134              1037.0698
 Red. masses --      1.3364                 1.8472                 4.2766
 Frc consts  --      0.7545                 1.1328                 2.7100
 IR Inten    --     32.4833                 5.0040                41.3544

                     31                     32                     33
                      A                      A                      A
 Frequencies --   1057.1566              1064.9872              1087.4925
 Red. masses --      5.3728                 2.8345                 1.4628
 Frc consts  --      3.5378                 1.8942                 1.0193
 IR Inten    --    181.0381                 4.7063                 0.4658

                     34                     35                     36
                      A                      A                      A
 Frequencies --   1120.6611              1160.7368              1178.6207
 Red. masses --      2.7165                 2.2560                 3.5994
 Frc consts  --      2.0101                 1.7908                 2.9460
 IR Inten    --     53.6038                66.9709               366.1327

                     37                     38                     39
                      A                      A                      A
 Frequencies --   1192.7337              1233.7505              1308.9985
 Red. masses --      3.5576                 1.1817                 1.2287
 Frc consts  --      2.9819                 1.0598                 1.2404
 IR Inten    --    240.6039                 2.7039                32.6836

                     40                     41                     42
                      A                      A                      A
 Frequencies --   1324.8995              1357.9000              1374.3621
 Red. masses --      2.0976                 3.5620                 1.8393
 Frc consts  --      2.1694                 3.8697                 2.0469
 IR Inten    --    585.5282                 4.0000               373.7894

                     43                     44                     45
                      A                      A                      A
 Frequencies --   1400.3705              1422.8671              1438.0817
 Red. masses --      1.6758                 1.4477                 1.4218
 Frc consts  --      1.9363                 1.7268                 1.7324
 IR Inten    --     89.8382                 1.4409                11.3278

                     46                     47                     48
                      A                      A                      A
 Frequencies --   1444.0617              1464.6259              1503.1998
 Red. masses --      1.3382                 1.2469                 1.0437
 Frc consts  --      1.6442                 1.5760                 1.3894
 IR Inten    --      7.0556                 8.4251                 7.4942

                     49                     50                     51
                      A                      A                      A
 Frequencies --   1514.4694              1519.2006              1547.8751
 Red. masses --      1.0956                 1.0569                 1.1011
 Frc consts  --      1.4806                 1.4372                 1.5543
 IR Inten    --     10.4324                22.0780                 2.6246

                     52                     53                     54
                      A                      A                      A
 Frequencies --   1718.7645              1799.8866              3061.2803
 Red. masses --      5.0672                11.4588                 1.0359
 Frc consts  --      8.8197                21.8715                 5.7199
 IR Inten    --     13.9153               197.4705                12.6343

                     55                     56                     57
                      A                      A                      A
 Frequencies --   3082.8306              3105.6263              3117.6629
 Red. masses --      1.0659                 1.0594                 1.1004
 Frc consts  --      5.9687                 6.0200                 6.3017
 IR Inten    --     25.6041                11.7072                10.7201

                     58                     59                     60
                      A                      A                      A
 Frequencies --   3120.4650              3147.0202              3161.4982
 Red. masses --      1.0849                 1.1037                 1.1043
 Frc consts  --      6.2239                 6.4402                 6.5030
 IR Inten    --      7.6081                14.0854                11.6052

                     61                     62                     63
                      A                      A                      A
 Frequencies --   3168.9455              3181.8326              3273.1676
 Red. masses --      1.1107                 1.0617                 1.1152
 Frc consts  --      6.5715                 6.3327                 7.0392
 IR Inten    --     10.0353                 6.8948                 4.8611

 - Thermochemistry -
 -------------------
 Temperature   298.150 Kelvin.  Pressure   1.00000 Atm.
 Atom     1 has atomic number  6 and mass  12.00000

 Molecular mass:   202.02998 amu.
 Principal axes and moments of inertia in atomic units:
                           1         2         3
     Eigenvalues --   757.612886762.009537004.31654
           X            0.99998   0.00322  -0.00555
           Y           -0.00306   0.99956   0.02946
           Z            0.00564  -0.02944   0.99955
 This molecule is an asymmetric top.
 Rotational symmetry number  1.
 Warning -- assumption of classical behavior for rotation
           may cause significant error
 Rotational temperatures (Kelvin)      0.11432     0.01281     0.01237
 Rotational constants (GHZ):           2.38214     0.26689     0.25766
 Zero-point vibrational energy     466520.3 (Joules/Mol)
                                  111.50102 (Kcal/Mol)
 Warning -- explicit consideration of  17 degrees of freedom as
           vibrations may cause significant error
 Vibrational temperatures:     43.70    47.48    53.73    95.83   130.26
          (Kelvin)            196.33   240.01   267.03   320.74   370.60
                              500.37   523.01   553.95   615.52   661.45
                              745.78   833.98   896.83   925.93   933.18
                             1017.92  1192.31  1198.25  1266.97  1314.53
                             1367.01  1389.85  1408.44  1467.86  1492.11
                             1521.01  1532.28  1564.66  1612.38  1670.04
                             1695.77  1716.08  1775.09  1883.36  1906.23
                             1953.72  1977.40  2014.82  2047.19  2069.08
                             2077.68  2107.27  2162.77  2178.98  2185.79
                             2227.05  2472.92  2589.64  4404.50  4435.51
                             4468.30  4485.62  4489.65  4527.86  4548.69
                             4559.41  4577.95  4709.36

 Zero-point correction=                           0.177688 (Hartree/Particle)
 Thermal correction to Energy=                    0.190747
 Thermal correction to Enthalpy=                  0.191691
 Thermal correction to Gibbs Free Energy=         0.135143
 Sum of electronic and zero-point Energies=          -1009.797623
 Sum of electronic and thermal Energies=             -1009.784564
 Sum of electronic and thermal Enthalpies=           -1009.783620
 Sum of electronic and thermal Free Energies=        -1009.840168

                     E (Thermal)             CV                S
                      KCal/Mol        Cal/Mol-Kelvin    Cal/Mol-Kelvin
 Total                  119.696             45.899            119.016
 Electronic               0.000              0.000              0.000
 Translational            0.889              2.981             41.814
 Rotational               0.889              2.981             31.951
 Vibrational            117.918             39.938             45.250
 Vibration     1          0.594              1.984              5.805
 Vibration     2          0.594              1.983              5.641
 Vibration     3          0.594              1.982              5.395
 Vibration     4          0.598              1.970              4.251
 Vibration     5          0.602              1.956              3.649
 Vibration     6          0.614              1.917              2.853
 Vibration     7          0.624              1.883              2.471
 Vibration     8          0.632              1.860              2.271
 Vibration     9          0.649              1.806              1.935
 Vibration    10          0.667              1.750              1.678
 Vibration    11          0.725              1.580              1.176
 Vibration    12          0.737              1.547              1.107
 Vibration    13          0.754              1.502              1.019
 Vibration    14          0.789              1.410              0.866
 Vibration    15          0.818              1.339              0.767
 Vibration    16          0.873              1.209              0.614
 Vibration    17          0.936              1.075              0.486

 Optimization completed.
    -- Stationary point found.
 Normal termination of Gaussian 16 at Sun Dec 13 20:06:57 2020.

 ----------------------------------------------------------------------
 # B3LYP/6-311++G(d,p) empiricaldispersion=gd3bj scf=xqc pop=npa geom=c
 heck
 ----------------------------------------------------------------------

 ---------------------------------------
 CID_148370608_JID_3750_Energie_neutraal
 ---------------------------------------
 Structure from the checkpoint file:  "JID_3750.chk"
 Charge =  0 Multiplicity = 1

 SCF Done:  E(RB3LYP) =  -1010.17741921     A.U. after   15 cycles
 Normal termination of Gaussian 16 at Sun Dec 13 20:09:09 2020.

 ----------------------------------------------------------------------
 # B3LYP/6-311++G(d,p) empiricaldispersion=gd3bj scf=xqc pop=npa geom=c
 heck
 ----------------------------------------------------------------------

 -------------------------------------
 CID_148370608_JID_3750_Energie_kation
 -------------------------------------
 Structure from the checkpoint file:  "JID_3750.chk"
 Charge =  1 Multiplicity = 2

 SCF Done:  E(UB3LYP) =  -1009.74751361     A.U. after   33 cycles
 SCF Done:  E(UB3LYP) =  -1009.85959536     a.u. after   18 cycles
 Normal termination of Gaussian 16 at Sun Dec 13 20:40:45 2020.
 Gaussian 16:  ES64L-G16RevA.03 25-Dec-2016

 ----------------------------------------------------------------------
 # B3LYP/6-311++G(d,p) empiricaldispersion=gd3bj scf=xqc pop=npa geom=c
 heck
 ----------------------------------------------------------------------

 ------------------------------------
 CID_148370608_JID_3750_Energie_anion
 ------------------------------------
 Structure from the checkpoint file:  "JID_3750.chk"
 Charge = -1 Multiplicity = 2

                         Standard orientation:
 ---------------------------------------------------------------------
 Center     Atomic      Atomic             Coordinates (Angstroms)
 Number     Number       Type             X           Y           Z
 ---------------------------------------------------------------------
      1          6           0        4.637201   -0.414227   -0.916822
      2          6           0        3.621967    0.283503   -0.053196
      3          6           0        3.819897    1.471623    0.531445
      4          6           0        2.339693   -0.452779    0.117212
      5          8           0        2.107553   -1.534691   -0.384316
      6          8           0        1.433353    0.208385    0.891738
      7          6           0        0.194295   -0.477595    1.129353
      8          6           0       -0.722815   -0.331566   -0.077414
      9          6           0       -0.980414    1.119642   -0.498432
     10          8           0       -2.403774    1.150291   -0.713965
     11          6           0       -2.978123    0.068937   -0.155327
     12         16           0       -4.587900   -0.173567   -0.036520
     13          8           0       -2.040529   -0.791447    0.293176
     14          1           0        5.550331    0.180622   -1.000238
     15          1           0        4.238276   -0.594291   -1.921089
     16          1           0        4.890420   -1.396463   -0.503354
     17          1           0        3.061396    1.936933    1.150050
     18          1           0        4.756539    2.006738    0.403398
     19          1           0        0.379065   -1.530640    1.349301
     20          1           0       -0.251103    0.015400    1.995936
     21          1           0       -0.368051   -0.949879   -0.905316
     22          1           0       -0.484697    1.404632   -1.426732
     23          1           0       -0.728810    1.838481    0.288391
 ---------------------------------------------------------------------

 SCF Done:  E(UB3LYP) =  -1010.19032952     A.U. after   30 cycles

 The electronic state is 2-A.
 Alpha  occ. eigenvalues --  -88.69522 -19.07898 -19.07608 -19.02990 -18.94772
 Alpha  occ. eigenvalues --  -10.21080 -10.14471 -10.14345 -10.12700 -10.12428
 Alpha  occ. eigenvalues --  -10.03816 -10.02822 -10.00780  -7.78329  -5.74719
 Alpha  occ. eigenvalues --   -5.74215  -5.73826  -1.04838  -0.96594  -0.94578
 Alpha  occ. eigenvalues --   -0.87132  -0.72297  -0.66495  -0.63507  -0.60298
 Alpha  occ. eigenvalues --   -0.56054  -0.54141  -0.49972  -0.47240  -0.43940
 Alpha  occ. eigenvalues --   -0.41935  -0.40741  -0.38983  -0.36158  -0.34238
 Alpha  occ. eigenvalues --   -0.33257  -0.32276  -0.30998  -0.29977  -0.28407
 Alpha  occ. eigenvalues --   -0.28201  -0.27766  -0.27660  -0.26126  -0.24983
 Alpha  occ. eigenvalues --   -0.22784  -0.22452  -0.21186  -0.17760  -0.14300
 Alpha  occ. eigenvalues --   -0.13222  -0.12929  -0.11981   0.04528
 Alpha virt. eigenvalues --    0.06331   0.08425   0.09161   0.10049   0.10437
 Alpha virt. eigenvalues --    0.11172   0.11536   0.12667   0.12858   0.13066
 Alpha virt. eigenvalues --    0.13964   0.14600   0.15214   0.15356   0.15957

  Beta  occ. eigenvalues --  -88.69517 -19.07855 -19.07557 -19.02949 -18.94400
  Beta  occ. eigenvalues --  -10.20767 -10.14466 -10.14338 -10.12430 -10.12377
  Beta  occ. eigenvalues --  -10.03827 -10.02715 -10.00371  -7.78325  -5.74729
  Beta  occ. eigenvalues --   -5.74185  -5.73824  -1.04666  -0.96322  -0.94471
  Beta  occ. eigenvalues --   -0.86576  -0.72110  -0.66025  -0.63342  -0.60233
  Beta  occ. eigenvalues --   -0.55842  -0.53781  -0.49794  -0.46512  -0.43779
  Beta  occ. eigenvalues --   -0.41647  -0.40661  -0.38800  -0.35963  -0.34044
  Beta  occ. eigenvalues --   -0.32768  -0.31702  -0.30569  -0.29419  -0.28190
  Beta  occ. eigenvalues --   -0.28012  -0.27698  -0.27464  -0.25763  -0.24597
  Beta  occ. eigenvalues --   -0.22493  -0.22230  -0.20879  -0.16681  -0.13879
  Beta  occ. eigenvalues --   -0.12866  -0.11970  -0.10846
  Beta virt. eigenvalues --    0.08314   0.08399   0.09058   0.09886   0.10266
  Beta virt. eigenvalues --    0.10921   0.11148   0.11469   0.12658   0.12836
  Beta virt. eigenvalues --    0.13023   0.14101   0.14489   0.15166   0.15315

 Mulliken charges and spin densities:
               1          2
     1  C   -0.724485   0.031604
     2  C    0.842849  -0.045339
     3  C   -0.888078   0.475379
     4  C   -0.325444   0.202620
     5  O   -0.362919   0.126596
     6  O   -0.006179  -0.001338
     7  C   -0.241103   0.031433
     8  C   -0.226696   0.017292
     9  C   -0.291434  -0.094883
    10  O    0.000104   0.010106
    11  C    0.320713   0.152527
    12  S   -0.722536   0.046245
    13  O    0.067531   0.008099
    14  H    0.105752  -0.000813
    15  H    0.130896   0.013060
    16  H    0.136389   0.008908
    17  H    0.123747  -0.021276
    18  H    0.082714  -0.025534
    19  H    0.210106  -0.000027
    20  H    0.174421  -0.003972
    21  H    0.226213   0.013615
    22  H    0.195694   0.007611
    23  H    0.171745   0.048086
 Sum of Mulliken charges =  -1.00000   1.00000

 Dipole moment (field-independent basis, Debye):
    X=             -0.4043    Y=              0.9641    Z=              0.0700  Tot=              1.0477
 Quadrupole moment (field-independent basis, Debye-Ang):
   XX=           -169.9274   YY=           -101.4286   ZZ=            -91.2111
   XY=             -2.8404   XZ=             -2.5847   YZ=             -1.6989

 Summary of Natural Population Analysis:

                                       Natural Population
                Natural  -----------------------------------------------
    Atom  No    Charge         Core      Valence    Rydberg      Total
 -----------------------------------------------------------------------
      C    1   -0.29066      0.99964     2.28583    0.00519     3.29066
      C    2   -0.06165      0.99949     2.05144    0.01072     3.06165
      C    3   -0.09111      0.99954     2.08198    0.00959     3.09111
      C    4    0.42841      0.99962     1.54870    0.02328     2.57159
      O    5   -0.29688      0.99987     3.29162    0.00539     4.29688
      O    6   -0.29006      0.99987     3.28100    0.00920     4.29006
      C    7   -0.01961      0.99955     2.00766    0.01240     3.01961
      C    8    0.03796      0.99956     1.95153    0.01095     2.96204
      C    9   -0.02281      0.99958     2.01173    0.01150     3.02281
      O   10   -0.26664      0.99985     3.25727    0.00952     4.26664
      C   11    0.29745      0.99974     1.67825    0.02456     2.70255
      S   12   -0.10165      4.99950     3.08658    0.01556     8.10165
      O   13   -0.26803      0.99985     3.25777    0.01041     4.26803
      H   14    0.09093      0.00000     0.40820    0.00087     0.40907
      H   15    0.10018      0.00000     0.39870    0.00113     0.39982
      H   16    0.10048      0.00000     0.39837    0.00115     0.39952
      H   17    0.09185      0.00000     0.40734    0.00081     0.40815
      H   18    0.07713      0.00000     0.42199    0.00088     0.42287
      H   19    0.10063      0.00000     0.39811    0.00126     0.39937
      H   20    0.08898      0.00000     0.40989    0.00113     0.41102
      H   21    0.10417      0.00000     0.39455    0.00128     0.39583
      H   22    0.09876      0.00000     0.39995    0.00129     0.40124
      H   23    0.09217      0.00000     0.40648    0.00135     0.40783
 =======================================================================
   * Total *   -0.00000     16.99567    35.83493    0.16941    53.00000

 Normal termination of Gaussian 16 at Sun Dec 13 20:46:54 2020.
