 Gaussian 16, Revision A.03,

 -----------------------------------------------------------
 # opt freq B3LYP/6-31G(d) empiricaldispersion=gd3bj scf=xqc
 -----------------------------------------------------------

 -------------------------------
 CID_117271811_JID_2935_neutraal
 -------------------------------
 Symbolic Z-matrix:
 Charge =  0 Multiplicity = 1

 SCF Done:  E(RB3LYP) =  -559.607873129     A.U. after   13 cycles
 SCF Done:  E(RB3LYP) =  -559.608481870     A.U. after   11 cycles
 SCF Done:  E(RB3LYP) =  -559.610785792     A.U. after   11 cycles
 SCF Done:  E(RB3LYP) =  -559.609669957     A.U. after   11 cycles
 SCF Done:  E(RB3LYP) =  -559.611743091     A.U. after   11 cycles
 SCF Done:  E(RB3LYP) =  -559.611897229     A.U. after   11 cycles
 SCF Done:  E(RB3LYP) =  -559.612761914     A.U. after   11 cycles
 SCF Done:  E(RB3LYP) =  -559.612823901     A.U. after    9 cycles
 SCF Done:  E(RB3LYP) =  -559.612840690     A.U. after   10 cycles
 SCF Done:  E(RB3LYP) =  -559.612875541     A.U. after    9 cycles
 SCF Done:  E(RB3LYP) =  -559.612882770     A.U. after    9 cycles
 SCF Done:  E(RB3LYP) =  -559.612886159     A.U. after    8 cycles
 SCF Done:  E(RB3LYP) =  -559.612887719     A.U. after    7 cycles
 SCF Done:  E(RB3LYP) =  -559.612889268     A.U. after    8 cycles
 SCF Done:  E(RB3LYP) =  -559.612889628     A.U. after    7 cycles
 SCF Done:  E(RB3LYP) =  -559.612889675     A.U. after    6 cycles
 Optimization completed.
    -- Stationary point found.
 Normal termination of Gaussian 16 at Wed Dec  9 18:19:53 2020.

 --------------------------------------------------------------------
 #N Geom=AllCheck Guess=TCheck SCRF=Check GenChk RB3LYP/6-31G(d) Freq
 --------------------------------------------------------------------

 Structure from the checkpoint file:  "JID_2935.chk"
 -------------------------------
 CID_117271811_JID_2935_neutraal
 -------------------------------
 Charge =  0 Multiplicity = 1

 SCF Done:  E(RB3LYP) =  -559.612889675     A.U. after    1 cycles

  Exact polarizability: 114.901   0.648 109.162   1.510  -0.353  91.697
 Approx polarizability: 147.680   1.497 149.304   3.747  -0.597 138.437

                      1                      2                      3
                      A                      A                      A
 Frequencies --     40.1794                98.6720               109.3130
 Red. masses --      3.7824                 2.2697                 2.9230
 Frc consts  --      0.0036                 0.0130                 0.0206
 IR Inten    --      1.1734                 0.3063                 1.1605

                      4                      5                      6
                      A                      A                      A
 Frequencies --    131.5526               148.4931               171.8515
 Red. masses --      2.2932                 2.4478                 2.3110
 Frc consts  --      0.0234                 0.0318                 0.0402
 IR Inten    --      1.1097                 2.2873                 2.2070

                      7                      8                      9
                      A                      A                      A
 Frequencies --    183.8846               217.0506               235.3177
 Red. masses --      2.5312                 2.1646                 2.4936
 Frc consts  --      0.0504                 0.0601                 0.0814
 IR Inten    --      1.3344                 1.4130                 1.1169

                     10                     11                     12
                      A                      A                      A
 Frequencies --    270.2111               295.4755               340.8416
 Red. masses --      2.6986                 2.2645                 2.7872
 Frc consts  --      0.1161                 0.1165                 0.1908
 IR Inten    --      1.1449                 1.2472                13.2980

                     13                     14                     15
                      A                      A                      A
 Frequencies --    401.2465               428.5542               433.6273
 Red. masses --      2.4114                 2.9443                 2.7752
 Frc consts  --      0.2287                 0.3186                 0.3075
 IR Inten    --      2.3894                 7.1725                 3.9630

                     16                     17                     18
                      A                      A                      A
 Frequencies --    469.4854               558.4720               614.0540
 Red. masses --      2.0830                 2.2992                 1.2055
 Frc consts  --      0.2705                 0.4225                 0.2678
 IR Inten    --      2.4112                 1.2055                71.6528

                     19                     20                     21
                      A                      A                      A
 Frequencies --    650.8386               705.7220               718.7273
 Red. masses --      1.8773                 3.8895                 1.9424
 Frc consts  --      0.4685                 1.1413                 0.5912
 IR Inten    --     42.1279                 0.7146                 7.5171

                     22                     23                     24
                      A                      A                      A
 Frequencies --    801.3806               814.3035               828.5628
 Red. masses --      1.8636                 1.4601                 1.9970
 Frc consts  --      0.7051                 0.5704                 0.8078
 IR Inten    --      5.3135                 3.8821                64.9235

                     25                     26                     27
                      A                      A                      A
 Frequencies --    870.3491               889.2567               905.3812
 Red. masses --      1.7937                 2.1955                 2.5788
 Frc consts  --      0.8006                 1.0229                 1.2455
 IR Inten    --      3.9372                 8.2251                 4.4279

                     28                     29                     30
                      A                      A                      A
 Frequencies --    921.0807               954.0175               971.7862
 Red. masses --      2.2807                 3.3781                 1.6206
 Frc consts  --      1.1400                 1.8115                 0.9017
 IR Inten    --     12.8016                38.8127                 2.7527

                     31                     32                     33
                      A                      A                      A
 Frequencies --   1017.7816              1033.1244              1054.1292
 Red. masses --      2.3815                 2.0077                 2.3626
 Frc consts  --      1.4535                 1.2625                 1.5468
 IR Inten    --      5.9508                13.6942                24.6204

                     34                     35                     36
                      A                      A                      A
 Frequencies --   1066.6501              1088.3836              1111.3406
 Red. masses --      2.3195                 1.5814                 3.4615
 Frc consts  --      1.5549                 1.1037                 2.5189
 IR Inten    --     30.6118                 4.1529                60.0943

                     37                     38                     39
                      A                      A                      A
 Frequencies --   1128.7960              1145.3676              1152.4804
 Red. masses --      3.0931                 2.2302                 2.0450
 Frc consts  --      2.3221                 1.7237                 1.6003
 IR Inten    --     18.5938                26.0294                44.0194

                     40                     41                     42
                      A                      A                      A
 Frequencies --   1165.0161              1198.4524              1227.0162
 Red. masses --      3.4085                 1.2765                 1.1736
 Frc consts  --      2.7257                 1.0803                 1.0411
 IR Inten    --     35.6534                 5.6467                10.0281

                     43                     44                     45
                      A                      A                      A
 Frequencies --   1231.1459              1245.1558              1261.8867
 Red. masses --      1.4864                 1.3064                 1.4247
 Frc consts  --      1.3274                 1.1933                 1.3366
 IR Inten    --     38.7870                 3.1286                 7.8404

                     46                     47                     48
                      A                      A                      A
 Frequencies --   1272.8622              1297.6866              1328.8331
 Red. masses --      1.2642                 1.5483                 1.1888
 Frc consts  --      1.2068                 1.5362                 1.2368
 IR Inten    --      2.5733                 1.7438                 0.6287

                     49                     50                     51
                      A                      A                      A
 Frequencies --   1337.2100              1350.3988              1360.2568
 Red. masses --      1.3700                 1.2181                 1.3155
 Frc consts  --      1.4434                 1.3088                 1.4341
 IR Inten    --      1.7695                 9.4018                 0.1605

                     52                     53                     54
                      A                      A                      A
 Frequencies --   1379.8592              1397.5720              1409.3896
 Red. masses --      1.3829                 1.4553                 1.3811
 Frc consts  --      1.5514                 1.6747                 1.6164
 IR Inten    --      2.0807                 4.9395                 0.7637

                     55                     56                     57
                      A                      A                      A
 Frequencies --   1430.3948              1436.2391              1484.3771
 Red. masses --      1.3049                 1.3385                 1.1648
 Frc consts  --      1.5730                 1.6267                 1.5121
 IR Inten    --     14.7498                 5.5715                18.5581

                     58                     59                     60
                      A                      A                      A
 Frequencies --   1486.6363              1500.7936              1508.8370
 Red. masses --      1.1718                 1.1161                 1.1197
 Frc consts  --      1.5259                 1.4812                 1.5019
 IR Inten    --     34.1643                 1.9960                 7.6979

                     61                     62                     63
                      A                      A                      A
 Frequencies --   1512.7488              1518.3011              1521.1099
 Red. masses --      1.0515                 1.0979                 1.0951
 Frc consts  --      1.4178                 1.4912                 1.4929
 IR Inten    --      6.1460                 3.0970                 2.9853

                     64                     65                     66
                      A                      A                      A
 Frequencies --   1526.5771              1535.7779              1547.3970
 Red. masses --      1.0806                 1.0924                 1.0579
 Frc consts  --      1.4837                 1.5180                 1.4924
 IR Inten    --      8.2335                 5.0627                 9.0254

                     67                     68                     69
                      A                      A                      A
 Frequencies --   1549.3899              1552.4996              2976.9238
 Red. masses --      1.0870                 1.0885                 1.0730
 Frc consts  --      1.5375                 1.5457                 5.6026
 IR Inten    --      2.6079                 4.8636                46.6755

                     70                     71                     72
                      A                      A                      A
 Frequencies --   2991.5263              3016.1447              3033.0512
 Red. masses --      1.0715                 1.0452                 1.0634
 Frc consts  --      5.6497                 5.6021                 5.7640
 IR Inten    --     60.6012                75.3839                29.9599

                     73                     74                     75
                      A                      A                      A
 Frequencies --   3035.8196              3063.4317              3066.7517
 Red. masses --      1.0700                 1.0641                 1.0810
 Frc consts  --      5.8100                 5.8839                 5.9902
 IR Inten    --     27.7249                26.6661                 8.6076

                     76                     77                     78
                      A                      A                      A
 Frequencies --   3072.0106              3076.3614              3082.2801
 Red. masses --      1.0783                 1.0689                 1.0907
 Frc consts  --      5.9957                 5.9600                 6.1054
 IR Inten    --     35.3709                81.0981                75.0720

                     79                     80                     81
                      A                      A                      A
 Frequencies --   3097.8707              3104.1542              3113.9393
 Red. masses --      1.1039                 1.0895                 1.0946
 Frc consts  --      6.2418                 6.1854                 6.2537
 IR Inten    --      8.0142                23.3807                14.8224

                     82                     83                     84
                      A                      A                      A
 Frequencies --   3115.6229              3123.2873              3131.2037
 Red. masses --      1.0963                 1.1046                 1.0897
 Frc consts  --      6.2699                 6.3486                 6.2945
 IR Inten    --     33.0045                56.5651                26.2266

                     85                     86                     87
                      A                      A                      A
 Frequencies --   3155.3416              3462.7025              3626.5708
 Red. masses --      1.1057                 1.0743                 1.0660
 Frc consts  --      6.4861                 7.5895                 8.2606
 IR Inten    --     19.1946                 3.6182               271.4843

 - Thermochemistry -
 -------------------
 Temperature   298.150 Kelvin.  Pressure   1.00000 Atm.
 Atom     1 has atomic number  6 and mass  12.00000

 Molecular mass:   173.14158 amu.
 Principal axes and moments of inertia in atomic units:
                           1         2         3
     Eigenvalues --  1455.101172466.454573299.09688
           X            0.99998  -0.00680  -0.00050
           Y            0.00680   0.99993  -0.00938
           Z            0.00056   0.00938   0.99996
 This molecule is an asymmetric top.
 Rotational symmetry number  1.
 Warning -- assumption of classical behavior for rotation
           may cause significant error
 Rotational temperatures (Kelvin)      0.05952     0.03512     0.02625
 Rotational constants (GHZ):           1.24029     0.73171     0.54704
 Zero-point vibrational energy     747047.3 (Joules/Mol)
                                  178.54859 (Kcal/Mol)
 Warning -- explicit consideration of  18 degrees of freedom as
           vibrations may cause significant error
 Vibrational temperatures:     57.81   141.97   157.28   189.27   213.65
          (Kelvin)            247.26   264.57   312.29   338.57   388.77
                              425.12   490.40   577.30   616.59   623.89
                              675.48   803.52   883.49   936.41  1015.38
                             1034.09  1153.01  1171.60  1192.12  1252.24
                             1279.44  1302.64  1325.23  1372.62  1398.18
                             1464.36  1486.44  1516.66  1534.67  1565.94
                             1598.97  1624.09  1647.93  1658.16  1676.20
                             1724.31  1765.40  1771.34  1791.50  1815.57
                             1831.36  1867.08  1911.89  1923.95  1942.92
                             1957.11  1985.31  2010.79  2027.80  2058.02
                             2066.43  2135.69  2138.94  2159.31  2170.88
                             2176.51  2184.50  2188.54  2196.40  2209.64
                             2226.36  2229.23  2233.70  4283.13  4304.14
                             4339.56  4363.88  4367.87  4407.59  4412.37
                             4419.94  4426.20  4434.71  4457.15  4466.19
                             4480.26  4482.69  4493.71  4505.10  4539.83
                             4982.06  5217.83

 Zero-point correction=                           0.284535 (Hartree/Particle)
 Thermal correction to Energy=                    0.297303
 Thermal correction to Enthalpy=                  0.298247
 Thermal correction to Gibbs Free Energy=         0.245755
 Sum of electronic and zero-point Energies=           -559.328354
 Sum of electronic and thermal Energies=              -559.315586
 Sum of electronic and thermal Enthalpies=            -559.314642
 Sum of electronic and thermal Free Energies=         -559.367135

                     E (Thermal)             CV                S
                      KCal/Mol        Cal/Mol-Kelvin    Cal/Mol-Kelvin
 Total                  186.561             48.958            110.480
 Electronic               0.000              0.000              0.000
 Translational            0.889              2.981             41.354
 Rotational               0.889              2.981             30.849
 Vibrational            184.783             42.996             38.277
 Vibration     1          0.594              1.981              5.250
 Vibration     2          0.604              1.950              3.480
 Vibration     3          0.606              1.942              3.281
 Vibration     4          0.612              1.922              2.923
 Vibration     5          0.618              1.904              2.691
 Vibration     6          0.626              1.877              2.415
 Vibration     7          0.631              1.862              2.289
 Vibration     8          0.646              1.815              1.984
 Vibration     9          0.655              1.787              1.838
 Vibration    10          0.674              1.728              1.595
 Vibration    11          0.690              1.682              1.442
 Vibration    12          0.720              1.594              1.208
 Vibration    13          0.767              1.467              0.958
 Vibration    14          0.790              1.408              0.863
 Vibration    15          0.794              1.397              0.847
 Vibration    16          0.827              1.318              0.739
 Vibration    17          0.914              1.121              0.527
 Vibration    18          0.973              1.002              0.426

 Optimization completed.
    -- Stationary point found.
 Normal termination of Gaussian 16 at Wed Dec  9 18:28:40 2020.

 ----------------------------------------------------------------------
 # B3LYP/6-311++G(d,p) empiricaldispersion=gd3bj scf=xqc pop=npa geom=c
 heck
 ----------------------------------------------------------------------

 ---------------------------------------
 CID_117271811_JID_2935_Energie_neutraal
 ---------------------------------------
 Structure from the checkpoint file:  "JID_2935.chk"
 Charge =  0 Multiplicity = 1

 SCF Done:  E(RB3LYP) =  -559.786233589     A.U. after   13 cycles
 Normal termination of Gaussian 16 at Wed Dec  9 18:32:27 2020.

 ----------------------------------------------------------------------
 # B3LYP/6-311++G(d,p) empiricaldispersion=gd3bj scf=xqc pop=npa geom=c
 heck
 ----------------------------------------------------------------------

 -------------------------------------
 CID_117271811_JID_2935_Energie_kation
 -------------------------------------
 Structure from the checkpoint file:  "JID_2935.chk"
 Charge =  1 Multiplicity = 2

 SCF Done:  E(UB3LYP) =  -559.472720622     A.U. after   26 cycles
 Normal termination of Gaussian 16 at Wed Dec  9 18:41:30 2020.
 Gaussian 16:  ES64L-G16RevA.03 25-Dec-2016

 ----------------------------------------------------------------------
 # B3LYP/6-311++G(d,p) empiricaldispersion=gd3bj scf=xqc pop=npa geom=c
 heck
 ----------------------------------------------------------------------

 ------------------------------------
 CID_117271811_JID_2935_Energie_anion
 ------------------------------------
 Structure from the checkpoint file:  "JID_2935.chk"
 Charge = -1 Multiplicity = 2

                         Standard orientation:
 ---------------------------------------------------------------------
 Center     Atomic      Atomic             Coordinates (Angstroms)
 Number     Number       Type             X           Y           Z
 ---------------------------------------------------------------------
      1          6           0       -1.009539    2.683205   -0.391532
      2          8           0       -1.380770    1.564651    0.408251
      3          6           0       -0.302385    0.930761    1.079757
      4          6           0        0.644904    0.092224    0.204234
      5          6           0        1.547823   -0.790051    1.101712
      6          6           0        2.803392   -1.033377    0.243697
      7          6           0        2.815239    0.157482   -0.762537
      8          7           0        1.612843    0.977483   -0.498636
      9          6           0       -0.097668   -0.718166   -0.883507
     10          6           0       -0.972455   -1.912857   -0.472899
     11          6           0       -2.263204   -1.583831    0.292597
     12          8           0       -3.054735   -0.601098   -0.347079
     13          1           0       -1.933687    3.080391   -0.817191
     14          1           0       -0.313790    2.398256   -1.186992
     15          1           0       -0.539163    3.457715    0.232904
     16          1           0        0.289210    1.688424    1.622784
     17          1           0       -0.770245    0.288741    1.828993
     18          1           0        1.809059   -0.222154    2.005469
     19          1           0        1.066955   -1.715299    1.431351
     20          1           0        3.712566   -1.073467    0.851049
     21          1           0        2.730451   -1.987231   -0.288719
     22          1           0        3.708374    0.782474   -0.668871
     23          1           0        2.791400   -0.208415   -1.794391
     24          1           0        1.878204    1.714372    0.154584
     25          1           0       -0.708995   -0.019025   -1.461310
     26          1           0        0.659691   -1.091067   -1.581941
     27          1           0       -1.262811   -2.421275   -1.400936
     28          1           0       -0.392131   -2.643154    0.108129
     29          1           0       -2.876539   -2.490527    0.351092
     30          1           0       -2.035156   -1.298175    1.332183
     31          1           0       -2.615904    0.256272   -0.186254
 ---------------------------------------------------------------------

 SCF Done:  E(UB3LYP) =  -559.773088181     A.U. after   28 cycles

 The electronic state is 2-A.
 Alpha  occ. eigenvalues --  -19.03881 -19.00703 -14.18727 -10.11741 -10.11256
 Alpha  occ. eigenvalues --  -10.11053 -10.10125 -10.07985 -10.06671 -10.06112
 Alpha  occ. eigenvalues --  -10.05897 -10.05755  -0.94719  -0.91136  -0.81481
 Alpha  occ. eigenvalues --   -0.68941  -0.65114  -0.64889  -0.60684  -0.57932
 Alpha  occ. eigenvalues --   -0.53284  -0.50302  -0.47809  -0.43823  -0.41898
 Alpha  occ. eigenvalues --   -0.40491  -0.38798  -0.37479  -0.36646  -0.35375
 Alpha  occ. eigenvalues --   -0.34721  -0.33354  -0.31681  -0.31492  -0.29460
 Alpha  occ. eigenvalues --   -0.28294  -0.27833  -0.26402  -0.25224  -0.24275
 Alpha  occ. eigenvalues --   -0.24152  -0.23142  -0.22542  -0.21371  -0.20456
 Alpha  occ. eigenvalues --   -0.17134  -0.16725  -0.12821   0.04715
 Alpha virt. eigenvalues --    0.07097   0.07704   0.07926   0.09201   0.09605
 Alpha virt. eigenvalues --    0.09916   0.10096   0.10656   0.11742   0.12357
 Alpha virt. eigenvalues --    0.12599   0.13209   0.13703   0.14125   0.14819

  Beta  occ. eigenvalues --  -19.03874 -19.00700 -14.18703 -10.11713 -10.11247
  Beta  occ. eigenvalues --  -10.11025 -10.10127 -10.07957 -10.06658 -10.06097
  Beta  occ. eigenvalues --  -10.05868 -10.05729  -0.94704  -0.91130  -0.81441
  Beta  occ. eigenvalues --   -0.68910  -0.65064  -0.64843  -0.60640  -0.57892
  Beta  occ. eigenvalues --   -0.53209  -0.50257  -0.47731  -0.43774  -0.41871
  Beta  occ. eigenvalues --   -0.40433  -0.38753  -0.37450  -0.36610  -0.35339
  Beta  occ. eigenvalues --   -0.34687  -0.33317  -0.31644  -0.31452  -0.29419
  Beta  occ. eigenvalues --   -0.28258  -0.27806  -0.26366  -0.25189  -0.24241
  Beta  occ. eigenvalues --   -0.24108  -0.23106  -0.22502  -0.21334  -0.20430
  Beta  occ. eigenvalues --   -0.17097  -0.16706  -0.12787
  Beta virt. eigenvalues --    0.07017   0.07837   0.08257   0.08560   0.09751
  Beta virt. eigenvalues --    0.10179   0.10277   0.10538   0.11002   0.12167
  Beta virt. eigenvalues --    0.12673   0.13006   0.13544   0.13942   0.14331

 Mulliken charges and spin densities:
               1          2
     1  C    0.420390  -0.722758
     2  O   -0.189697   0.055121
     3  C    0.778763  -1.511077
     4  C   -1.643288   1.822659
     5  C    0.237896  -0.646330
     6  C    0.162983  -0.557832
     7  C    0.529010  -0.885184
     8  N    0.098848  -0.010787
     9  C    0.636881  -0.824305
    10  C    0.114330  -0.412341
    11  C   -0.382596  -0.059759
    12  O   -0.298612   0.015201
    13  H   -0.008245   0.154125
    14  H    0.008305   0.199458
    15  H   -0.360380   0.504732
    16  H   -0.415957   0.603660
    17  H    0.099498   0.075666
    18  H   -0.576066   0.761240
    19  H   -0.077124   0.223889
    20  H   -0.325050   0.485061
    21  H   -0.107063   0.232597
    22  H   -0.738363   0.889077
    23  H    0.069960   0.105806
    24  H    0.095162   0.165404
    25  H    0.259721  -0.067812
    26  H    0.038421   0.105784
    27  H    0.099377   0.046988
    28  H    0.076352   0.049816
    29  H    0.059638   0.100711
    30  H    0.045343   0.084557
    31  H    0.291565   0.016631
 Sum of Mulliken charges =  -1.00000   1.00000

 Dipole moment (field-independent basis, Debye):
    X=             -5.1561    Y=             -3.2818    Z=             -2.6672  Tot=              6.6685
 Quadrupole moment (field-independent basis, Debye-Ang):
   XX=           -144.9421   YY=           -117.7065   ZZ=           -110.1353
   XY=             -7.0001   XZ=             -8.7916   YZ=             -4.0524

 Summary of Natural Population Analysis:

                                       Natural Population
                Natural  -----------------------------------------------
    Atom  No    Charge         Core      Valence    Rydberg      Total
 -----------------------------------------------------------------------
      C    1   -0.10218      0.99960     2.09347    0.00912     3.10218
      O    2   -0.31259      0.99988     3.30193    0.01078     4.31259
      C    3   -0.01009      0.99948     1.99482    0.01579     3.01009
      C    4    0.04595      0.99955     1.93775    0.01675     2.95405
      C    5   -0.19902      0.99958     2.18941    0.01002     3.19902
      C    6   -0.20158      0.99964     2.19393    0.00801     3.20158
      C    7   -0.09087      0.99964     2.08004    0.01119     3.09087
      N    8   -0.34808      0.99973     2.83517    0.01318     3.84808
      C    9   -0.19875      0.99956     2.18832    0.01087     3.19875
      C   10   -0.20307      0.99962     2.19425    0.00920     3.20307
      C   11   -0.00911      0.99960     1.99781    0.01170     3.00911
      O   12   -0.38451      0.99989     3.37729    0.00732     4.38451
      H   13    0.08620      0.00000     0.41288    0.00092     0.41380
      H   14    0.09507      0.00000     0.40324    0.00169     0.40493
      H   15    0.08377      0.00000     0.41480    0.00144     0.41623
      H   16    0.08960      0.00000     0.40794    0.00246     0.41040
      H   17    0.09375      0.00000     0.40442    0.00184     0.40625
      H   18    0.10305      0.00000     0.39418    0.00277     0.39695
      H   19    0.10111      0.00000     0.39758    0.00131     0.39889
      H   20    0.10478      0.00000     0.39329    0.00194     0.39522
      H   21    0.09413      0.00000     0.40457    0.00130     0.40587
      H   22    0.09933      0.00000     0.39855    0.00212     0.40067
      H   23    0.08659      0.00000     0.41207    0.00134     0.41341
      H   24    0.17842      0.00000     0.31525    0.00633     0.32158
      H   25    0.10509      0.00000     0.39331    0.00159     0.39491
      H   26    0.10356      0.00000     0.39515    0.00129     0.39644
      H   27    0.09646      0.00000     0.40251    0.00103     0.40354
      H   28    0.09715      0.00000     0.40161    0.00124     0.40285
      H   29    0.08119      0.00000     0.41765    0.00116     0.41881
      H   30    0.07227      0.00000     0.42640    0.00133     0.42773
      H   31    0.24239      0.00000     0.25437    0.00323     0.25761
 =======================================================================
   * Total *   -0.00000     11.99578    35.83396    0.17026    48.00000

 Normal termination of Gaussian 16 at Wed Dec  9 18:51:03 2020.
