 Gaussian 16, Revision A.03,

 -----------------------------------------------------------
 # opt freq B3LYP/6-31G(d) empiricaldispersion=gd3bj scf=xqc
 -----------------------------------------------------------

 ------------------------------
 CID_66163184_JID_9942_neutraal
 ------------------------------
 Symbolic Z-matrix:
 Charge =  0 Multiplicity = 1

 SCF Done:  E(RB3LYP) =  -878.145162706     A.U. after   15 cycles
 SCF Done:  E(RB3LYP) =  -878.153406049     A.U. after   12 cycles
 SCF Done:  E(RB3LYP) =  -878.153265991     A.U. after   12 cycles
 SCF Done:  E(RB3LYP) =  -878.154517177     A.U. after   12 cycles
 SCF Done:  E(RB3LYP) =  -878.154732151     A.U. after   12 cycles
 SCF Done:  E(RB3LYP) =  -878.154784950     A.U. after   12 cycles
 SCF Done:  E(RB3LYP) =  -878.154830341     A.U. after   10 cycles
 SCF Done:  E(RB3LYP) =  -878.154839078     A.U. after    9 cycles
 SCF Done:  E(RB3LYP) =  -878.154841865     A.U. after    9 cycles
 SCF Done:  E(RB3LYP) =  -878.154842734     A.U. after    8 cycles
 SCF Done:  E(RB3LYP) =  -878.154843021     A.U. after    7 cycles
 SCF Done:  E(RB3LYP) =  -878.154843096     A.U. after    6 cycles
 Optimization completed.
    -- Stationary point found.
 Normal termination of Gaussian 16 at Thu Dec 17 20:14:49 2020.

 --------------------------------------------------------------------
 #N Geom=AllCheck Guess=TCheck SCRF=Check GenChk RB3LYP/6-31G(d) Freq
 --------------------------------------------------------------------

 Structure from the checkpoint file:  "JID_9942.chk"
 ------------------------------
 CID_66163184_JID_9942_neutraal
 ------------------------------
 Charge =  0 Multiplicity = 1

 SCF Done:  E(RB3LYP) =  -878.154843096     A.U. after    1 cycles

  Exact polarizability: 171.858  12.845 155.629  -3.165   7.956 151.509
 Approx polarizability: 237.208  26.495 227.169   2.279  24.994 238.274

                      1                      2                      3
                      A                      A                      A
 Frequencies --     32.2599                37.9884                45.9473
 Red. masses --      3.9259                 4.7671                 3.8002
 Frc consts  --      0.0024                 0.0041                 0.0047
 IR Inten    --      0.8601                 0.4301                 1.9474

                      4                      5                      6
                      A                      A                      A
 Frequencies --     61.1576                77.0429                93.1263
 Red. masses --      4.6676                 2.9813                 3.8321
 Frc consts  --      0.0103                 0.0104                 0.0196
 IR Inten    --      0.2936                 0.3706                 3.1080

                      7                      8                      9
                      A                      A                      A
 Frequencies --    105.9622               110.5201               121.9916
 Red. masses --      4.3047                 2.8341                 3.7854
 Frc consts  --      0.0285                 0.0204                 0.0332
 IR Inten    --      0.3312                 1.1026                 0.3510

                     10                     11                     12
                      A                      A                      A
 Frequencies --    136.9878               178.1731               226.0536
 Red. masses --      3.5503                 2.7497                 1.3161
 Frc consts  --      0.0393                 0.0514                 0.0396
 IR Inten    --      8.1827                 5.7832                 0.4742

                     13                     14                     15
                      A                      A                      A
 Frequencies --    229.1713               247.6164               259.1718
 Red. masses --      1.6775                 1.8224                 1.3214
 Frc consts  --      0.0519                 0.0658                 0.0523
 IR Inten    --      2.0200                 7.2860                11.4472

                     16                     17                     18
                      A                      A                      A
 Frequencies --    266.2970               271.2248               280.1797
 Red. masses --      1.6662                 1.2884                 2.3299
 Frc consts  --      0.0696                 0.0558                 0.1078
 IR Inten    --     13.7486                 3.9541                 2.4658

                     19                     20                     21
                      A                      A                      A
 Frequencies --    319.9907               334.7984               346.7025
 Red. masses --      3.3360                 3.9793                 3.5001
 Frc consts  --      0.2013                 0.2628                 0.2479
 IR Inten    --      2.9087                16.6675                 2.8227

                     22                     23                     24
                      A                      A                      A
 Frequencies --    370.6745               397.2484               432.1795
 Red. masses --      2.2088                 3.2597                 2.5638
 Frc consts  --      0.1788                 0.3031                 0.2821
 IR Inten    --      2.6656                 7.9711                 3.3270

                     25                     26                     27
                      A                      A                      A
 Frequencies --    444.6397               491.3131               512.6741
 Red. masses --      4.2579                 2.9941                 2.4305
 Frc consts  --      0.4960                 0.4258                 0.3764
 IR Inten    --      5.7477                 8.2047                 2.3830

                     28                     29                     30
                      A                      A                      A
 Frequencies --    534.7181               550.5736               608.7297
 Red. masses --      3.4336                 2.8506                 3.8394
 Frc consts  --      0.5784                 0.5091                 0.8382
 IR Inten    --      3.8606                 7.9008                 7.3252

                     31                     32                     33
                      A                      A                      A
 Frequencies --    646.5527               667.6225               680.1558
 Red. masses --      3.4185                 3.7792                 3.5075
 Frc consts  --      0.8420                 0.9924                 0.9560
 IR Inten    --      4.5082                 4.2948                10.2589

                     34                     35                     36
                      A                      A                      A
 Frequencies --    685.9529               790.8130               803.6799
 Red. masses --      3.8492                 3.2376                 1.5901
 Frc consts  --      1.0671                 1.1930                 0.6051
 IR Inten    --      7.5247                 4.0597                 5.0443

                     37                     38                     39
                      A                      A                      A
 Frequencies --    808.1665               840.3716               868.4852
 Red. masses --      2.4219                 1.4756                 1.7778
 Frc consts  --      0.9320                 0.6140                 0.7901
 IR Inten    --     23.0410                 2.3407               115.2622

                     40                     41                     42
                      A                      A                      A
 Frequencies --    871.2748               897.5579               905.2913
 Red. masses --      2.6270                 2.5262                 2.5911
 Frc consts  --      1.1749                 1.1991                 1.2511
 IR Inten    --     54.5185                 2.8941                 6.0846

                     43                     44                     45
                      A                      A                      A
 Frequencies --    942.3301               948.7991               960.1106
 Red. masses --      4.0056                 1.2515                 2.7851
 Frc consts  --      2.0957                 0.6638                 1.5126
 IR Inten    --     21.3344                 0.3602                12.7793

                     46                     47                     48
                      A                      A                      A
 Frequencies --    964.6034               991.0586              1009.6351
 Red. masses --      1.4187                 2.8856                 2.2015
 Frc consts  --      0.7777                 1.6699                 1.3222
 IR Inten    --      0.3836                25.5374                 6.6086

                     49                     50                     51
                      A                      A                      A
 Frequencies --   1044.5305              1072.8264              1115.1656
 Red. masses --      2.3567                 3.1214                 1.5862
 Frc consts  --      1.5149                 2.1167                 1.1622
 IR Inten    --     22.2403                 4.1822                 1.8513

                     52                     53                     54
                      A                      A                      A
 Frequencies --   1117.3253              1145.6346              1153.3863
 Red. masses --      2.0633                 2.4830                 2.2381
 Frc consts  --      1.5177                 1.9201                 1.7542
 IR Inten    --     20.5116                 5.2702                10.5332

                     55                     56                     57
                      A                      A                      A
 Frequencies --   1163.9990              1165.7807              1170.7223
 Red. masses --      2.1308                 1.7772                 2.3494
 Frc consts  --      1.7010                 1.4231                 1.8972
 IR Inten    --      4.1853                19.9125                49.5013

                     58                     59                     60
                      A                      A                      A
 Frequencies --   1177.7047              1197.9038              1200.5529
 Red. masses --      1.9888                 1.5041                 1.4953
 Frc consts  --      1.6252                 1.2717                 1.2698
 IR Inten    --      4.7170                20.7522                40.7640

                     61                     62                     63
                      A                      A                      A
 Frequencies --   1208.6605              1232.4786              1252.8135
 Red. masses --      2.0376                 2.3779                 1.8439
 Frc consts  --      1.7538                 2.1282                 1.7052
 IR Inten    --     40.0782                15.7958                26.9303

                     64                     65                     66
                      A                      A                      A
 Frequencies --   1259.4789              1282.3459              1298.0439
 Red. masses --      1.6192                 1.4423                 2.3707
 Frc consts  --      1.5134                 1.3974                 2.3535
 IR Inten    --     30.7555                 1.4470                31.5584

                     67                     68                     69
                      A                      A                      A
 Frequencies --   1318.8637              1331.4021              1335.3064
 Red. masses --      2.0844                 2.6449                 1.4354
 Frc consts  --      2.1361                 2.7624                 1.5079
 IR Inten    --     90.3897                 1.9142                19.8832

                     70                     71                     72
                      A                      A                      A
 Frequencies --   1348.3793              1351.1657              1377.6904
 Red. masses --      1.4611                 1.2075                 1.3487
 Frc consts  --      1.5651                 1.2989                 1.5083
 IR Inten    --     25.4549                 4.3011                 5.4160

                     73                     74                     75
                      A                      A                      A
 Frequencies --   1387.0807              1408.6266              1417.0294
 Red. masses --      1.6825                 1.3407                 4.0907
 Frc consts  --      1.9072                 1.5674                 4.8395
 IR Inten    --     14.4176                11.1371                 0.2291

                     76                     77                     78
                      A                      A                      A
 Frequencies --   1430.0228              1432.7845              1442.6584
 Red. masses --      1.4087                 1.2536                 1.4775
 Frc consts  --      1.6973                 1.5162                 1.8118
 IR Inten    --     29.5442                 8.9696                36.7025

                     79                     80                     81
                      A                      A                      A
 Frequencies --   1448.6839              1452.4606              1460.3158
 Red. masses --      1.3654                 2.0193                 1.4839
 Frc consts  --      1.6884                 2.5099                 1.8644
 IR Inten    --     19.1138                95.2759                21.6383

                     82                     83                     84
                      A                      A                      A
 Frequencies --   1493.3298              1496.7862              1500.2844
 Red. masses --      1.0890                 1.1103                 1.1104
 Frc consts  --      1.4308                 1.4656                 1.4725
 IR Inten    --     13.5970                 1.1857                 0.6080

                     85                     86                     87
                      A                      A                      A
 Frequencies --   1513.2735              1515.7566              1518.2464
 Red. masses --      1.0443                 1.0849                 1.0515
 Frc consts  --      1.4090                 1.4686                 1.4280
 IR Inten    --      0.5513                 9.2509                 2.0888

                     88                     89                     90
                      A                      A                      A
 Frequencies --   1524.8687              1527.1529              1533.8067
 Red. masses --      1.6401                 1.1093                 1.5147
 Frc consts  --      2.2469                 1.5243                 2.0995
 IR Inten    --     21.6597                 3.9351                23.5895

                     91                     92                     93
                      A                      A                      A
 Frequencies --   1537.2316              1555.1478              1606.9921
 Red. masses --      1.0770                 1.0487                 5.7956
 Frc consts  --      1.4996                 1.4944                 8.8181
 IR Inten    --      5.8293                10.5036                19.3956

                     94                     95                     96
                      A                      A                      A
 Frequencies --   1699.0278              1803.9380              2987.1215
 Red. masses --      1.0938                11.3839                 1.0526
 Frc consts  --      1.8603                21.8264                 5.5339
 IR Inten    --     32.3965               366.2542                38.3746

                     97                     98                     99
                      A                      A                      A
 Frequencies --   2990.5091              3002.3341              3040.6361
 Red. masses --      1.0760                 1.0734                 1.0700
 Frc consts  --      5.6696                 5.7005                 5.8284
 IR Inten    --     17.1145                69.9189                13.9370

                    100                    101                    102
                      A                      A                      A
 Frequencies --   3056.8843              3062.1500              3064.1113
 Red. masses --      1.0351                 1.0580                 1.0442
 Frc consts  --      5.6988                 5.8449                 5.7764
 IR Inten    --     14.1303                 8.6067                28.2673

                    103                    104                    105
                      A                      A                      A
 Frequencies --   3084.1019              3096.7679              3102.3842
 Red. masses --      1.0862                 1.0841                 1.0923
 Frc consts  --      6.0871                 6.1256                 6.1940
 IR Inten    --     32.8127                24.1022                39.3013

                    106                    107                    108
                      A                      A                      A
 Frequencies --   3118.1609              3126.7710              3128.9375
 Red. masses --      1.0929                 1.1027                 1.1006
 Frc consts  --      6.2608                 6.3521                 6.3487
 IR Inten    --      6.7725                 0.3745                48.7532

                    109                    110                    111
                      A                      A                      A
 Frequencies --   3129.3921              3134.4538              3141.1586
 Red. masses --      1.0965                 1.1030                 1.1011
 Frc consts  --      6.3268                 6.3847                 6.4013
 IR Inten    --      6.9423                21.6837                31.6523

                    112                    113                    114
                      A                      A                      A
 Frequencies --   3143.9559              3146.4315              3250.7004
 Red. masses --      1.0974                 1.0960                 1.0962
 Frc consts  --      6.3910                 6.3926                 6.8247
 IR Inten    --      6.5147                25.6667                 8.3305

                    115                    116                    117
                      A                      A                      A
 Frequencies --   3267.3585              3465.9380              3556.3804
 Red. masses --      1.0964                 1.0504                 1.0917
 Frc consts  --      6.8961                 7.4346                 8.1354
 IR Inten    --      1.8425                 0.5135                 0.0877

 - Thermochemistry -
 -------------------
 Temperature   298.150 Kelvin.  Pressure   1.00000 Atm.
 Atom     1 has atomic number  6 and mass  12.00000

 Molecular mass:   266.17428 amu.
 Principal axes and moments of inertia in atomic units:
                           1         2         3
     Eigenvalues --  3639.519876144.971316729.83248
           X            0.99887  -0.02312  -0.04154
           Y            0.01982   0.99674  -0.07827
           Z            0.04321   0.07736   0.99607
 This molecule is an asymmetric top.
 Rotational symmetry number  1.
 Warning -- assumption of classical behavior for rotation
           may cause significant error
 Rotational temperatures (Kelvin)      0.02380     0.01410     0.01287
 Rotational constants (GHZ):           0.49587     0.29369     0.26817
 Zero-point vibrational energy     936268.6 (Joules/Mol)
                                  223.77356 (Kcal/Mol)
 Warning -- explicit consideration of  30 degrees of freedom as
           vibrations may cause significant error
 Vibrational temperatures:     46.41    54.66    66.11    87.99   110.85
          (Kelvin)            133.99   152.46   159.01   175.52   197.09
                              256.35   325.24   329.73   356.26   372.89
                              383.14   390.23   403.12   460.40   481.70
                              498.83   533.32   571.55   621.81   639.74
                              706.89   737.62   769.34   792.15   875.83
                              930.25   960.56   978.59   986.93  1137.80
                             1156.32  1162.77  1209.11  1249.56  1253.57
                             1291.39  1302.51  1355.80  1365.11  1381.39
                             1387.85  1425.91  1452.64  1502.85  1543.56
                             1604.47  1607.58  1648.31  1659.47  1674.73
                             1677.30  1684.41  1694.45  1723.52  1727.33
                             1738.99  1773.26  1802.52  1812.11  1845.01
                             1867.60  1897.55  1915.59  1921.21  1940.02
                             1944.03  1982.19  1995.70  2026.70  2038.79
                             2057.48  2061.46  2075.66  2084.33  2089.77
                             2101.07  2148.57  2153.54  2158.57  2177.26
                             2180.84  2184.42  2193.95  2197.23  2206.81
                             2211.73  2237.51  2312.10  2444.52  2595.46
                             4297.80  4302.68  4319.69  4374.80  4398.17
                             4405.75  4408.57  4437.33  4455.56  4463.64
                             4486.34  4498.73  4501.84  4502.50  4509.78
                             4519.43  4523.45  4527.01  4677.03  4701.00
                             4986.71  5116.84

 Zero-point correction=                           0.356606 (Hartree/Particle)
 Thermal correction to Energy=                    0.376233
 Thermal correction to Enthalpy=                  0.377177
 Thermal correction to Gibbs Free Energy=         0.307907
 Sum of electronic and zero-point Energies=           -877.798237
 Sum of electronic and thermal Energies=              -877.778610
 Sum of electronic and thermal Enthalpies=            -877.777666
 Sum of electronic and thermal Free Energies=         -877.846936

                     E (Thermal)             CV                S
                      KCal/Mol        Cal/Mol-Kelvin    Cal/Mol-Kelvin
 Total                  236.090             73.253            145.792
 Electronic               0.000              0.000              0.000
 Translational            0.889              2.981             42.636
 Rotational               0.889              2.981             33.376
 Vibrational            234.313             67.291             69.780
 Vibration     1          0.594              1.983              5.685
 Vibration     2          0.594              1.982              5.361
 Vibration     3          0.595              1.979              4.985
 Vibration     4          0.597              1.973              4.419
 Vibration     5          0.599              1.964              3.965
 Vibration     6          0.602              1.954              3.593
 Vibration     7          0.605              1.944              3.342
 Vibration     8          0.606              1.941              3.260
 Vibration     9          0.609              1.931              3.069
 Vibration    10          0.614              1.916              2.846
 Vibration    11          0.629              1.869              2.347
 Vibration    12          0.650              1.801              1.910
 Vibration    13          0.652              1.796              1.885
 Vibration    14          0.661              1.767              1.747
 Vibration    15          0.668              1.747              1.667
 Vibration    16          0.672              1.735              1.620
 Vibration    17          0.675              1.726              1.588
 Vibration    18          0.680              1.710              1.533
 Vibration    19          0.706              1.635              1.310
 Vibration    20          0.716              1.606              1.237
 Vibration    21          0.725              1.582              1.181
 Vibration    22          0.743              1.532              1.077
 Vibration    23          0.764              1.476              0.973
 Vibration    24          0.793              1.400              0.852
 Vibration    25          0.804              1.373              0.812
 Vibration    26          0.847              1.269              0.680
 Vibration    27          0.868              1.222              0.627
 Vibration    28          0.890              1.173              0.577
 Vibration    29          0.906              1.138              0.543
 Vibration    30          0.968              1.013              0.435

                           ! Non-Optimized Parameters !
 Normal termination of Gaussian 16 at Thu Dec 17 20:39:27 2020.

 ----------------------------------------------------------------------
 # B3LYP/6-311++G(d,p) empiricaldispersion=gd3bj scf=xqc pop=npa geom=c
 heck
 ----------------------------------------------------------------------

 --------------------------------------
 CID_66163184_JID_9942_Energie_neutraal
 --------------------------------------
 Structure from the checkpoint file:  "JID_9942.chk"
 Charge =  0 Multiplicity = 1

 SCF Done:  E(RB3LYP) =  -878.407312665     A.U. after   15 cycles
 Normal termination of Gaussian 16 at Thu Dec 17 20:50:38 2020.

 ----------------------------------------------------------------------
 # B3LYP/6-311++G(d,p) empiricaldispersion=gd3bj scf=xqc pop=npa geom=c
 heck
 ----------------------------------------------------------------------

 ------------------------------------
 CID_66163184_JID_9942_Energie_kation
 ------------------------------------
 Structure from the checkpoint file:  "JID_9942.chk"
 Charge =  1 Multiplicity = 2

 SCF Done:  E(UB3LYP) =  -878.108193828     A.U. after   33 cycles
 SCF Done:  E(UB3LYP) =  -878.108193828     a.u. after    2 cycles
 Normal termination of Gaussian 16 at Thu Dec 17 21:53:25 2020.
 Gaussian 16:  ES64L-G16RevA.03 25-Dec-2016

 ----------------------------------------------------------------------
 # B3LYP/6-311++G(d,p) empiricaldispersion=gd3bj scf=xqc pop=npa geom=c
 heck
 ----------------------------------------------------------------------

 -----------------------------------
 CID_66163184_JID_9942_Energie_anion
 -----------------------------------
 Structure from the checkpoint file:  "JID_9942.chk"
 Charge = -1 Multiplicity = 2

                         Standard orientation:
 ---------------------------------------------------------------------
 Center     Atomic      Atomic             Coordinates (Angstroms)
 Number     Number       Type             X           Y           Z
 ---------------------------------------------------------------------
      1          6           0       -3.282088    1.352105    1.011782
      2          6           0       -2.191985    0.293023    1.204923
      3          6           0       -2.464241   -0.601470    2.417786
      4          7           0       -2.034543   -0.512123   -0.017856
      5          6           0       -2.941292   -1.423535   -0.492133
      6          7           0       -2.557736   -1.979959   -1.623199
      7          6           0       -1.342024   -1.403598   -1.902973
      8          6           0       -0.989345   -0.487208   -0.938660
      9          6           0        0.237147    0.356188   -0.854562
     10          6           0        0.033209    1.895651   -0.939306
     11          6           0        1.226032    2.453132   -0.140023
     12          6           0        1.590568    1.343338    0.840257
     13          8           0        2.313236    1.436281    1.820835
     14          7           0        0.994179    0.190493    0.394316
     15          6           0        1.238492   -1.111419    0.995831
     16          6           0        2.060656   -2.082532    0.134034
     17          8           0        3.460197   -1.919866    0.197398
     18          6           0        3.958189   -0.725874   -0.377546
     19          7           0       -0.145827    2.308649   -2.322668
     20          1           0       -4.260904    0.880497    0.873302
     21          1           0       -3.079462    1.968420    0.130426
     22          1           0       -3.338514    2.004038    1.889918
     23          1           0       -1.231715    0.786563    1.361442
     24          1           0       -3.430041   -1.110413    2.332398
     25          1           0       -1.684366   -1.360383    2.527759
     26          1           0       -2.485153    0.006056    3.328140
     27          1           0       -3.860666   -1.643511    0.032521
     28          1           0       -0.778682   -1.669207   -2.788178
     29          1           0        0.860966    0.057866   -1.711716
     30          1           0       -0.891132    2.149144   -0.411939
     31          1           0        1.029124    3.392793    0.382300
     32          1           0        2.091668    2.615003   -0.798267
     33          1           0        1.754006   -0.929144    1.941695
     34          1           0        0.271905   -1.583646    1.206726
     35          1           0        1.873355   -3.096886    0.500820
     36          1           0        1.710077   -2.042082   -0.910724
     37          1           0        3.484695   -0.519869   -1.352113
     38          1           0        3.819239    0.138157    0.283298
     39          1           0        5.029614   -0.876767   -0.537134
     40          1           0       -0.396048    3.294280   -2.365059
     41          1           0        0.732141    2.211542   -2.832093
 ---------------------------------------------------------------------

 SCF Done:  E(UB3LYP) =  -878.402475064     A.U. after   29 cycles

 The electronic state is 2-A.
 Alpha  occ. eigenvalues --  -19.04585 -19.00529 -14.28481 -14.26105 -14.20871
 Alpha  occ. eigenvalues --  -14.20483 -10.18503 -10.14386 -10.14301 -10.14174
 Alpha  occ. eigenvalues --  -10.13615 -10.12649 -10.12562 -10.12482 -10.11863
 Alpha  occ. eigenvalues --  -10.09675 -10.08967 -10.08746 -10.08275  -0.96064
 Alpha  occ. eigenvalues --   -0.95468  -0.93403  -0.87160  -0.80717  -0.80296
 Alpha  occ. eigenvalues --   -0.71527  -0.70739  -0.68028  -0.65772  -0.61742
 Alpha  occ. eigenvalues --   -0.61599  -0.60329  -0.55863  -0.53929  -0.52436
 Alpha  occ. eigenvalues --   -0.51364  -0.48193  -0.46123  -0.44029  -0.43536
 Alpha  occ. eigenvalues --   -0.41042  -0.40350  -0.39617  -0.38963  -0.38011
 Alpha  occ. eigenvalues --   -0.37642  -0.37140  -0.36484  -0.36042  -0.34251
 Alpha  occ. eigenvalues --   -0.33283  -0.33055  -0.32824  -0.32305  -0.32012
 Alpha  occ. eigenvalues --   -0.31054  -0.30574  -0.30421  -0.29589  -0.28952
 Alpha  occ. eigenvalues --   -0.28612  -0.27683  -0.27357  -0.25329  -0.24029
 Alpha  occ. eigenvalues --   -0.19226  -0.19086  -0.18942  -0.18378  -0.16175
 Alpha  occ. eigenvalues --   -0.15106  -0.14373   0.03583
 Alpha virt. eigenvalues --    0.05358   0.06247   0.07464   0.07622   0.07981
 Alpha virt. eigenvalues --    0.08272   0.08927   0.09081   0.09587   0.10169
 Alpha virt. eigenvalues --    0.10442   0.10689   0.11123   0.11243   0.12009

  Beta  occ. eigenvalues --  -19.04582 -19.00525 -14.28479 -14.26102 -14.20871
  Beta  occ. eigenvalues --  -14.20423 -10.18501 -10.14381 -10.14290 -10.14171
  Beta  occ. eigenvalues --  -10.13607 -10.12632 -10.12558 -10.12468 -10.11861
  Beta  occ. eigenvalues --  -10.09672 -10.08936 -10.08715 -10.08234  -0.96057
  Beta  occ. eigenvalues --   -0.95461  -0.93398  -0.87150  -0.80709  -0.80209
  Beta  occ. eigenvalues --   -0.71498  -0.70708  -0.68007  -0.65736  -0.61682
  Beta  occ. eigenvalues --   -0.61568  -0.60295  -0.55820  -0.53895  -0.52362
  Beta  occ. eigenvalues --   -0.51346  -0.48175  -0.46094  -0.43993  -0.43514
  Beta  occ. eigenvalues --   -0.41024  -0.40312  -0.39592  -0.38939  -0.37967
  Beta  occ. eigenvalues --   -0.37616  -0.37101  -0.36459  -0.36009  -0.34221
  Beta  occ. eigenvalues --   -0.33250  -0.33020  -0.32804  -0.32278  -0.31990
  Beta  occ. eigenvalues --   -0.31021  -0.30536  -0.30393  -0.29567  -0.28929
  Beta  occ. eigenvalues --   -0.28578  -0.27652  -0.27320  -0.25283  -0.24014
  Beta  occ. eigenvalues --   -0.19216  -0.19073  -0.18937  -0.18361  -0.16166
  Beta  occ. eigenvalues --   -0.15056  -0.14366
  Beta virt. eigenvalues --    0.05796   0.06361   0.06904   0.07831   0.07989
  Beta virt. eigenvalues --    0.08435   0.08612   0.08961   0.09360   0.09914
  Beta virt. eigenvalues --    0.10393   0.10505   0.10966   0.11287   0.11425

 Mulliken charges and spin densities:
               1          2
     1  C    0.903968  -1.429750
     2  C   -1.599359   1.373817
     3  C    0.424974  -0.894105
     4  N    0.233121  -0.044321
     5  C    0.296515  -0.244974
     6  N   -0.057619  -0.006397
     7  C   -0.358010  -0.285225
     8  C    0.963667  -0.112699
     9  C   -0.877003   0.049043
    10  C   -0.264851  -0.334122
    11  C    0.864401  -1.249620
    12  C   -0.472421   0.300160
    13  O   -0.287754   0.012189
    14  N    0.212825   0.026176
    15  C   -0.182757   0.117590
    16  C   -0.419631  -0.010162
    17  O   -0.127340   0.012525
    18  C    0.062932  -0.385156
    19  N   -0.395818   0.160899
    20  H   -0.086955   0.238337
    21  H   -0.253161   0.421118
    22  H   -0.416534   0.589808
    23  H    0.557369  -0.325709
    24  H   -0.097109   0.247719
    25  H   -0.062038   0.206919
    26  H   -0.218371   0.386216
    27  H    0.073739   0.079788
    28  H    0.023356   0.111454
    29  H    0.572643  -0.248433
    30  H    0.175155   0.018873
    31  H   -0.354049   0.571954
    32  H    0.101252   0.106526
    33  H    0.215781   0.055908
    34  H    0.101703  -0.081663
    35  H    0.112269   0.089731
    36  H    0.220702  -0.037393
    37  H   -0.293272   0.395099
    38  H    0.159147   0.020922
    39  H    0.092648   0.077607
    40  H   -0.252097   0.507719
    41  H   -0.292016   0.511630
 Sum of Mulliken charges =  -1.00000   1.00000

 Dipole moment (field-independent basis, Debye):
    X=              1.6909    Y=             -5.5870    Z=              1.3163  Tot=              5.9839
 Quadrupole moment (field-independent basis, Debye-Ang):
   XX=           -181.9193   YY=           -176.8385   ZZ=           -172.9206
   XY=              0.1645   XZ=             -2.3277   YZ=              0.5011

 Summary of Natural Population Analysis:

                                       Natural Population
                Natural  -----------------------------------------------
    Atom  No    Charge         Core      Valence    Rydberg      Total
 -----------------------------------------------------------------------
      C    1   -0.28606      0.99964     2.28062    0.00580     3.28606
      C    2   -0.01133      0.99959     2.00051    0.01122     3.01133
      C    3   -0.28537      0.99964     2.28009    0.00565     3.28537
      N    4   -0.20831      0.99961     2.69721    0.01149     3.70831
      C    5    0.10602      0.99963     1.87885    0.01550     2.89398
      N    6   -0.25540      0.99973     2.74465    0.01101     3.75540
      C    7   -0.02282      0.99950     2.01053    0.01278     3.02282
      C    8    0.05298      0.99948     1.93388    0.01365     2.94702
      C    9   -0.01696      0.99953     2.00283    0.01460     3.01696
      C   10   -0.01233      0.99957     1.99910    0.01366     3.01233
      C   11   -0.23628      0.99957     2.22738    0.00933     3.23628
      C   12    0.35176      0.99963     1.62476    0.02386     2.64824
      O   13   -0.32176      0.99987     3.31657    0.00532     4.32176
      N   14   -0.26394      0.99962     2.75297    0.01135     3.76394
      C   15   -0.10581      0.99960     2.09703    0.00917     3.10581
      C   16   -0.01116      0.99958     2.00036    0.01123     3.01116
      O   17   -0.29754      0.99989     3.28850    0.00915     4.29754
      C   18   -0.10516      0.99961     2.09554    0.01001     3.10516
      N   19   -0.41454      0.99976     2.90451    0.01027     3.91454
      H   20    0.09943      0.00000     0.39942    0.00115     0.40057
      H   21    0.10630      0.00000     0.39229    0.00140     0.39370
      H   22    0.10624      0.00000     0.39240    0.00136     0.39376
      H   23    0.10391      0.00000     0.39276    0.00334     0.39609
      H   24    0.09889      0.00000     0.40011    0.00100     0.40111
      H   25    0.10177      0.00000     0.39712    0.00111     0.39823
      H   26    0.10722      0.00000     0.39190    0.00088     0.39278
      H   27    0.09354      0.00000     0.40489    0.00157     0.40646
      H   28    0.09789      0.00000     0.40083    0.00129     0.40211
      H   29    0.10246      0.00000     0.39536    0.00218     0.39754
      H   30    0.09589      0.00000     0.40098    0.00313     0.40411
      H   31    0.11513      0.00000     0.38353    0.00133     0.38487
      H   32    0.11185      0.00000     0.38617    0.00197     0.38815
      H   33    0.11753      0.00000     0.38113    0.00134     0.38247
      H   34    0.10000      0.00000     0.39857    0.00144     0.40000
      H   35    0.09164      0.00000     0.40728    0.00109     0.40836
      H   36    0.08088      0.00000     0.41787    0.00125     0.41912
      H   37    0.07784      0.00000     0.42081    0.00134     0.42216
      H   38    0.09012      0.00000     0.40863    0.00124     0.40988
      H   39    0.08754      0.00000     0.41159    0.00088     0.41246
      H   40    0.18285      0.00000     0.31302    0.00413     0.31715
      H   41    0.17510      0.00000     0.32103    0.00387     0.32490
 =======================================================================
   * Total *   -0.00000     18.99307    52.75359    0.25334    72.00000

 Normal termination of Gaussian 16 at Thu Dec 17 22:24:15 2020.
