 Gaussian 16, Revision A.03,

 -----------------------------------------------------------
 # opt freq B3LYP/6-31G(d) empiricaldispersion=gd3bj scf=xqc
 -----------------------------------------------------------

 ------------------------------
 CID_43670108_JID_6846_neutraal
 ------------------------------
 Symbolic Z-matrix:
 Charge =  0 Multiplicity = 1

 SCF Done:  E(RB3LYP) =  -1372.83122740     A.U. after   15 cycles
 SCF Done:  E(RB3LYP) =  -1372.83647048     A.U. after   12 cycles
 SCF Done:  E(RB3LYP) =  -1372.83852481     A.U. after   14 cycles
 SCF Done:  E(RB3LYP) =  -1372.83970879     A.U. after   14 cycles
 SCF Done:  E(RB3LYP) =  -1372.84020008     A.U. after   14 cycles
 SCF Done:  E(RB3LYP) =  -1372.84040285     A.U. after   12 cycles
 SCF Done:  E(RB3LYP) =  -1372.84051738     A.U. after   11 cycles
 SCF Done:  E(RB3LYP) =  -1372.84054135     A.U. after   10 cycles
 SCF Done:  E(RB3LYP) =  -1372.84055792     A.U. after   10 cycles
 SCF Done:  E(RB3LYP) =  -1372.84057920     A.U. after   11 cycles
 SCF Done:  E(RB3LYP) =  -1372.84072716     A.U. after    8 cycles
 SCF Done:  E(RB3LYP) =  -1372.84072811     A.U. after    8 cycles
 SCF Done:  E(RB3LYP) =  -1372.84072848     A.U. after    9 cycles
 SCF Done:  E(RB3LYP) =  -1372.84072749     A.U. after   10 cycles
 SCF Done:  E(RB3LYP) =  -1372.84072738     A.U. after    7 cycles
 Optimization completed.
    -- Stationary point found.
 Normal termination of Gaussian 16 at Fri Dec 11 01:27:28 2020.

 --------------------------------------------------------------------
 #N Geom=AllCheck Guess=TCheck SCRF=Check GenChk RB3LYP/6-31G(d) Freq
 --------------------------------------------------------------------

 Structure from the checkpoint file:  "JID_6846.chk"
 ------------------------------
 CID_43670108_JID_6846_neutraal
 ------------------------------
 Charge =  0 Multiplicity = 1

 SCF Done:  E(RB3LYP) =  -1372.84072738     A.U. after    1 cycles

  Exact polarizability: 195.599 -13.283 155.723  -1.140  -1.634 139.092
 Approx polarizability: 251.040 -26.431 288.156  -0.134   1.708 231.242

                      1                      2                      3
                      A                      A                      A
 Frequencies --     12.2442                13.0854                37.3329
 Red. masses --      5.4142                 5.8759                 4.9137
 Frc consts  --      0.0005                 0.0006                 0.0040
 IR Inten    --      0.1899                 0.0120                 0.2562

                      4                      5                      6
                      A                      A                      A
 Frequencies --     63.5171                65.8500                80.4174
 Red. masses --      1.1022                 3.6295                 4.6299
 Frc consts  --      0.0026                 0.0093                 0.0176
 IR Inten    --      0.3157                 0.2402                 0.5588

                      7                      8                      9
                      A                      A                      A
 Frequencies --    126.7983               146.2314               163.0773
 Red. masses --      4.3979                 3.6034                 5.0924
 Frc consts  --      0.0417                 0.0454                 0.0798
 IR Inten    --      0.7488                 1.1295                 0.8060

                     10                     11                     12
                      A                      A                      A
 Frequencies --    213.1854               245.0859               263.4337
 Red. masses --      3.5158                 2.1466                 1.3408
 Frc consts  --      0.0941                 0.0760                 0.0548
 IR Inten    --      2.7054                 2.0598                 0.9369

                     13                     14                     15
                      A                      A                      A
 Frequencies --    300.9683               320.9352               334.9896
 Red. masses --      3.5011                 2.6741                 3.0574
 Frc consts  --      0.1868                 0.1623                 0.2021
 IR Inten    --      0.4688                 1.1789                 5.2931

                     16                     17                     18
                      A                      A                      A
 Frequencies --    377.2785               423.1557               443.1828
 Red. masses --      2.7167                 3.4133                 3.5137
 Frc consts  --      0.2278                 0.3601                 0.4066
 IR Inten    --      0.0354                 5.4596                 9.4924

                     19                     20                     21
                      A                      A                      A
 Frequencies --    450.6057               510.0176               525.3219
 Red. masses --      2.6560                 4.6771                 4.4970
 Frc consts  --      0.3177                 0.7168                 0.7312
 IR Inten    --      5.0967                 2.4444                 0.4676

                     22                     23                     24
                      A                      A                      A
 Frequencies --    565.7273               580.7027               609.9699
 Red. masses --      3.4846                 5.9226                 2.8949
 Frc consts  --      0.6571                 1.1767                 0.6346
 IR Inten    --      0.1458                 1.0577                 0.8147

                     25                     26                     27
                      A                      A                      A
 Frequencies --    644.4748               652.4727               655.2196
 Red. masses --      4.4157                 5.8522                 4.8024
 Frc consts  --      1.0806                 1.4679                 1.2147
 IR Inten    --      8.9725                 6.5829                 4.9505

                     28                     29                     30
                      A                      A                      A
 Frequencies --    704.3631               721.6869               729.2831
 Red. masses --      1.1940                 2.3391                 2.3374
 Frc consts  --      0.3490                 0.7178                 0.7324
 IR Inten    --     55.7850                62.9556                35.8126

                     31                     32                     33
                      A                      A                      A
 Frequencies --    748.4903               787.5612               825.6674
 Red. masses --      6.2209                 1.3216                 1.3915
 Frc consts  --      2.0534                 0.4830                 0.5589
 IR Inten    --      0.7505                23.1043                 1.7443

                     34                     35                     36
                      A                      A                      A
 Frequencies --    847.9538               858.3188               860.7293
 Red. masses --      2.2089                 2.6130                 3.2213
 Frc consts  --      0.9358                 1.1342                 1.4061
 IR Inten    --     27.6617                 4.7855                13.3331

                     37                     38                     39
                      A                      A                      A
 Frequencies --    899.5480               909.0781               946.9192
 Red. masses --      2.4303                 1.3825                 2.1435
 Frc consts  --      1.1587                 0.6731                 1.1324
 IR Inten    --      0.1242                 2.2000                23.4565

                     40                     41                     42
                      A                      A                      A
 Frequencies --    971.6265              1016.5300              1024.1130
 Red. masses --      2.4014                 1.8308                 2.2143
 Frc consts  --      1.3357                 1.1146                 1.3683
 IR Inten    --      3.5336                 9.2517                11.4531

                     43                     44                     45
                      A                      A                      A
 Frequencies --   1059.2519              1063.7524              1074.0816
 Red. masses --      1.9768                 1.4201                 1.7686
 Frc consts  --      1.3068                 0.9468                 1.2021
 IR Inten    --      2.2849                 0.4369                10.3587

                     46                     47                     48
                      A                      A                      A
 Frequencies --   1090.0737              1112.7441              1130.0603
 Red. masses --      1.8526                 1.3402                 1.5184
 Frc consts  --      1.2970                 0.9777                 1.1424
 IR Inten    --      1.3246                 4.2577                 8.2568

                     49                     50                     51
                      A                      A                      A
 Frequencies --   1160.2707              1164.4725              1192.8539
 Red. masses --      1.9046                 2.4338                 2.6624
 Frc consts  --      1.5107                 1.9444                 2.2320
 IR Inten    --     25.8853                16.1115                93.5552

                     52                     53                     54
                      A                      A                      A
 Frequencies --   1207.0260              1236.0359              1274.2651
 Red. masses --      3.0148                 1.4949                 1.4795
 Frc consts  --      2.5879                 1.3456                 1.4154
 IR Inten    --     47.7181                21.1979                32.9848

                     55                     56                     57
                      A                      A                      A
 Frequencies --   1290.3013              1317.1073              1342.7332
 Red. masses --      1.3648                 1.9633                 1.5271
 Frc consts  --      1.3388                 2.0067                 1.6221
 IR Inten    --      9.0066                10.9932                 4.9994

                     58                     59                     60
                      A                      A                      A
 Frequencies --   1364.8997              1393.8249              1405.2930
 Red. masses --      1.5717                 1.4171                 1.9775
 Frc consts  --      1.7251                 1.6220                 2.3009
 IR Inten    --      9.0772                17.9129                 2.0194

                     61                     62                     63
                      A                      A                      A
 Frequencies --   1416.6348              1427.5864              1433.2872
 Red. masses --      1.2877                 1.2354                 1.2677
 Frc consts  --      1.5226                 1.4834                 1.5343
 IR Inten    --     17.6333                 6.1658                 2.2574

                     64                     65                     66
                      A                      A                      A
 Frequencies --   1504.0495              1505.5398              1506.7931
 Red. masses --      1.5194                 1.1869                 1.3343
 Frc consts  --      2.0252                 1.5850                 1.7849
 IR Inten    --      3.6664                17.9518                 1.0246

                     67                     68                     69
                      A                      A                      A
 Frequencies --   1508.1972              1510.6694              1518.3504
 Red. masses --      1.0440                 1.6775                 1.0671
 Frc consts  --      1.3992                 2.2555                 1.4494
 IR Inten    --      9.0594                14.7211                 8.1102

                     70                     71                     72
                      A                      A                      A
 Frequencies --   1523.0828              1538.2881              1557.4226
 Red. masses --      1.2157                 1.1302                 4.7522
 Frc consts  --      1.6616                 1.5758                 6.7914
 IR Inten    --     44.6016                16.1870                 2.9640

                     73                     74                     75
                      A                      A                      A
 Frequencies --   1592.7665              1605.8920              3026.8878
 Red. masses --      6.9014                 5.3983                 1.0816
 Frc consts  --     10.3156                 8.2024                 5.8388
 IR Inten    --     53.1420                 1.5962                12.2548

                     76                     77                     78
                      A                      A                      A
 Frequencies --   3035.3809              3043.3936              3055.5040
 Red. masses --      1.0669                 1.0661                 1.0371
 Frc consts  --      5.7916                 5.8180                 5.7047
 IR Inten    --     20.4029                49.9463                22.4809

                     79                     80                     81
                      A                      A                      A
 Frequencies --   3057.7203              3086.6784              3106.5601
 Red. masses --      1.0387                 1.0990                 1.0975
 Frc consts  --      5.7216                 6.1691                 6.2404
 IR Inten    --     22.5570                35.8638                36.2250

                     82                     83                     84
                      A                      A                      A
 Frequencies --   3110.0246              3130.4926              3151.0428
 Red. masses --      1.1016                 1.0974                 1.1024
 Frc consts  --      6.2777                 6.3365                 6.4494
 IR Inten    --     11.5588                31.7615                33.5937

                     85                     86                     87
                      A                      A                      A
 Frequencies --   3157.0819              3217.9652              3232.0955
 Red. masses --      1.1008                 1.0883                 1.0952
 Frc consts  --      6.4644                 6.6400                 6.7410
 IR Inten    --      5.4258                 8.7002                 6.2668

                     88                     89                     90
                      A                      A                      A
 Frequencies --   3272.2267              3304.7306              3503.0143
 Red. masses --      1.0971                 1.0939                 1.0732
 Frc consts  --      6.9214                 7.0385                 7.7594
 IR Inten    --      1.2617                 2.1077                 2.0363

 - Thermochemistry -
 -------------------
 Temperature   298.150 Kelvin.  Pressure   1.00000 Atm.
 Atom     1 has atomic number  6 and mass  12.00000

 Molecular mass:   252.07549 amu.
 Principal axes and moments of inertia in atomic units:
                           1         2         3
     Eigenvalues --  1749.28031********************
           X            0.99999  -0.00476   0.00083
           Y            0.00482   0.99626  -0.08633
           Z           -0.00042   0.08633   0.99627
 This molecule is an asymmetric top.
 Rotational symmetry number  1.
 Warning -- assumption of classical behavior for rotation
           may cause significant error
 Rotational temperatures (Kelvin)      0.04951     0.00795     0.00785
 Rotational constants (GHZ):           1.03170     0.16556     0.16348
 Zero-point vibrational energy     689022.4 (Joules/Mol)
                                  164.68032 (Kcal/Mol)
 Warning -- explicit consideration of  24 degrees of freedom as
           vibrations may cause significant error
 Vibrational temperatures:     17.62    18.83    53.71    91.39    94.74
          (Kelvin)            115.70   182.43   210.39   234.63   306.73
                              352.62   379.02   433.03   461.75   481.98
                              542.82   608.83   637.64   648.32   733.80
                              755.82   813.96   835.50   877.61   927.26
                              938.76   942.71  1013.42  1038.35  1049.28
                             1076.91  1133.12  1187.95  1220.02  1234.93
                             1238.40  1294.25  1307.96  1362.41  1397.95
                             1462.56  1473.47  1524.03  1530.50  1545.36
                             1568.37  1600.99  1625.90  1669.37  1675.42
                             1716.25  1736.64  1778.38  1833.38  1856.46
                             1895.02  1931.89  1963.79  2005.40  2021.90
                             2038.22  2053.98  2062.18  2163.99  2166.14
                             2167.94  2169.96  2173.52  2184.57  2191.38
                             2213.25  2240.78  2291.64  2310.52  4355.02
                             4367.24  4378.76  4396.19  4399.38  4441.04
                             4469.65  4474.63  4504.08  4533.65  4542.34
                             4629.93  4650.26  4708.00  4754.77  5040.06

 Zero-point correction=                           0.262435 (Hartree/Particle)
 Thermal correction to Energy=                    0.278870
 Thermal correction to Enthalpy=                  0.279814
 Thermal correction to Gibbs Free Energy=         0.214391
 Sum of electronic and zero-point Energies=          -1372.578293
 Sum of electronic and thermal Energies=             -1372.561857
 Sum of electronic and thermal Enthalpies=           -1372.560913
 Sum of electronic and thermal Free Energies=        -1372.626337

                     E (Thermal)             CV                S
                      KCal/Mol        Cal/Mol-Kelvin    Cal/Mol-Kelvin
 Total                  174.994             61.233            137.695
 Electronic               0.000              0.000              0.000
 Translational            0.889              2.981             42.474
 Rotational               0.889              2.981             33.709
 Vibrational            173.216             55.271             61.512
 Vibration     1          0.593              1.987              7.609
 Vibration     2          0.593              1.987              7.477
 Vibration     3          0.594              1.982              5.396
 Vibration     4          0.597              1.972              4.345
 Vibration     5          0.597              1.971              4.274
 Vibration     6          0.600              1.962              3.881
 Vibration     7          0.611              1.926              2.994
 Vibration     8          0.617              1.907              2.721
 Vibration     9          0.623              1.888              2.514
 Vibration    10          0.644              1.821              2.016
 Vibration    11          0.660              1.771              1.766
 Vibration    12          0.670              1.740              1.639
 Vibration    13          0.693              1.672              1.412
 Vibration    14          0.706              1.633              1.305
 Vibration    15          0.716              1.606              1.236
 Vibration    16          0.748              1.519              1.050
 Vibration    17          0.785              1.420              0.881
 Vibration    18          0.803              1.376              0.817
 Vibration    19          0.809              1.360              0.794
 Vibration    20          0.865              1.228              0.634
 Vibration    21          0.880              1.194              0.598
 Vibration    22          0.922              1.105              0.513
 Vibration    23          0.937              1.073              0.484
 Vibration    24          0.969              1.011              0.433

                           ! Non-Optimized Parameters !
 Normal termination of Gaussian 16 at Fri Dec 11 01:38:35 2020.

 ----------------------------------------------------------------------
 # B3LYP/6-311++G(d,p) empiricaldispersion=gd3bj scf=xqc pop=npa geom=c
 heck
 ----------------------------------------------------------------------

 --------------------------------------
 CID_43670108_JID_6846_Energie_neutraal
 --------------------------------------
 Structure from the checkpoint file:  "JID_6846.chk"
 Charge =  0 Multiplicity = 1

 SCF Done:  E(RB3LYP) =  -1373.05021349     A.U. after   15 cycles
 Normal termination of Gaussian 16 at Fri Dec 11 01:44:28 2020.

 ----------------------------------------------------------------------
 # B3LYP/6-311++G(d,p) empiricaldispersion=gd3bj scf=xqc pop=npa geom=c
 heck
 ----------------------------------------------------------------------

 ------------------------------------
 CID_43670108_JID_6846_Energie_kation
 ------------------------------------
 Structure from the checkpoint file:  "JID_6846.chk"
 Charge =  1 Multiplicity = 2

 SCF Done:  E(UB3LYP) =  -1372.76699731     A.U. after   27 cycles
 Normal termination of Gaussian 16 at Fri Dec 11 01:59:28 2020.
 Gaussian 16:  ES64L-G16RevA.03 25-Dec-2016

 ----------------------------------------------------------------------
 # B3LYP/6-311++G(d,p) empiricaldispersion=gd3bj scf=xqc pop=npa geom=c
 heck
 ----------------------------------------------------------------------

 -----------------------------------
 CID_43670108_JID_6846_Energie_anion
 -----------------------------------
 Structure from the checkpoint file:  "JID_6846.chk"
 Charge = -1 Multiplicity = 2

                         Standard orientation:
 ---------------------------------------------------------------------
 Center     Atomic      Atomic             Coordinates (Angstroms)
 Number     Number       Type             X           Y           Z
 ---------------------------------------------------------------------
      1          6           0        5.526708   -0.961721    0.535273
      2          6           0        4.211235   -0.291510    0.287469
      3          7           0        3.153008   -0.895350   -0.168536
      4          6           0        2.079493   -0.030923   -0.303049
      5          6           0        2.326968    1.260492    0.060168
      6         16           0        3.969294    1.428090    0.600385
      7          6           0        0.761185   -0.560556   -0.832890
      8          6           0        0.391349   -1.870851   -0.111577
      9          7           0       -0.246689    0.499522   -0.765435
     10          6           0       -1.272254    0.539717   -1.792869
     11          6           0       -2.436667   -0.478946   -1.673127
     12          6           0       -3.161461   -0.374200   -0.365015
     13          6           0       -3.135289   -1.231000    0.704543
     14          6           0       -3.900003   -0.776896    1.824407
     15          6           0       -4.498388    0.430116    1.600503
     16         16           0       -4.136733    1.032427    0.010914
     17          1           0        6.323354   -0.522391   -0.075940
     18          1           0        5.829345   -0.878107    1.585283
     19          1           0        5.430393   -2.019393    0.279884
     20          1           0        1.641908    2.092760    0.019493
     21          1           0        0.907947   -0.790259   -1.897782
     22          1           0        0.133973   -1.666109    0.934330
     23          1           0       -0.464598   -2.356753   -0.587593
     24          1           0        1.239923   -2.559881   -0.122708
     25          1           0       -0.670592    0.527337    0.159749
     26          1           0       -1.707494    1.547876   -1.791268
     27          1           0       -0.784134    0.411289   -2.765998
     28          1           0       -3.127012   -0.310934   -2.510776
     29          1           0       -2.057777   -1.500512   -1.778268
     30          1           0       -2.586348   -2.165856    0.688554
     31          1           0       -3.998434   -1.329518    2.752290
     32          1           0       -5.132914    1.000635    2.264730
 ---------------------------------------------------------------------

 SCF Done:  E(UB3LYP) =  -1373.03774349     A.U. after   33 cycles
 SCF Done:  E(UB3LYP) =  -1373.03774349     a.u. after    1 cycles

 The electronic state is 2-A.
 Alpha  occ. eigenvalues --  -88.77113 -88.76777 -14.20421 -14.19322 -10.13101
 Alpha  occ. eigenvalues --  -10.10584 -10.09469 -10.09410 -10.09369 -10.09131
 Alpha  occ. eigenvalues --  -10.08425 -10.08297 -10.07535 -10.07428 -10.06787
 Alpha  occ. eigenvalues --  -10.05615  -7.85771  -7.85416  -5.82037  -5.81699
 Alpha  occ. eigenvalues --   -5.81697  -5.81384  -5.81338  -5.81025  -0.85823
 Alpha  occ. eigenvalues --   -0.80863  -0.77599  -0.69249  -0.68857  -0.66783
 Alpha  occ. eigenvalues --   -0.64046  -0.63003  -0.59506  -0.58831  -0.52757
 Alpha  occ. eigenvalues --   -0.51126  -0.47309  -0.45949  -0.43287  -0.43125
 Alpha  occ. eigenvalues --   -0.40428  -0.39922  -0.36528  -0.35322  -0.34476
 Alpha  occ. eigenvalues --   -0.33608  -0.33577  -0.31447  -0.31023  -0.30838
 Alpha  occ. eigenvalues --   -0.30319  -0.28764  -0.28389  -0.28003  -0.27564
 Alpha  occ. eigenvalues --   -0.26799  -0.25835  -0.25459  -0.25193  -0.24029
 Alpha  occ. eigenvalues --   -0.22673  -0.17904  -0.17207  -0.15337  -0.13709
 Alpha  occ. eigenvalues --   -0.13243  -0.12030   0.04541
 Alpha virt. eigenvalues --    0.05917   0.06805   0.06958   0.07622   0.08110
 Alpha virt. eigenvalues --    0.08862   0.09002   0.09507   0.09894   0.10282
 Alpha virt. eigenvalues --    0.10595   0.11332   0.11873   0.11945   0.12439

  Beta  occ. eigenvalues --  -88.77100 -88.76761 -14.20409 -14.19323 -10.12978
  Beta  occ. eigenvalues --  -10.10582 -10.09460 -10.09341 -10.09279 -10.09011
  Beta  occ. eigenvalues --  -10.08341 -10.08280 -10.07538 -10.07415 -10.06770
  Beta  occ. eigenvalues --  -10.05604  -7.85758  -7.85400  -5.82033  -5.81693
  Beta  occ. eigenvalues --   -5.81692  -5.81341  -5.81332  -5.80969  -0.85729
  Beta  occ. eigenvalues --   -0.80845  -0.77465  -0.69151  -0.68759  -0.66641
  Beta  occ. eigenvalues --   -0.63969  -0.62907  -0.59406  -0.58753  -0.52679
  Beta  occ. eigenvalues --   -0.51047  -0.47186  -0.45833  -0.43143  -0.43012
  Beta  occ. eigenvalues --   -0.40365  -0.39860  -0.36458  -0.35252  -0.34283
  Beta  occ. eigenvalues --   -0.33550  -0.33473  -0.31366  -0.30950  -0.30777
  Beta  occ. eigenvalues --   -0.30226  -0.28709  -0.28260  -0.27948  -0.27470
  Beta  occ. eigenvalues --   -0.26583  -0.25771  -0.25333  -0.25107  -0.23949
  Beta  occ. eigenvalues --   -0.22617  -0.17634  -0.17170  -0.15063  -0.13236
  Beta  occ. eigenvalues --   -0.12785  -0.11874
  Beta virt. eigenvalues --    0.06627   0.06820   0.07314   0.07708   0.08250
  Beta virt. eigenvalues --    0.08333   0.08980   0.09301   0.09762   0.10000
  Beta virt. eigenvalues --    0.10676   0.10729   0.11557   0.11788   0.12183

 Mulliken charges and spin densities:
               1          2
     1  C    1.052337  -1.347824
     2  C   -0.529824   0.805397
     3  N    0.118390   0.047257
     4  C   -1.263237  -0.192933
     5  C    0.400279   0.342230
     6  S   -0.374682  -0.130436
     7  C    0.054045  -0.234762
     8  C   -0.302395  -0.268701
     9  N    0.164818   0.026585
    10  C   -0.080973  -0.290477
    11  C    0.971807  -1.319488
    12  C   -0.244511   0.384445
    13  C   -0.315922   0.467484
    14  C    0.066966  -0.612431
    15  C   -0.313697   0.250254
    16  S   -0.027729  -0.032992
    17  H    0.037048   0.113075
    18  H   -0.411565   0.585008
    19  H    0.002889   0.158526
    20  H    0.218477   0.075562
    21  H   -0.022890   0.203313
    22  H    0.127023   0.031342
    23  H    0.047331   0.097918
    24  H    0.109874   0.033173
    25  H    0.220871  -0.027168
    26  H    0.106232   0.053903
    27  H   -0.272747   0.406736
    28  H   -0.612876   0.821645
    29  H   -0.034534   0.176788
    30  H   -0.128980   0.269273
    31  H    0.088695   0.041671
    32  H    0.149480   0.065625
 Sum of Mulliken charges =  -1.00000   1.00000

 Dipole moment (field-independent basis, Debye):
    X=             -1.0812    Y=              2.0866    Z=              2.4241  Tot=              3.3763
 Quadrupole moment (field-independent basis, Debye-Ang):
   XX=           -206.0116   YY=           -136.7335   ZZ=           -150.1340
   XY=              1.8709   XZ=            -22.0687   YZ=              0.0685

 Summary of Natural Population Analysis:

                                       Natural Population
                Natural  -----------------------------------------------
    Atom  No    Charge         Core      Valence    Rydberg      Total
 -----------------------------------------------------------------------
      C    1   -0.30836      0.99961     2.30239    0.00637     3.30836
      C    2    0.05892      0.99963     1.92366    0.01778     2.94108
      N    3   -0.25320      0.99963     2.74290    0.01067     3.75320
      C    4    0.06347      0.99946     1.92169    0.01538     2.93653
      C    5   -0.19017      0.99944     2.18199    0.00874     3.19017
      S    6    0.17004      4.99943     2.81079    0.01974     7.82996
      C    7   -0.01749      0.99956     2.00592    0.01202     3.01749
      C    8   -0.29094      0.99965     2.28523    0.00607     3.29094
      N    9   -0.34411      0.99974     2.83316    0.01121     3.84411
      C   10   -0.07759      0.99962     2.06492    0.01305     3.07759
      C   11   -0.21782      0.99956     2.20687    0.01139     3.21782
      C   12   -0.07626      0.99950     2.06258    0.01419     3.07626
      C   13   -0.13624      0.99945     2.12575    0.01104     3.13624
      C   14   -0.13140      0.99953     2.12221    0.00966     3.13140
      C   15   -0.18241      0.99954     2.17160    0.01127     3.18241
      S   16    0.19521      4.99941     2.78510    0.02028     7.80479
      H   17    0.10405      0.00000     0.39504    0.00091     0.39595
      H   18    0.11090      0.00000     0.38612    0.00298     0.38910
      H   19    0.11259      0.00000     0.38608    0.00132     0.38741
      H   20    0.11933      0.00000     0.37954    0.00113     0.38067
      H   21    0.09875      0.00000     0.39942    0.00183     0.40125
      H   22    0.09630      0.00000     0.40280    0.00090     0.40370
      H   23    0.09657      0.00000     0.40231    0.00112     0.40343
      H   24    0.10866      0.00000     0.39012    0.00122     0.39134
      H   25    0.17701      0.00000     0.32059    0.00240     0.32299
      H   26    0.09033      0.00000     0.40853    0.00114     0.40967
      H   27    0.09554      0.00000     0.40290    0.00156     0.40446
      H   28    0.10905      0.00000     0.38784    0.00311     0.39095
      H   29    0.10540      0.00000     0.39285    0.00175     0.39460
      H   30    0.10729      0.00000     0.39172    0.00099     0.39271
      H   31    0.10268      0.00000     0.39651    0.00080     0.39732
      H   32    0.10389      0.00000     0.39534    0.00077     0.39611
 =======================================================================
   * Total *   -0.00000     23.99275    42.78448    0.22278    67.00000

 Normal termination of Gaussian 16 at Fri Dec 11 02:18:04 2020.
