 Gaussian 16, Revision A.03,

 -----------------------------------------------------------
 # opt freq B3LYP/6-31G(d) empiricaldispersion=gd3bj scf=xqc
 -----------------------------------------------------------

 -------------------------------
 CID_140167548_JID_7948_neutraal
 -------------------------------
 Symbolic Z-matrix:
 Charge =  0 Multiplicity = 1

 SCF Done:  E(RB3LYP) =  -772.408973493     A.U. after   14 cycles
 SCF Done:  E(RB3LYP) =  -772.411532901     A.U. after   12 cycles
 SCF Done:  E(RB3LYP) =  -772.409916742     A.U. after   15 cycles
 SCF Done:  E(RB3LYP) =  -772.412189435     A.U. after   13 cycles
 SCF Done:  E(RB3LYP) =  -772.413166779     A.U. after   13 cycles
 SCF Done:  E(RB3LYP) =  -772.413570228     A.U. after   12 cycles
 SCF Done:  E(RB3LYP) =  -772.413650002     A.U. after   11 cycles
 SCF Done:  E(RB3LYP) =  -772.413812492     A.U. after   11 cycles
 SCF Done:  E(RB3LYP) =  -772.413904623     A.U. after   12 cycles
 SCF Done:  E(RB3LYP) =  -772.413951800     A.U. after   11 cycles
 SCF Done:  E(RB3LYP) =  -772.415144725     A.U. after   11 cycles
 SCF Done:  E(RB3LYP) =  -772.415152919     A.U. after   10 cycles
 SCF Done:  E(RB3LYP) =  -772.415155493     A.U. after   10 cycles
 SCF Done:  E(RB3LYP) =  -772.415156204     A.U. after    8 cycles
 SCF Done:  E(RB3LYP) =  -772.415156430     A.U. after    7 cycles
 Optimization completed.
    -- Stationary point found.
 Normal termination of Gaussian 16 at Fri Dec 11 13:29:47 2020.

 --------------------------------------------------------------------
 #N Geom=AllCheck Guess=TCheck SCRF=Check GenChk RB3LYP/6-31G(d) Freq
 --------------------------------------------------------------------

 Structure from the checkpoint file:  "JID_7948.chk"
 -------------------------------
 CID_140167548_JID_7948_neutraal
 -------------------------------
 Charge =  0 Multiplicity = 1

 SCF Done:  E(RB3LYP) =  -772.415156430     A.U. after    1 cycles

  Exact polarizability: 270.913  -3.069 121.150  -3.708   2.681 132.295
 Approx polarizability: 346.604 -15.317 171.954  -2.428   8.805 187.078

                      1                      2                      3
                      A                      A                      A
 Frequencies --     11.8701                24.6390                34.6264
 Red. masses --      4.5854                 3.9188                 5.4446
 Frc consts  --      0.0004                 0.0014                 0.0038
 IR Inten    --      0.0304                 0.0805                 0.4266

                      4                      5                      6
                      A                      A                      A
 Frequencies --     40.0941                54.7775                59.7517
 Red. masses --      4.0951                 2.6374                 5.1001
 Frc consts  --      0.0039                 0.0047                 0.0107
 IR Inten    --      0.1134                 0.5693                 1.9169

                      7                      8                      9
                      A                      A                      A
 Frequencies --     89.5463                98.4812               120.7620
 Red. masses --      3.4234                 2.7866                 5.0409
 Frc consts  --      0.0162                 0.0159                 0.0433
 IR Inten    --      0.9798                 4.3788                 0.8663

                     10                     11                     12
                      A                      A                      A
 Frequencies --    124.0153               140.6587               164.3106
 Red. masses --      2.7345                 2.7678                 2.4165
 Frc consts  --      0.0248                 0.0323                 0.0384
 IR Inten    --      0.1591                 0.4033                 0.5311

                     13                     14                     15
                      A                      A                      A
 Frequencies --    193.9284               207.7916               226.6493
 Red. masses --      2.1626                 1.8236                 2.4448
 Frc consts  --      0.0479                 0.0464                 0.0740
 IR Inten    --      0.6773                 0.8351                 2.1351

                     16                     17                     18
                      A                      A                      A
 Frequencies --    246.2580               256.1726               262.3203
 Red. masses --      1.8268                 1.7162                 1.9244
 Frc consts  --      0.0653                 0.0664                 0.0780
 IR Inten    --      0.4698                 2.6838                 1.0213

                     19                     20                     21
                      A                      A                      A
 Frequencies --    300.4065               327.0550               359.4550
 Red. masses --      1.9790                 2.8166                 3.6331
 Frc consts  --      0.1052                 0.1775                 0.2766
 IR Inten    --      2.1903                 2.8124                 0.6139

                     22                     23                     24
                      A                      A                      A
 Frequencies --    390.5026               413.2764               426.9829
 Red. masses --      3.7028                 2.1880                 2.4477
 Frc consts  --      0.3327                 0.2202                 0.2629
 IR Inten    --     10.8125                 0.6409                 3.2911

                     25                     26                     27
                      A                      A                      A
 Frequencies --    482.6968               487.8761               529.1035
 Red. masses --      3.4020                 2.8618                 3.2614
 Frc consts  --      0.4670                 0.4013                 0.5379
 IR Inten    --      1.3950                 8.6807                 2.1156

                     28                     29                     30
                      A                      A                      A
 Frequencies --    541.7814               560.8931               644.2995
 Red. masses --      2.5685                 3.2750                 2.4500
 Frc consts  --      0.4442                 0.6070                 0.5992
 IR Inten    --      3.1547                32.5617                26.2153

                     31                     32                     33
                      A                      A                      A
 Frequencies --    650.5562               750.2683               753.9703
 Red. masses --      1.5548                 2.5964                 2.4829
 Frc consts  --      0.3877                 0.8611                 0.8316
 IR Inten    --     54.1263                60.4784                 6.2127

                     34                     35                     36
                      A                      A                      A
 Frequencies --    791.9405               821.7309               840.0341
 Red. masses --      1.2335                 1.5315                 1.8390
 Frc consts  --      0.4558                 0.6093                 0.7646
 IR Inten    --      3.2233                 0.8392                 0.8001

                     37                     38                     39
                      A                      A                      A
 Frequencies --    873.7399               885.3578               898.6128
 Red. masses --      2.9172                 2.1005                 2.1910
 Frc consts  --      1.3122                 0.9701                 1.0424
 IR Inten    --     15.0012                 6.1621                 2.6251

                     40                     41                     42
                      A                      A                      A
 Frequencies --    935.9900               944.6450               955.8626
 Red. masses --      2.6206                 1.8296                 2.5778
 Frc consts  --      1.3527                 0.9619                 1.3877
 IR Inten    --     28.0234                15.3921                 8.0305

                     43                     44                     45
                      A                      A                      A
 Frequencies --    988.0767              1007.0477              1021.9382
 Red. masses --      1.1172                 1.3799                 2.0819
 Frc consts  --      0.6426                 0.8245                 1.2810
 IR Inten    --      0.0933                12.5339                 2.8983

                     46                     47                     48
                      A                      A                      A
 Frequencies --   1026.3803              1047.3389              1063.7911
 Red. masses --      1.6555                 1.0937                 2.8958
 Frc consts  --      1.0276                 0.7068                 1.9308
 IR Inten    --     16.4141                54.4920                18.5262

                     49                     50                     51
                      A                      A                      A
 Frequencies --   1069.4973              1095.0851              1113.8286
 Red. masses --      3.3166                 2.0487                 2.1558
 Frc consts  --      2.2352                 1.4476                 1.5758
 IR Inten    --     11.3433                 3.7073                16.1461

                     52                     53                     54
                      A                      A                      A
 Frequencies --   1120.8680              1135.8086              1146.1476
 Red. masses --      2.3478                 3.7920                 1.7626
 Frc consts  --      1.7378                 2.8822                 1.3642
 IR Inten    --    124.2887                69.2817                 5.2863

                     55                     56                     57
                      A                      A                      A
 Frequencies --   1173.5795              1189.7754              1192.9127
 Red. masses --      2.4617                 1.7972                 1.6249
 Frc consts  --      1.9976                 1.4989                 1.3623
 IR Inten    --    155.8053                 0.8118                 0.8089

                     58                     59                     60
                      A                      A                      A
 Frequencies --   1223.5669              1237.8873              1242.2868
 Red. masses --      1.3447                 1.4728                 1.3980
 Frc consts  --      1.1861                 1.3297                 1.2711
 IR Inten    --      2.5831                18.4981                72.9447

                     61                     62                     63
                      A                      A                      A
 Frequencies --   1261.1471              1285.1387              1295.3455
 Red. masses --      1.2353                 1.2309                 1.2125
 Frc consts  --      1.1576                 1.1978                 1.1987
 IR Inten    --     10.1283                 1.1458                 4.7939

                     64                     65                     66
                      A                      A                      A
 Frequencies --   1307.3886              1328.8438              1339.2555
 Red. masses --      1.2362                 1.3490                 1.3545
 Frc consts  --      1.2450                 1.4035                 1.4314
 IR Inten    --     14.1957                 6.0155                 0.7132

                     67                     68                     69
                      A                      A                      A
 Frequencies --   1343.6619              1346.6060              1355.6929
 Red. masses --      1.3235                 1.3389                 1.3121
 Frc consts  --      1.4079                 1.4304                 1.4209
 IR Inten    --      0.8423                 8.6425                 1.3137

                     70                     71                     72
                      A                      A                      A
 Frequencies --   1359.7048              1383.9773              1392.5190
 Red. masses --      1.3885                 1.4018                 1.4087
 Frc consts  --      1.5124                 1.5820                 1.6094
 IR Inten    --      5.0513                20.8110                10.7045

                     73                     74                     75
                      A                      A                      A
 Frequencies --   1397.0093              1420.2596              1429.0182
 Red. masses --      1.2954                 1.6757                 1.2946
 Frc consts  --      1.4896                 1.9916                 1.5576
 IR Inten    --      8.8930                29.8133                17.9681

                     76                     77                     78
                      A                      A                      A
 Frequencies --   1436.0103              1499.8887              1503.9122
 Red. masses --      1.2253                 1.0953                 1.0979
 Frc consts  --      1.4886                 1.4518                 1.4630
 IR Inten    --      1.1946                 3.8293                 1.4908

                     79                     80                     81
                      A                      A                      A
 Frequencies --   1510.4478              1512.0469              1513.1660
 Red. masses --      1.1184                 1.0728                 1.1387
 Frc consts  --      1.5034                 1.4451                 1.5361
 IR Inten    --      2.0878                 3.2434                16.9443

                     82                     83                     84
                      A                      A                      A
 Frequencies --   1527.7602              1531.9549              1537.1527
 Red. masses --      1.0408                 1.0568                 1.0672
 Frc consts  --      1.4313                 1.4613                 1.4858
 IR Inten    --      4.9618                 4.4711                 2.8245

                     85                     86                     87
                      A                      A                      A
 Frequencies --   1551.0763              1702.1014              1737.8090
 Red. masses --      1.0512                 5.8871                 5.6100
 Frc consts  --      1.4901                10.0490                 9.9820
 IR Inten    --     14.7362                 3.0240                20.1247

                     88                     89                     90
                      A                      A                      A
 Frequencies --   1755.6829              1843.3193              3020.9334
 Red. masses --      5.9628                 9.2656                 1.0583
 Frc consts  --     10.8291                18.5491                 5.6903
 IR Inten    --      1.5958               276.2646                26.5132

                     91                     92                     93
                      A                      A                      A
 Frequencies --   3022.4608              3024.0536              3046.9109
 Red. masses --      1.0652                 1.0363                 1.0350
 Frc consts  --      5.7331                 5.5837                 5.6614
 IR Inten    --     44.9002                49.3913                36.0766

                     94                     95                     96
                      A                      A                      A
 Frequencies --   3058.8374              3059.8132              3069.9385
 Red. masses --      1.0695                 1.1027                 1.0964
 Frc consts  --      5.8956                 6.0828                 6.0880
 IR Inten    --      4.9531                19.6862                 8.9845

                     97                     98                     99
                      A                      A                      A
 Frequencies --   3075.8329              3080.5603              3085.5718
 Red. masses --      1.0747                 1.0684                 1.1010
 Frc consts  --      5.9904                 5.9735                 6.1758
 IR Inten    --     22.5022                17.1913                43.5834

                    100                    101                    102
                      A                      A                      A
 Frequencies --   3110.8038              3113.4026              3121.3319
 Red. masses --      1.1027                 1.1016                 1.1024
 Frc consts  --      6.2871                 6.2913                 6.3282
 IR Inten    --     14.7365                29.3713                41.2799

                    103                    104                    105
                      A                      A                      A
 Frequencies --   3126.3634              3132.4657              3137.6017
 Red. masses --      1.0908                 1.1002                 1.0884
 Frc consts  --      6.2814                 6.3607                 6.3132
 IR Inten    --     38.2478                35.5691                 2.7727

                    106                    107                    108
                      A                      A                      A
 Frequencies --   3139.3129              3143.7777              3144.3636
 Red. masses --      1.1004                 1.0900                 1.0895
 Frc consts  --      6.3895                 6.3471                 6.3468
 IR Inten    --     17.1165                15.4259                19.0683

                    109                    110                    111
                      A                      A                      A
 Frequencies --   3151.5974              3180.0843              3674.7490
 Red. masses --      1.0865                 1.0875                 1.0638
 Frc consts  --      6.3583                 6.4797                 8.4640
 IR Inten    --     41.6650                10.0260                47.5532

 - Thermochemistry -
 -------------------
 Temperature   298.150 Kelvin.  Pressure   1.00000 Atm.
 Atom     1 has atomic number  6 and mass  12.00000

 Molecular mass:   238.15689 amu.
 Principal axes and moments of inertia in atomic units:
                           1         2         3
     Eigenvalues --  2051.56706********************
           X            0.99997   0.00564  -0.00456
           Y           -0.00582   0.99916  -0.04044
           Z            0.00433   0.04047   0.99917
 This molecule is an asymmetric top.
 Rotational symmetry number  1.
 Warning -- assumption of classical behavior for rotation
           may cause significant error
 Rotational temperatures (Kelvin)      0.04222     0.00582     0.00563
 Rotational constants (GHZ):           0.87969     0.12122     0.11735
 Zero-point vibrational energy     892104.2 (Joules/Mol)
                                  213.21801 (Kcal/Mol)
 Warning -- explicit consideration of  29 degrees of freedom as
           vibrations may cause significant error
 Vibrational temperatures:     17.08    35.45    49.82    57.69    78.81
          (Kelvin)             85.97   128.84   141.69   173.75   178.43
                              202.38   236.41   279.02   298.97   326.10
                              354.31   368.58   377.42   432.22   470.56
                              517.18   561.85   594.61   614.33   694.49
                              701.94   761.26   779.50   807.00   927.00
                              936.01  1079.47  1084.80  1139.43  1182.29
                             1208.62  1257.12  1273.83  1292.90  1346.68
                             1359.13  1375.27  1421.62  1448.92  1470.34
                             1476.73  1506.89  1530.56  1538.77  1575.58
                             1602.55  1612.68  1634.18  1649.05  1688.52
                             1711.82  1716.34  1760.44  1781.04  1787.37
                             1814.51  1849.03  1863.71  1881.04  1911.91
                             1926.89  1933.23  1937.47  1950.54  1956.31
                             1991.23  2003.52  2009.98  2043.44  2056.04
                             2066.10  2158.01  2163.79  2173.20  2175.50
                             2177.11  2198.11  2204.14  2211.62  2231.65
                             2448.94  2500.32  2526.04  2652.13  4346.45
                             4348.65  4350.94  4383.83  4400.98  4402.39
                             4416.96  4425.44  4432.24  4439.45  4475.75
                             4479.49  4490.90  4498.14  4506.92  4514.31
                             4516.77  4523.19  4524.04  4534.45  4575.43
                             5287.14

 Zero-point correction=                           0.339785 (Hartree/Particle)
 Thermal correction to Energy=                    0.359750
 Thermal correction to Enthalpy=                  0.360694
 Thermal correction to Gibbs Free Energy=         0.287390
 Sum of electronic and zero-point Energies=           -772.075372
 Sum of electronic and thermal Energies=              -772.055406
 Sum of electronic and thermal Enthalpies=            -772.054462
 Sum of electronic and thermal Free Energies=         -772.127767

                     E (Thermal)             CV                S
                      KCal/Mol        Cal/Mol-Kelvin    Cal/Mol-Kelvin
 Total                  225.747             71.113            154.282
 Electronic               0.000              0.000              0.000
 Translational            0.889              2.981             42.305
 Rotational               0.889              2.981             34.506
 Vibrational            223.969             65.151             77.471
 Vibration     1          0.593              1.987              7.670
 Vibration     2          0.593              1.985              6.220
 Vibration     3          0.594              1.983              5.545
 Vibration     4          0.594              1.981              5.254
 Vibration     5          0.596              1.976              4.637
 Vibration     6          0.597              1.973              4.465
 Vibration     7          0.602              1.957              3.670
 Vibration     8          0.604              1.950              3.484
 Vibration     9          0.609              1.932              3.088
 Vibration    10          0.610              1.929              3.037
 Vibration    11          0.615              1.913              2.795
 Vibration    12          0.623              1.886              2.500
 Vibration    13          0.635              1.848              2.190
 Vibration    14          0.641              1.829              2.063
 Vibration    15          0.650              1.800              1.905
 Vibration    16          0.661              1.769              1.757
 Vibration    17          0.666              1.752              1.688
 Vibration    18          0.670              1.742              1.646
 Vibration    19          0.693              1.673              1.415
 Vibration    20          0.711              1.621              1.275
 Vibration    21          0.734              1.556              1.124
 Vibration    22          0.758              1.490              0.998
 Vibration    23          0.777              1.441              0.915
 Vibration    24          0.789              1.412              0.869
 Vibration    25          0.839              1.288              0.703
 Vibration    26          0.844              1.277              0.689
 Vibration    27          0.884              1.186              0.589
 Vibration    28          0.897              1.158              0.561
 Vibration    29          0.917              1.116              0.522

 Optimization completed.
    -- Stationary point found.
 Normal termination of Gaussian 16 at Fri Dec 11 13:40:23 2020.

 ----------------------------------------------------------------------
 # B3LYP/6-311++G(d,p) empiricaldispersion=gd3bj scf=xqc pop=npa geom=c
 heck
 ----------------------------------------------------------------------

 ---------------------------------------
 CID_140167548_JID_7948_Energie_neutraal
 ---------------------------------------
 Structure from the checkpoint file:  "JID_7948.chk"
 Charge =  0 Multiplicity = 1

 SCF Done:  E(RB3LYP) =  -772.648054408     A.U. after   16 cycles
 Normal termination of Gaussian 16 at Fri Dec 11 13:46:12 2020.

 ----------------------------------------------------------------------
 # B3LYP/6-311++G(d,p) empiricaldispersion=gd3bj scf=xqc pop=npa geom=c
 heck
 ----------------------------------------------------------------------

 -------------------------------------
 CID_140167548_JID_7948_Energie_kation
 -------------------------------------
 Structure from the checkpoint file:  "JID_7948.chk"
 Charge =  1 Multiplicity = 2

 SCF Done:  E(UB3LYP) =  -772.356818856     A.U. after   25 cycles
 Normal termination of Gaussian 16 at Fri Dec 11 13:58:24 2020.
 Gaussian 16:  ES64L-G16RevA.03 25-Dec-2016

 ----------------------------------------------------------------------
 # B3LYP/6-311++G(d,p) empiricaldispersion=gd3bj scf=xqc pop=npa geom=c
 heck
 ----------------------------------------------------------------------

 ------------------------------------
 CID_140167548_JID_7948_Energie_anion
 ------------------------------------
 Structure from the checkpoint file:  "JID_7948.chk"
 Charge = -1 Multiplicity = 2

                         Standard orientation:
 ---------------------------------------------------------------------
 Center     Atomic      Atomic             Coordinates (Angstroms)
 Number     Number       Type             X           Y           Z
 ---------------------------------------------------------------------
      1          6           0       -7.134221   -0.323887    1.550888
      2          6           0       -6.617335   -0.992184    0.266761
      3          6           0       -5.656720   -0.115901   -0.486866
      4          6           0       -4.377611   -0.407317   -0.731967
      5          6           0       -3.406427    0.496729   -1.452145
      6          6           0       -2.282577    0.931586   -0.550179
      7          6           0       -0.986917    0.630813   -0.733296
      8          6           0        0.081088    1.040993    0.162371
      9          6           0        1.377656    0.738937   -0.012160
     10          6           0        2.462005    1.159183    0.942856
     11          6           0        3.138511   -0.034533    1.683976
     12          6           0        3.060645   -1.436984    1.039810
     13          6           0        3.990468   -1.630981   -0.133145
     14          8           0        5.200240   -1.658613   -0.068528
     15          8           0        3.328594   -1.765202   -1.312560
     16          8           0        3.400575    2.065170    0.351137
     17          6           0        4.211568    1.569877   -0.696925
     18          1           0       -6.307295   -0.111223    2.237194
     19          1           0       -7.854108   -0.967032    2.069294
     20          1           0       -7.633525    0.626343    1.326965
     21          1           0       -6.131595   -1.944719    0.512756
     22          1           0       -7.475797   -1.234967   -0.376722
     23          1           0       -6.055278    0.839556   -0.836317
     24          1           0       -3.966047   -1.352061   -0.373407
     25          1           0       -2.987382   -0.018716   -2.327597
     26          1           0       -3.947724    1.377304   -1.826442
     27          1           0       -2.575238    1.509176    0.327592
     28          1           0       -0.695076    0.043326   -1.605067
     29          1           0       -0.214588    1.631368    1.031354
     30          1           0        1.668492    0.142652   -0.874708
     31          1           0        2.001065    1.784159    1.714510
     32          1           0        4.183424    0.224838    1.884808
     33          1           0        2.646770   -0.124760    2.658716
     34          1           0        3.373544   -2.167737    1.793436
     35          1           0        2.033288   -1.666019    0.748285
     36          1           0        4.018409   -1.871935   -1.995280
     37          1           0        4.922488    0.808631   -0.351381
     38          1           0        3.621971    1.156373   -1.526937
     39          1           0        4.778139    2.426608   -1.071320
 ---------------------------------------------------------------------

 SCF Done:  E(UB3LYP) =  -772.640992136     A.U. after   33 cycles
 SCF Done:  E(UB3LYP) =  -772.640992136     a.u. after    1 cycles

 The electronic state is 2-A.
 Alpha  occ. eigenvalues --  -19.07999 -19.02615 -19.02331 -10.21693 -10.12707
 Alpha  occ. eigenvalues --  -10.11229 -10.09444 -10.08781 -10.08383 -10.07582
 Alpha  occ. eigenvalues --  -10.07453 -10.07093 -10.07003 -10.06118 -10.05617
 Alpha  occ. eigenvalues --  -10.05530 -10.04956  -1.02026  -0.93378  -0.93122
 Alpha  occ. eigenvalues --   -0.72266  -0.71707  -0.69849  -0.67505  -0.64707
 Alpha  occ. eigenvalues --   -0.61915  -0.58535  -0.57932  -0.53210  -0.51648
 Alpha  occ. eigenvalues --   -0.49246  -0.45918  -0.45241  -0.44694  -0.41745
 Alpha  occ. eigenvalues --   -0.40355  -0.38952  -0.38265  -0.37157  -0.36897
 Alpha  occ. eigenvalues --   -0.36386  -0.36110  -0.34852  -0.32815  -0.32624
 Alpha  occ. eigenvalues --   -0.32304  -0.31857  -0.30657  -0.29633  -0.28665
 Alpha  occ. eigenvalues --   -0.28341  -0.27499  -0.27010  -0.26085  -0.25428
 Alpha  occ. eigenvalues --   -0.25345  -0.24614  -0.24149  -0.23375  -0.21805
 Alpha  occ. eigenvalues --   -0.20515  -0.19461  -0.16167  -0.15778  -0.11951
 Alpha  occ. eigenvalues --    0.04039
 Alpha virt. eigenvalues --    0.05249   0.05903   0.06315   0.07813   0.07999
 Alpha virt. eigenvalues --    0.08065   0.08670   0.08779   0.09185   0.09722
 Alpha virt. eigenvalues --    0.10134   0.10337   0.10545   0.11131   0.11420

  Beta  occ. eigenvalues --  -19.07949 -19.02603 -19.02297 -10.21682 -10.12716
  Beta  occ. eigenvalues --  -10.11225 -10.09417 -10.08764 -10.08384 -10.07601
  Beta  occ. eigenvalues --  -10.07417 -10.07038 -10.06949 -10.06060 -10.05550
  Beta  occ. eigenvalues --  -10.05351 -10.04780  -1.01959  -0.93306  -0.93068
  Beta  occ. eigenvalues --   -0.72103  -0.71610  -0.69667  -0.67348  -0.64589
  Beta  occ. eigenvalues --   -0.61771  -0.58482  -0.57792  -0.53074  -0.51574
  Beta  occ. eigenvalues --   -0.49098  -0.45786  -0.45094  -0.44475  -0.41694
  Beta  occ. eigenvalues --   -0.40307  -0.38901  -0.38182  -0.37091  -0.36831
  Beta  occ. eigenvalues --   -0.36309  -0.36060  -0.34780  -0.32732  -0.32559
  Beta  occ. eigenvalues --   -0.32223  -0.31792  -0.30602  -0.29559  -0.28607
  Beta  occ. eigenvalues --   -0.28283  -0.27414  -0.26936  -0.26018  -0.25373
  Beta  occ. eigenvalues --   -0.25307  -0.24545  -0.24032  -0.23307  -0.21526
  Beta  occ. eigenvalues --   -0.20049  -0.19409  -0.16091  -0.15425  -0.10969
  Beta virt. eigenvalues --    0.05965   0.06310   0.06834   0.07480   0.07814
  Beta virt. eigenvalues --    0.08161   0.08248   0.08611   0.08948   0.09460
  Beta virt. eigenvalues --    0.09843   0.10242   0.10418   0.10844   0.11231

 Mulliken charges and spin densities:
               1          2
     1  C    0.294178  -0.891752
     2  C   -0.804879   0.499999
     3  C    0.304830  -0.230083
     4  C   -0.097698  -0.002245
     5  C   -0.197292  -0.020969
     6  C    0.054101   0.102767
     7  C   -0.184746   0.012859
     8  C   -0.312132  -0.012574
     9  C    0.671454  -0.023921
    10  C   -1.301321   0.424707
    11  C    0.023755  -0.252278
    12  C   -0.225143  -0.128564
    13  C    0.238303  -0.491706
    14  O   -0.263206   0.038880
    15  O   -0.160173   0.052022
    16  O   -0.044364   0.004816
    17  C   -0.270144  -0.070976
    18  H    0.106094   0.030093
    19  H   -0.425777   0.560789
    20  H   -0.036168   0.167127
    21  H    0.082418   0.049048
    22  H    0.048613   0.069603
    23  H    0.124349   0.000792
    24  H    0.138017  -0.003859
    25  H    0.107288   0.023983
    26  H    0.116155   0.013091
    27  H    0.132199  -0.010740
    28  H    0.026113   0.092990
    29  H    0.073611  -0.018257
    30  H    0.311596  -0.192434
    31  H    0.187203   0.022031
    32  H    0.188900   0.015105
    33  H    0.094666   0.036274
    34  H   -0.222190   0.415741
    35  H    0.265199  -0.073501
    36  H   -0.309455   0.610655
    37  H    0.089463   0.065128
    38  H    0.079917   0.061879
    39  H    0.096265   0.053479
 Sum of Mulliken charges =  -1.00000   1.00000

 Dipole moment (field-independent basis, Debye):
    X=              0.9109    Y=              1.9424    Z=              0.6278  Tot=              2.2353
 Quadrupole moment (field-independent basis, Debye-Ang):
   XX=           -258.1265   YY=           -135.4866   ZZ=           -132.7269
   XY=              3.2822   XZ=             20.7502   YZ=             -1.6173

 Summary of Natural Population Analysis:

                                       Natural Population
                Natural  -----------------------------------------------
    Atom  No    Charge         Core      Valence    Rydberg      Total
 -----------------------------------------------------------------------
      C    1   -0.28183      0.99966     2.27732    0.00485     3.28183
      C    2   -0.20682      0.99963     2.19662    0.01057     3.20682
      C    3   -0.09077      0.99951     2.08124    0.01003     3.09077
      C    4   -0.07289      0.99950     2.06511    0.00828     3.07289
      C    5   -0.21778      0.99961     2.20996    0.00822     3.21778
      C    6   -0.04157      0.99953     2.03379    0.00825     3.04157
      C    7   -0.10690      0.99950     2.09835    0.00905     3.10690
      C    8   -0.08780      0.99951     2.07973    0.00856     3.08780
      C    9   -0.08600      0.99951     2.07665    0.00985     3.08600
      C   10    0.05378      0.99952     1.93144    0.01526     2.94622
      C   11   -0.19704      0.99960     2.18861    0.00884     3.19704
      C   12   -0.24406      0.99957     2.23593    0.00856     3.24406
      C   13    0.40725      0.99971     1.56710    0.02594     2.59275
      O   14   -0.31100      0.99987     3.30481    0.00632     4.31100
      O   15   -0.34372      0.99988     3.33682    0.00703     4.34372
      O   16   -0.29815      0.99989     3.28944    0.00882     4.29815
      C   17   -0.10858      0.99960     2.09913    0.00985     3.10858
      H   18    0.09730      0.00000     0.40178    0.00093     0.40270
      H   19    0.09853      0.00000     0.39965    0.00182     0.40147
      H   20    0.09436      0.00000     0.40462    0.00102     0.40564
      H   21    0.09599      0.00000     0.40287    0.00114     0.40401
      H   22    0.09624      0.00000     0.40265    0.00111     0.40376
      H   23    0.08557      0.00000     0.41333    0.00109     0.41443
      H   24    0.08848      0.00000     0.41044    0.00109     0.41152
      H   25    0.09914      0.00000     0.39937    0.00149     0.40086
      H   26    0.09835      0.00000     0.40021    0.00144     0.40165
      H   27    0.08449      0.00000     0.41424    0.00127     0.41551
      H   28    0.08907      0.00000     0.40939    0.00154     0.41093
      H   29    0.08634      0.00000     0.41218    0.00149     0.41366
      H   30    0.09551      0.00000     0.40254    0.00195     0.40449
      H   31    0.09048      0.00000     0.40803    0.00149     0.40952
      H   32    0.10653      0.00000     0.39241    0.00106     0.39347
      H   33    0.10193      0.00000     0.39716    0.00091     0.39807
      H   34    0.11387      0.00000     0.38498    0.00115     0.38613
      H   35    0.11567      0.00000     0.38321    0.00112     0.38433
      H   36    0.24336      0.00000     0.24237    0.01428     0.25664
      H   37    0.08368      0.00000     0.41505    0.00127     0.41632
      H   38    0.08183      0.00000     0.41696    0.00121     0.41817
      H   39    0.08720      0.00000     0.41199    0.00081     0.41280
 =======================================================================
   * Total *    0.00000     16.99360    47.79746    0.20893    65.00000

 Normal termination of Gaussian 16 at Fri Dec 11 14:14:56 2020.
