 Gaussian 16, Revision A.03,

 -----------------------------------------------------------
 # opt freq B3LYP/6-31G(d) empiricaldispersion=gd3bj scf=xqc
 -----------------------------------------------------------

 ------------------------------
 CID_81194501_JID_8040_neutraal
 ------------------------------
 Symbolic Z-matrix:
 Charge =  0 Multiplicity = 1

 SCF Done:  E(RB3LYP) =  -1201.48628680     A.U. after   15 cycles
 SCF Done:  E(RB3LYP) =  -1201.48830798     A.U. after   14 cycles
 SCF Done:  E(RB3LYP) =  -1201.49420584     A.U. after   14 cycles
 SCF Done:  E(RB3LYP) =  -1201.49456594     A.U. after   13 cycles
 SCF Done:  E(RB3LYP) =  -1201.49446124     A.U. after   13 cycles
 SCF Done:  E(RB3LYP) =  -1201.49396853     A.U. after   13 cycles
 SCF Done:  E(RB3LYP) =  -1201.49140234     A.U. after   12 cycles
 SCF Done:  E(RB3LYP) =  -1201.49500829     A.U. after   10 cycles
 SCF Done:  E(RB3LYP) =  -1201.49760453     A.U. after   13 cycles
 SCF Done:  E(RB3LYP) =  -1201.49811496     A.U. after   13 cycles
 SCF Done:  E(RB3LYP) =  -1201.50869209     A.U. after   10 cycles
 SCF Done:  E(RB3LYP) =  -1201.50869316     A.U. after    9 cycles
 SCF Done:  E(RB3LYP) =  -1201.50869347     A.U. after    8 cycles
 SCF Done:  E(RB3LYP) =  -1201.50869356     A.U. after    7 cycles
 SCF Done:  E(RB3LYP) =  -1201.50869360     A.U. after    7 cycles
 Optimization completed.
    -- Stationary point found.
 Normal termination of Gaussian 16 at Fri Dec 11 19:00:16 2020.

 --------------------------------------------------------------------
 #N Geom=AllCheck Guess=TCheck SCRF=Check GenChk RB3LYP/6-31G(d) Freq
 --------------------------------------------------------------------

 Structure from the checkpoint file:  "JID_8040.chk"
 ------------------------------
 CID_81194501_JID_8040_neutraal
 ------------------------------
 Charge =  0 Multiplicity = 1

 SCF Done:  E(RB3LYP) =  -1201.50869360     A.U. after    1 cycles

  Exact polarizability: 225.713   4.983 155.668 -16.100   2.005 109.444
 Approx polarizability: 290.561  12.087 259.805 -28.044   0.293 186.813

                      1                      2                      3
                      A                      A                      A
 Frequencies --     32.3991                35.9931                47.5578
 Red. masses --      3.5191                 5.1594                 4.4741
 Frc consts  --      0.0022                 0.0039                 0.0060
 IR Inten    --      1.1204                 0.4381                 1.0387

                      4                      5                      6
                      A                      A                      A
 Frequencies --     64.2901                83.6827                88.6505
 Red. masses --      5.6623                 4.9342                 4.7514
 Frc consts  --      0.0138                 0.0204                 0.0220
 IR Inten    --      2.5803                 2.1730                 0.7804

                      7                      8                      9
                      A                      A                      A
 Frequencies --    125.1607               130.7135               157.8208
 Red. masses --      4.6103                 4.4862                 5.6416
 Frc consts  --      0.0426                 0.0452                 0.0828
 IR Inten    --      4.5005                 2.4556                 0.9356

                     10                     11                     12
                      A                      A                      A
 Frequencies --    172.8719               210.1465               233.2416
 Red. masses --      4.7282                 5.6201                 1.4404
 Frc consts  --      0.0833                 0.1462                 0.0462
 IR Inten    --      1.1283                 0.5093                 3.4285

                     13                     14                     15
                      A                      A                      A
 Frequencies --    252.5808               280.4759               309.2210
 Red. masses --      2.1481                 3.7143                 3.8872
 Frc consts  --      0.0807                 0.1722                 0.2190
 IR Inten    --      8.9759                 5.9606                 1.4067

                     16                     17                     18
                      A                      A                      A
 Frequencies --    354.3467               376.4795               387.3962
 Red. masses --      2.2977                 2.7355                 4.5616
 Frc consts  --      0.1700                 0.2284                 0.4033
 IR Inten    --      3.5919                 0.4753                 3.0977

                     19                     20                     21
                      A                      A                      A
 Frequencies --    404.5275               409.6988               421.0827
 Red. masses --      1.7953                 3.1943                 4.3847
 Frc consts  --      0.1731                 0.3159                 0.4581
 IR Inten    --     19.8678                 4.0295                44.1402

                     22                     23                     24
                      A                      A                      A
 Frequencies --    426.7474               433.5504               482.4718
 Red. masses --      3.1195                 1.6698                 5.2788
 Frc consts  --      0.3347                 0.1849                 0.7240
 IR Inten    --      4.8296                29.9734                18.5428

                     25                     26                     27
                      A                      A                      A
 Frequencies --    489.0520               534.8989               568.7013
 Red. masses --      2.6876                 2.3530                 3.4421
 Frc consts  --      0.3787                 0.3967                 0.6559
 IR Inten    --      0.6972                50.1975                37.6318

                     28                     29                     30
                      A                      A                      A
 Frequencies --    584.0524               631.8396               637.2539
 Red. masses --      2.5381                 2.6569                 3.8073
 Frc consts  --      0.5101                 0.6249                 0.9110
 IR Inten    --     11.2645                19.7661                15.5598

                     31                     32                     33
                      A                      A                      A
 Frequencies --    666.2751               713.9523               717.3971
 Red. masses --      4.6489                 3.5238                 2.2283
 Frc consts  --      1.2159                 1.0583                 0.6757
 IR Inten    --     17.5809                10.5802                25.3149

                     34                     35                     36
                      A                      A                      A
 Frequencies --    771.7333               782.3556               800.8734
 Red. masses --      1.7292                 2.3752                 3.5658
 Frc consts  --      0.6068                 0.8566                 1.3475
 IR Inten    --     34.5190                 2.6262                54.3691

                     37                     38                     39
                      A                      A                      A
 Frequencies --    847.5798               858.6643               867.4190
 Red. masses --      2.4931                 2.2916                 1.4832
 Frc consts  --      1.0552                 0.9955                 0.6575
 IR Inten    --     37.6285                31.4049                 2.6277

                     40                     41                     42
                      A                      A                      A
 Frequencies --    886.2648               928.6486               936.0729
 Red. masses --      1.4673                 1.9770                 1.9792
 Frc consts  --      0.6791                 1.0045                 1.0218
 IR Inten    --    162.1106                40.5817                 3.5827

                     43                     44                     45
                      A                      A                      A
 Frequencies --    951.5223               958.8456               969.5980
 Red. masses --      2.1313                 1.7357                 2.0010
 Frc consts  --      1.1369                 0.9402                 1.1083
 IR Inten    --      7.2321                 4.8769                11.1561

                     46                     47                     48
                      A                      A                      A
 Frequencies --    984.2874              1012.4985              1015.3413
 Red. masses --      1.3154                 1.9471                 1.2881
 Frc consts  --      0.7509                 1.1761                 0.7824
 IR Inten    --      1.6904                 9.1280                 2.9175

                     49                     50                     51
                      A                      A                      A
 Frequencies --   1022.8318              1053.5620              1061.0612
 Red. masses --      6.1530                 1.5442                 2.0953
 Frc consts  --      3.7927                 1.0099                 1.3899
 IR Inten    --      0.3876                 9.7820                 3.2544

                     52                     53                     54
                      A                      A                      A
 Frequencies --   1100.5356              1114.7737              1117.1760
 Red. masses --      4.8956                 1.8156                 1.5715
 Frc consts  --      3.4935                 1.3293                 1.1556
 IR Inten    --     79.3504                24.5232                10.8254

                     55                     56                     57
                      A                      A                      A
 Frequencies --   1147.1852              1173.1863              1195.4506
 Red. masses --      1.5755                 1.4014                 1.0995
 Frc consts  --      1.2216                 1.1365                 0.9258
 IR Inten    --     13.6607                79.3271                 0.1317

                     58                     59                     60
                      A                      A                      A
 Frequencies --   1216.8056              1228.7948              1251.3202
 Red. masses --      1.1384                 1.1976                 2.1097
 Frc consts  --      0.9931                 1.0654                 1.9463
 IR Inten    --      3.0293                 9.0791                29.7756

                     61                     62                     63
                      A                      A                      A
 Frequencies --   1266.1118              1274.6208              1285.7278
 Red. masses --      1.8954                 1.2445                 1.6054
 Frc consts  --      1.7902                 1.1913                 1.5636
 IR Inten    --     21.5722                28.6742                 8.2516

                     64                     65                     66
                      A                      A                      A
 Frequencies --   1307.4477              1332.6667              1348.3985
 Red. masses --      2.4752                 1.5149                 3.5390
 Frc consts  --      2.4929                 1.5852                 3.7911
 IR Inten    --     99.8729                27.8182                 2.9030

                     67                     68                     69
                      A                      A                      A
 Frequencies --   1359.8668              1372.0651              1405.3659
 Red. masses --      1.4443                 1.7227                 2.2576
 Frc consts  --      1.5736                 1.9107                 2.6271
 IR Inten    --     14.1256                 5.3427               278.3726

                     70                     71                     72
                      A                      A                      A
 Frequencies --   1407.9182              1428.2828              1449.8618
 Red. masses --      1.3202                 1.2208                 1.4058
 Frc consts  --      1.5419                 1.4673                 1.7411
 IR Inten    --      5.4741                 2.1317                20.3903

                     73                     74                     75
                      A                      A                      A
 Frequencies --   1459.2405              1480.8642              1488.0748
 Red. masses --      1.8541                 1.2983                 1.0924
 Frc consts  --      2.3262                 1.6775                 1.4252
 IR Inten    --     20.8050                72.5498                17.7396

                     76                     77                     78
                      A                      A                      A
 Frequencies --   1515.9601              1518.6434              1526.5620
 Red. masses --      2.2636                 1.0498                 1.0737
 Frc consts  --      3.0650                 1.4265                 1.4743
 IR Inten    --      5.2171                 1.6632                 3.4286

                     79                     80                     81
                      A                      A                      A
 Frequencies --   1537.1542              1551.7909              1648.9898
 Red. masses --      1.0499                 2.3677                 5.7265
 Frc consts  --      1.4617                 3.3592                 9.1743
 IR Inten    --      8.0115                65.2893                 4.5874

                     82                     83                     84
                      A                      A                      A
 Frequencies --   1662.6492              1717.8869              1753.8017
 Red. masses --      5.4923                 1.1100                 6.6657
 Frc consts  --      8.9456                 1.9301                12.0797
 IR Inten    --     40.1336                92.2076               509.6312

                     85                     86                     87
                      A                      A                      A
 Frequencies --   3033.9038              3050.9530              3060.5855
 Red. masses --      1.0831                 1.0384                 1.0629
 Frc consts  --      5.8738                 5.6948                 5.8661
 IR Inten    --     29.6497                21.6424                25.1508

                     88                     89                     90
                      A                      A                      A
 Frequencies --   3089.0737              3101.7461              3112.6973
 Red. masses --      1.0975                 1.0653                 1.1005
 Frc consts  --      6.1705                 6.0386                 6.2824
 IR Inten    --     12.4172                11.3601                50.4122

                     91                     92                     93
                      A                      A                      A
 Frequencies --   3117.7132              3142.1921              3156.6032
 Red. masses --      1.0589                 1.1012                 1.1056
 Frc consts  --      6.0642                 6.4057                 6.4908
 IR Inten    --      0.6805                23.3237                 0.4928

                     94                     95                     96
                      A                      A                      A
 Frequencies --   3184.9997              3189.6122              3197.8237
 Red. masses --      1.1064                 1.0860                 1.0888
 Frc consts  --      6.6129                 6.5096                 6.5603
 IR Inten    --      2.3007                 1.2646                 6.5155

                     97                     98                     99
                      A                      A                      A
 Frequencies --   3206.4812              3215.5833              3220.8309
 Red. masses --      1.0926                 1.0952                 1.0974
 Frc consts  --      6.6188                 6.6722                 6.7072
 IR Inten    --     26.1217                 2.4820                32.6285

                    100                    101                    102
                      A                      A                      A
 Frequencies --   3450.6491              3545.8454              3573.3703
 Red. masses --      1.0493                 1.0939                 1.0752
 Frc consts  --      7.3612                 8.1031                 8.0893
 IR Inten    --     32.9504                48.4958                41.5843

 - Thermochemistry -
 -------------------
 Temperature   298.150 Kelvin.  Pressure   1.00000 Atm.
 Atom     1 has atomic number  6 and mass  12.00000

 Molecular mass:   270.10381 amu.
 Principal axes and moments of inertia in atomic units:
                           1         2         3
     Eigenvalues --  2232.287028902.76054**********
           X            0.99998   0.00562  -0.00311
           Y           -0.00560   0.99996   0.00708
           Z            0.00315  -0.00707   0.99997
 This molecule is an asymmetric top.
 Rotational symmetry number  1.
 Warning -- assumption of classical behavior for rotation
           may cause significant error
 Rotational temperatures (Kelvin)      0.03880     0.00973     0.00853
 Rotational constants (GHZ):           0.80847     0.20272     0.17766
 Zero-point vibrational energy     786362.4 (Joules/Mol)
                                  187.94513 (Kcal/Mol)
 Warning -- explicit consideration of  28 degrees of freedom as
           vibrations may cause significant error
 Vibrational temperatures:     46.62    51.79    68.43    92.50   120.40
          (Kelvin)            127.55   180.08   188.07   227.07   248.72
                              302.35   335.58   363.41   403.54   444.90
                              509.83   541.67   557.38   582.02   589.47
                              605.84   613.99   623.78   694.17   703.64
                              769.60   818.23   840.32   909.08   916.87
                              958.62  1027.22  1032.17  1110.35  1125.64
                             1152.28  1219.48  1235.43  1248.02  1275.14
                             1336.12  1346.80  1369.03  1379.57  1395.04
                             1416.17  1456.76  1460.85  1471.63  1515.84
                             1526.63  1583.43  1603.91  1607.37  1650.54
                             1687.95  1719.99  1750.71  1767.96  1800.37
                             1821.65  1833.90  1849.88  1881.13  1917.41
                             1940.04  1956.55  1974.10  2022.01  2025.68
                             2054.98  2086.03  2099.52  2130.63  2141.01
                             2181.13  2184.99  2196.38  2211.62  2232.68
                             2372.53  2392.18  2471.66  2523.33  4365.11
                             4389.64  4403.50  4444.49  4462.72  4478.48
                             4485.69  4520.91  4541.65  4582.50  4589.14
                             4600.96  4613.41  4626.51  4634.06  4964.71
                             5101.68  5141.28

 Zero-point correction=                           0.299510 (Hartree/Particle)
 Thermal correction to Energy=                    0.317599
 Thermal correction to Enthalpy=                  0.318543
 Thermal correction to Gibbs Free Energy=         0.252399
 Sum of electronic and zero-point Energies=          -1201.209184
 Sum of electronic and thermal Energies=             -1201.191095
 Sum of electronic and thermal Enthalpies=           -1201.190150
 Sum of electronic and thermal Free Energies=        -1201.256295

                     E (Thermal)             CV                S
                      KCal/Mol        Cal/Mol-Kelvin    Cal/Mol-Kelvin
 Total                  199.296             69.005            139.212
 Electronic               0.000              0.000              0.000
 Translational            0.889              2.981             42.680
 Rotational               0.889              2.981             33.667
 Vibrational            197.519             63.044             62.865
 Vibration     1          0.594              1.983              5.677
 Vibration     2          0.594              1.982              5.468
 Vibration     3          0.595              1.979              4.916
 Vibration     4          0.597              1.971              4.321
 Vibration     5          0.601              1.960              3.803
 Vibration     6          0.601              1.957              3.690
 Vibration     7          0.610              1.928              3.019
 Vibration     8          0.612              1.923              2.936
 Vibration     9          0.621              1.894              2.576
 Vibration    10          0.626              1.876              2.404
 Vibration    11          0.642              1.825              2.042
 Vibration    12          0.654              1.790              1.854
 Vibration    13          0.664              1.758              1.712
 Vibration    14          0.680              1.710              1.531
 Vibration    15          0.699              1.656              1.366
 Vibration    16          0.730              1.566              1.147
 Vibration    17          0.747              1.520              1.053
 Vibration    18          0.756              1.497              1.010
 Vibration    19          0.770              1.460              0.946
 Vibration    20          0.774              1.449              0.928
 Vibration    21          0.784              1.424              0.888
 Vibration    22          0.788              1.412              0.869
 Vibration    23          0.794              1.397              0.847
 Vibration    24          0.839              1.289              0.703
 Vibration    25          0.845              1.274              0.686
 Vibration    26          0.890              1.173              0.576
 Vibration    27          0.925              1.099              0.507
 Vibration    28          0.941              1.066              0.478

 Optimization completed.
    -- Stationary point found.
 Normal termination of Gaussian 16 at Fri Dec 11 19:14:50 2020.

 ----------------------------------------------------------------------
 # B3LYP/6-311++G(d,p) empiricaldispersion=gd3bj scf=xqc pop=npa geom=c
 heck
 ----------------------------------------------------------------------

 --------------------------------------
 CID_81194501_JID_8040_Energie_neutraal
 --------------------------------------
 Structure from the checkpoint file:  "JID_8040.chk"
 Charge =  0 Multiplicity = 1

 SCF Done:  E(RB3LYP) =  -1201.77260727     A.U. after   16 cycles
 Normal termination of Gaussian 16 at Fri Dec 11 19:21:14 2020.

 ----------------------------------------------------------------------
 # B3LYP/6-311++G(d,p) empiricaldispersion=gd3bj scf=xqc pop=npa geom=c
 heck
 ----------------------------------------------------------------------

 ------------------------------------
 CID_81194501_JID_8040_Energie_kation
 ------------------------------------
 Structure from the checkpoint file:  "JID_8040.chk"
 Charge =  1 Multiplicity = 2

 SCF Done:  E(UB3LYP) =  -1201.46314855     A.U. after   32 cycles
 Normal termination of Gaussian 16 at Fri Dec 11 19:38:24 2020.
 Gaussian 16:  ES64L-G16RevA.03 25-Dec-2016

 ----------------------------------------------------------------------
 # B3LYP/6-311++G(d,p) empiricaldispersion=gd3bj scf=xqc pop=npa geom=c
 heck
 ----------------------------------------------------------------------

 -----------------------------------
 CID_81194501_JID_8040_Energie_anion
 -----------------------------------
 Structure from the checkpoint file:  "JID_8040.chk"
 Charge = -1 Multiplicity = 2

                         Standard orientation:
 ---------------------------------------------------------------------
 Center     Atomic      Atomic             Coordinates (Angstroms)
 Number     Number       Type             X           Y           Z
 ---------------------------------------------------------------------
      1          6           0       -4.915604   -0.961838    0.595210
      2          6           0       -4.133259   -0.634949   -0.679156
      3          6           0       -3.432736    0.744029   -0.598443
      4          6           0       -2.450714    0.881828    0.577717
      5         16           0       -0.789501    1.425602    0.097583
      6          8           0       -0.871764    2.427931   -0.975923
      7          8           0       -0.044484    1.718191    1.336640
      8          6           0       -0.043729   -0.068676   -0.657685
      9          6           0        0.218219   -1.156515    0.365765
     10          8           0       -0.712289   -1.791491    0.863590
     11          7           0        1.510727   -1.431725    0.694055
     12          6           0        2.713699   -0.785567    0.283091
     13          6           0        3.739069   -1.563928   -0.264288
     14          6           0        4.935600   -0.962199   -0.648310
     15          6           0        5.104757    0.416388   -0.504383
     16          6           0        4.079025    1.187146    0.043650
     17          6           0        2.887046    0.591553    0.456991
     18          7           0       -3.257322   -1.761768   -1.002836
     19          1           0       -4.243901   -1.104962    1.450404
     20          1           0       -5.475803   -1.890703    0.459256
     21          1           0       -5.615637   -0.157276    0.847225
     22          1           0       -4.855911   -0.556196   -1.502676
     23          1           0       -2.916169    0.932226   -1.547106
     24          1           0       -4.186726    1.535501   -0.519146
     25          1           0       -2.756017    1.638778    1.305207
     26          1           0       -2.278889   -0.054234    1.114331
     27          1           0       -0.769336   -0.440083   -1.384374
     28          1           0        0.845666    0.294507   -1.173192
     29          1           0        1.593330   -2.228208    1.316963
     30          1           0        3.588829   -2.631963   -0.394563
     31          1           0        5.730428   -1.569408   -1.071361
     32          1           0        6.034065    0.885481   -0.813427
     33          1           0        4.208398    2.257833    0.170239
     34          1           0        2.101088    1.178428    0.921308
     35          1           0       -2.793862   -1.612185   -1.897226
     36          1           0       -2.531323   -1.893382   -0.297128
 ---------------------------------------------------------------------

 SCF Done:  E(UB3LYP) =  -1201.77006455     A.U. after   33 cycles
 SCF Done:  E(UB3LYP) =  -1201.77006455     a.u. after    1 cycles

 The electronic state is 2-A.
 Alpha  occ. eigenvalues --  -88.93374 -19.00856 -19.00760 -18.97151 -14.23190
 Alpha  occ. eigenvalues --  -14.18877 -10.15198 -10.10813 -10.10460 -10.10296
 Alpha  occ. eigenvalues --  -10.09355 -10.08296 -10.06957 -10.06434 -10.05918
 Alpha  occ. eigenvalues --  -10.05900 -10.05834 -10.05585  -7.99961  -5.96213
 Alpha  occ. eigenvalues --   -5.96106  -5.96045  -0.99976  -0.92713  -0.89707
 Alpha  occ. eigenvalues --   -0.82225  -0.79159  -0.73676  -0.70698  -0.67182
 Alpha  occ. eigenvalues --   -0.63964  -0.63634  -0.63032  -0.58135  -0.52470
 Alpha  occ. eigenvalues --   -0.50643  -0.50054  -0.47993  -0.45866  -0.42879
 Alpha  occ. eigenvalues --   -0.41600  -0.40103  -0.39166  -0.38481  -0.37698
 Alpha  occ. eigenvalues --   -0.36354  -0.35605  -0.34861  -0.34565  -0.33541
 Alpha  occ. eigenvalues --   -0.32050  -0.31762  -0.31299  -0.30778  -0.29963
 Alpha  occ. eigenvalues --   -0.28927  -0.28592  -0.26902  -0.26151  -0.25735
 Alpha  occ. eigenvalues --   -0.25384  -0.24313  -0.24178  -0.22717  -0.21424
 Alpha  occ. eigenvalues --   -0.19983  -0.18532  -0.18160  -0.15805  -0.15047
 Alpha  occ. eigenvalues --   -0.13971  -0.12828   0.04565
 Alpha virt. eigenvalues --    0.05903   0.07283   0.07929   0.08470   0.08912
 Alpha virt. eigenvalues --    0.09093   0.09208   0.09575   0.10088   0.11020
 Alpha virt. eigenvalues --    0.11070   0.11730   0.12034   0.12625   0.12754

  Beta  occ. eigenvalues --  -88.93333 -19.00823 -19.00752 -18.96920 -14.23239
  Beta  occ. eigenvalues --  -14.18876 -10.14868 -10.10807 -10.10440 -10.10293
  Beta  occ. eigenvalues --  -10.09152 -10.08284 -10.07012 -10.06412 -10.05886
  Beta  occ. eigenvalues --  -10.05799 -10.05758 -10.05402  -7.99914  -5.96182
  Beta  occ. eigenvalues --   -5.96042  -5.95995  -0.99891  -0.92258  -0.89649
  Beta  occ. eigenvalues --   -0.82006  -0.79149  -0.73461  -0.70625  -0.67002
  Beta  occ. eigenvalues --   -0.63797  -0.63503  -0.62733  -0.58057  -0.52147
  Beta  occ. eigenvalues --   -0.50360  -0.49878  -0.47853  -0.45722  -0.42771
  Beta  occ. eigenvalues --   -0.41474  -0.40017  -0.39032  -0.38352  -0.37491
  Beta  occ. eigenvalues --   -0.36229  -0.35532  -0.34776  -0.34397  -0.33412
  Beta  occ. eigenvalues --   -0.31959  -0.31650  -0.31220  -0.30730  -0.29747
  Beta  occ. eigenvalues --   -0.28545  -0.28096  -0.26849  -0.25754  -0.25432
  Beta  occ. eigenvalues --   -0.25222  -0.24277  -0.24027  -0.22639  -0.21349
  Beta  occ. eigenvalues --   -0.19945  -0.18425  -0.17354  -0.15613  -0.14472
  Beta  occ. eigenvalues --   -0.13921  -0.11983
  Beta virt. eigenvalues --    0.06496   0.07208   0.08140   0.08461   0.08942
  Beta virt. eigenvalues --    0.09087   0.09196   0.09374   0.10102   0.10770
  Beta virt. eigenvalues --    0.11113   0.11493   0.11674   0.12203   0.12695

 Mulliken charges and spin densities:
               1          2
     1  C    0.222185  -0.790275
     2  C   -0.449608   0.321744
     3  C   -0.030641  -0.445004
     4  C   -0.379310  -0.062870
     5  S    0.131834   0.079797
     6  O   -0.108994   0.015153
     7  O   -0.114582   0.008110
     8  C   -0.522823  -0.030711
     9  C   -0.159980   0.188286
    10  O   -0.380487   0.082132
    11  N   -0.147740  -0.028637
    12  C   -0.414128  -0.012847
    13  C   -0.109181   0.198033
    14  C   -0.165889  -0.040235
    15  C   -0.407956   0.138509
    16  C   -0.065129   0.083675
    17  C    0.067679   0.000655
    18  N   -0.303582  -0.019655
    19  H    0.050257   0.096339
    20  H    0.052885   0.102958
    21  H   -0.214716   0.344621
    22  H   -0.118534   0.287715
    23  H    0.206437  -0.012601
    24  H   -0.148638   0.328668
    25  H    0.112589   0.129994
    26  H    0.314944  -0.015153
    27  H    0.241725   0.021975
    28  H    0.260554  -0.001859
    29  H    0.268057   0.041771
    30  H    0.112912   0.014311
    31  H    0.134448   0.003432
    32  H    0.110199  -0.010770
    33  H    0.154315  -0.007176
    34  H    0.261232   0.006123
    35  H    0.200176   0.019518
    36  H    0.339490  -0.035725
 Sum of Mulliken charges =  -1.00000   1.00000

 Dipole moment (field-independent basis, Debye):
    X=              2.3578    Y=             -1.0543    Z=             -1.5136  Tot=              2.9936
 Quadrupole moment (field-independent basis, Debye-Ang):
   XX=           -192.8757   YY=           -150.5954   ZZ=           -133.9125
   XY=             -3.4786   XZ=             -0.8855   YZ=              2.0739

 Summary of Natural Population Analysis:

                                       Natural Population
                Natural  -----------------------------------------------
    Atom  No    Charge         Core      Valence    Rydberg      Total
 -----------------------------------------------------------------------
      C    1   -0.29059      0.99964     2.28452    0.00643     3.29059
      C    2   -0.01354      0.99962     2.00119    0.01273     3.01354
      C    3   -0.20879      0.99960     2.19822    0.01098     3.20879
      C    4   -0.30287      0.99957     2.29055    0.01274     3.30287
      S    5    1.03311      4.99928     1.87441    0.09320     6.96689
      O    6   -0.47070      0.99991     3.46511    0.00568     4.47070
      O    7   -0.47144      0.99991     3.46571    0.00582     4.47144
      C    8   -0.33070      0.99954     2.32098    0.01017     3.33070
      C    9    0.37617      0.99967     1.60070    0.02346     2.62383
      O   10   -0.32382      0.99987     3.31835    0.00560     4.32382
      N   11   -0.31355      0.99964     2.80416    0.00975     3.81355
      C   12    0.09404      0.99946     1.89564    0.01086     2.90596
      C   13   -0.08969      0.99952     2.07914    0.01103     3.08969
      C   14   -0.11300      0.99958     2.10488    0.00855     3.11300
      C   15   -0.08157      0.99957     2.07281    0.00919     3.08157
      C   16   -0.08434      0.99958     2.07581    0.00895     3.08434
      C   17   -0.12226      0.99952     2.11454    0.00820     3.12226
      N   18   -0.43405      0.99976     2.92478    0.00950     3.93405
      H   19    0.09844      0.00000     0.40068    0.00088     0.40156
      H   20    0.10354      0.00000     0.39553    0.00093     0.39646
      H   21    0.09886      0.00000     0.40012    0.00103     0.40114
      H   22    0.08761      0.00000     0.41066    0.00173     0.41239
      H   23    0.10584      0.00000     0.39288    0.00128     0.39416
      H   24    0.10439      0.00000     0.39445    0.00116     0.39561
      H   25    0.11797      0.00000     0.38078    0.00126     0.38203
      H   26    0.13030      0.00000     0.36819    0.00152     0.36970
      H   27    0.11784      0.00000     0.38073    0.00143     0.38216
      H   28    0.12634      0.00000     0.37241    0.00125     0.37366
      H   29    0.19768      0.00000     0.30069    0.00163     0.30232
      H   30    0.09698      0.00000     0.40218    0.00084     0.40302
      H   31    0.09398      0.00000     0.40511    0.00091     0.40602
      H   32    0.09121      0.00000     0.40779    0.00100     0.40879
      H   33    0.09502      0.00000     0.40403    0.00095     0.40498
      H   34    0.11938      0.00000     0.37940    0.00122     0.38062
      H   35    0.16869      0.00000     0.32946    0.00185     0.33131
      H   36    0.19351      0.00000     0.30425    0.00224     0.30649
 =======================================================================
   * Total *   -0.00000     21.99325    49.72081    0.28594    72.00000

 Normal termination of Gaussian 16 at Fri Dec 11 19:56:36 2020.
