 Gaussian 16, Revision A.03,

 -----------------------------------------------------------
 # opt freq B3LYP/6-31G(d) empiricaldispersion=gd3bj scf=xqc
 -----------------------------------------------------------

 ------------------------------
 CID_90875521_JID_1977_neutraal
 ------------------------------
 Symbolic Z-matrix:
 Charge =  0 Multiplicity = 1

 SCF Done:  E(RB3LYP) =  -553.836292369     A.U. after   15 cycles
 SCF Done:  E(RB3LYP) =  -553.841227394     A.U. after   12 cycles
 SCF Done:  E(RB3LYP) =  -553.841897699     A.U. after   11 cycles
 SCF Done:  E(RB3LYP) =  -553.841866750     A.U. after   11 cycles
 SCF Done:  E(RB3LYP) =  -553.841978001     A.U. after   10 cycles
 SCF Done:  E(RB3LYP) =  -553.841997710     A.U. after   10 cycles
 SCF Done:  E(RB3LYP) =  -553.841998583     A.U. after    8 cycles
 SCF Done:  E(RB3LYP) =  -553.841998988     A.U. after    7 cycles
 Optimization completed.
    -- Stationary point found.
 Normal termination of Gaussian 16 at Tue Dec  8 21:37:40 2020.

 --------------------------------------------------------------------
 #N Geom=AllCheck Guess=TCheck SCRF=Check GenChk RB3LYP/6-31G(d) Freq
 --------------------------------------------------------------------

 Structure from the checkpoint file:  "JID_1977.chk"
 ------------------------------
 CID_90875521_JID_1977_neutraal
 ------------------------------
 Charge =  0 Multiplicity = 1

 SCF Done:  E(RB3LYP) =  -553.841998988     A.U. after    1 cycles

  Exact polarizability: 111.689   4.339  79.789   1.843  -1.142  67.011
 Approx polarizability: 140.880  18.658 138.290   3.146  -5.045  91.816

                      1                      2                      3
                      A                      A                      A
 Frequencies --     56.0783                78.5107               120.3950
 Red. masses --      3.3536                 2.6941                 4.9199
 Frc consts  --      0.0062                 0.0098                 0.0420
 IR Inten    --      3.0071                 0.5529                 0.0177

                      4                      5                      6
                      A                      A                      A
 Frequencies --    182.0382               192.4419               215.3868
 Red. masses --      4.5598                 1.8816                 1.1318
 Frc consts  --      0.0890                 0.0411                 0.0309
 IR Inten    --      2.5320                 3.4446                 0.0238

                      7                      8                      9
                      A                      A                      A
 Frequencies --    217.0060               237.1387               272.0393
 Red. masses --      2.7691                 1.2071                 1.5474
 Frc consts  --      0.0768                 0.0400                 0.0675
 IR Inten    --      2.5605                 3.5838                 2.5670

                     10                     11                     12
                      A                      A                      A
 Frequencies --    296.3313               304.7314               390.8700
 Red. masses --      2.3727                 2.3817                 3.4217
 Frc consts  --      0.1228                 0.1303                 0.3080
 IR Inten    --      3.1906                 1.6061                 5.1536

                     13                     14                     15
                      A                      A                      A
 Frequencies --    451.4490               492.8018               590.0450
 Red. masses --      4.3625                 3.5366                 4.2778
 Frc consts  --      0.5238                 0.5060                 0.8775
 IR Inten    --      3.8879                 0.6540                 1.4933

                     16                     17                     18
                      A                      A                      A
 Frequencies --    626.8656               671.0777               746.4533
 Red. masses --      5.5415                 4.6821                 9.1071
 Frc consts  --      1.2830                 1.2423                 2.9898
 IR Inten    --      8.1974                17.4335                 3.9607

                     19                     20                     21
                      A                      A                      A
 Frequencies --    780.2549               783.9877               825.6505
 Red. masses --      5.6023                 8.6215                 1.2298
 Frc consts  --      2.0095                 3.1221                 0.4939
 IR Inten    --      1.4133                16.8405                 1.7485

                     22                     23                     24
                      A                      A                      A
 Frequencies --    852.1852               934.5003               964.3353
 Red. masses --      3.5338                 2.9129                 1.4415
 Frc consts  --      1.5120                 1.4988                 0.7898
 IR Inten    --     72.1115                 1.3229                 0.9971

                     25                     26                     27
                      A                      A                      A
 Frequencies --    976.1036              1022.1037              1037.8727
 Red. masses --      2.3802                 3.4825                 1.3221
 Frc consts  --      1.3361                 2.1435                 0.8391
 IR Inten    --     25.2745                55.6878                 0.9204

                     28                     29                     30
                      A                      A                      A
 Frequencies --   1073.9613              1130.4939              1162.5879
 Red. masses --      5.5644                 2.0206                 2.7532
 Frc consts  --      3.7814                 1.5215                 2.1925
 IR Inten    --     44.7178                45.5958                 7.4830

                     31                     32                     33
                      A                      A                      A
 Frequencies --   1206.3823              1230.3964              1235.8111
 Red. masses --      2.1374                 2.8506                 3.8226
 Frc consts  --      1.8327                 2.5426                 3.4397
 IR Inten    --    163.5746                68.1064                 8.8584

                     34                     35                     36
                      A                      A                      A
 Frequencies --   1297.5994              1343.3299              1399.4750
 Red. masses --      3.3272                 1.1386                 1.4002
 Frc consts  --      3.3008                 1.2106                 1.6157
 IR Inten    --      1.1469                 3.1869               222.8886

                     37                     38                     39
                      A                      A                      A
 Frequencies --   1424.4260              1437.9235              1441.0734
 Red. masses --      1.2649                 1.3793                 1.2459
 Frc consts  --      1.5121                 1.6802                 1.5245
 IR Inten    --      8.8006                79.2611                53.6238

                     40                     41                     42
                      A                      A                      A
 Frequencies --   1471.3848              1507.7821              1510.8669
 Red. masses --      3.3250                 1.0481                 1.0449
 Frc consts  --      4.2413                 1.4039                 1.4054
 IR Inten    --    302.6934                 3.4180                 0.0196

                     43                     44                     45
                      A                      A                      A
 Frequencies --   1513.3715              1518.9428              1526.2476
 Red. masses --      1.0785                 1.1080                 1.0786
 Frc consts  --      1.4554                 1.5061                 1.4803
 IR Inten    --     24.7325                 9.5851                25.0591

                     46                     47                     48
                      A                      A                      A
 Frequencies --   1534.8497              1537.5226              1638.1951
 Red. masses --      1.0594                 1.0686                 7.1110
 Frc consts  --      1.4704                 1.4884                11.2438
 IR Inten    --     10.4414                15.2821               762.1209

                     49                     50                     51
                      A                      A                      A
 Frequencies --   1861.3253              3063.8641              3065.4993
 Red. masses --     12.5556                 1.0338                 1.0361
 Frc consts  --     25.6291                 5.7180                 5.7367
 IR Inten    --    160.0004                14.0822                13.9125

                     52                     53                     54
                      A                      A                      A
 Frequencies --   3067.2058              3106.9993              3133.5758
 Red. masses --      1.0347                 1.0600                 1.1002
 Frc consts  --      5.7353                 6.0291                 6.3650
 IR Inten    --     10.6995                20.6554                23.9582

                     55                     56                     57
                      A                      A                      A
 Frequencies --   3138.5280              3140.5053              3147.3265
 Red. masses --      1.1046                 1.1040                 1.1032
 Frc consts  --      6.4106                 6.4152                 6.4383
 IR Inten    --      8.5124                26.5147                 3.5778

                     58                     59                     60
                      A                      A                      A
 Frequencies --   3150.3213              3151.8284              3171.8305
 Red. masses --      1.1039                 1.1027                 1.1101
 Frc consts  --      6.4548                 6.4539                 6.5799
 IR Inten    --      3.1561                12.3390                22.1450

 - Thermochemistry -
 -------------------
 Temperature   298.150 Kelvin.  Pressure   1.00000 Atm.
 Atom     1 has atomic number  6 and mass  12.00000

 Molecular mass:   157.07389 amu.
 Principal axes and moments of inertia in atomic units:
                           1         2         3
     Eigenvalues --   833.927372514.551502804.33462
           X            0.99950  -0.03133  -0.00295
           Y            0.03140   0.99904   0.03066
           Z            0.00199  -0.03074   0.99953
 This molecule is an asymmetric top.
 Rotational symmetry number  1.
 Warning -- assumption of classical behavior for rotation
           may cause significant error
 Rotational temperatures (Kelvin)      0.10386     0.03445     0.03089
 Rotational constants (GHZ):           2.16415     0.71772     0.64355
 Zero-point vibrational energy     476473.1 (Joules/Mol)
                                  113.87981 (Kcal/Mol)
 Warning -- explicit consideration of  15 degrees of freedom as
           vibrations may cause significant error
 Vibrational temperatures:     80.68   112.96   173.22   261.91   276.88
          (Kelvin)            309.89   312.22   341.19   391.40   426.35
                              438.44   562.37   649.53   709.03   848.94
                              901.92   965.53  1073.98  1122.61  1127.98
                             1187.93  1226.10  1344.54  1387.46  1404.40
                             1470.58  1493.27  1545.19  1626.53  1672.70
                             1735.72  1770.27  1778.06  1866.96  1932.75
                             2013.53  2049.43  2068.85  2073.38  2116.99
                             2169.36  2173.80  2177.40  2185.42  2195.93
                             2208.31  2212.15  2357.00  2678.03  4408.22
                             4410.57  4413.02  4470.28  4508.52  4515.64
                             4518.49  4528.30  4532.61  4534.78  4563.56

 Zero-point correction=                           0.181479 (Hartree/Particle)
 Thermal correction to Energy=                    0.192685
 Thermal correction to Enthalpy=                  0.193629
 Thermal correction to Gibbs Free Energy=         0.144552
 Sum of electronic and zero-point Energies=           -553.660520
 Sum of electronic and thermal Energies=              -553.649314
 Sum of electronic and thermal Enthalpies=            -553.648370
 Sum of electronic and thermal Free Energies=         -553.697447

                     E (Thermal)             CV                S
                      KCal/Mol        Cal/Mol-Kelvin    Cal/Mol-Kelvin
 Total                  120.911             40.972            103.291
 Electronic               0.000              0.000              0.000
 Translational            0.889              2.981             41.064
 Rotational               0.889              2.981             30.154
 Vibrational            119.134             35.010             32.074
 Vibration     1          0.596              1.975              4.591
 Vibration     2          0.600              1.964              3.928
 Vibration     3          0.609              1.932              3.094
 Vibration     4          0.630              1.864              2.307
 Vibration     5          0.634              1.850              2.204
 Vibration     6          0.645              1.818              1.998
 Vibration     7          0.646              1.815              1.984
 Vibration     8          0.656              1.784              1.824
 Vibration     9          0.675              1.725              1.583
 Vibration    10          0.690              1.681              1.438
 Vibration    11          0.696              1.665              1.391
 Vibration    12          0.759              1.490              0.997
 Vibration    13          0.810              1.358              0.791
 Vibration    14          0.848              1.266              0.676
 Vibration    15          0.947              1.053              0.467

 Optimization completed.
    -- Stationary point found.
 Normal termination of Gaussian 16 at Tue Dec  8 21:42:14 2020.

 ----------------------------------------------------------------------
 # B3LYP/6-311++G(d,p) empiricaldispersion=gd3bj scf=xqc pop=npa geom=c
 heck
 ----------------------------------------------------------------------

 --------------------------------------
 CID_90875521_JID_1977_Energie_neutraal
 --------------------------------------
 Structure from the checkpoint file:  "JID_1977.chk"
 Charge =  0 Multiplicity = 1

 SCF Done:  E(RB3LYP) =  -554.002901405     A.U. after   14 cycles
 Normal termination of Gaussian 16 at Tue Dec  8 21:43:47 2020.

 ----------------------------------------------------------------------
 # B3LYP/6-311++G(d,p) empiricaldispersion=gd3bj scf=xqc pop=npa geom=c
 heck
 ----------------------------------------------------------------------

 ------------------------------------
 CID_90875521_JID_1977_Energie_kation
 ------------------------------------
 Structure from the checkpoint file:  "JID_1977.chk"
 Charge =  1 Multiplicity = 2

 SCF Done:  E(UB3LYP) =  -553.658703517     A.U. after   22 cycles
 Normal termination of Gaussian 16 at Tue Dec  8 21:47:55 2020.
 Gaussian 16:  ES64L-G16RevA.03 25-Dec-2016

 ----------------------------------------------------------------------
 # B3LYP/6-311++G(d,p) empiricaldispersion=gd3bj scf=xqc pop=npa geom=c
 heck
 ----------------------------------------------------------------------

 -----------------------------------
 CID_90875521_JID_1977_Energie_anion
 -----------------------------------
 Structure from the checkpoint file:  "JID_1977.chk"
 Charge = -1 Multiplicity = 2

                         Standard orientation:
 ---------------------------------------------------------------------
 Center     Atomic      Atomic             Coordinates (Angstroms)
 Number     Number       Type             X           Y           Z
 ---------------------------------------------------------------------
      1          6           0       -3.426764    0.503222    0.739929
      2          6           0       -2.935817   -0.181199   -0.521839
      3          8           0       -1.764323   -1.007409   -0.248732
      4          6           0       -0.611637   -0.385079   -0.180044
      5          7           0       -0.398608    0.888958   -0.352021
      6          6           0        0.981438    1.049293   -0.187263
      7          8           0        1.620198    2.075841   -0.261355
      8          6           0        1.597640   -0.336741    0.120137
      9          8           0        0.411346   -1.202354    0.092604
     10          6           0        2.554384   -0.777745   -0.977733
     11          6           0        2.206325   -0.380460    1.513983
     12          1           0       -3.633640   -0.230550    1.525256
     13          1           0       -4.352558    1.047105    0.522294
     14          1           0       -2.683390    1.219317    1.099158
     15          1           0       -3.663023   -0.895657   -0.911322
     16          1           0       -2.671679    0.540790   -1.296994
     17          1           0        3.376804   -0.059031   -1.036451
     18          1           0        2.958716   -1.772171   -0.765124
     19          1           0        2.047029   -0.801845   -1.946895
     20          1           0        1.457821   -0.129203    2.271577
     21          1           0        2.610033   -1.374111    1.731340
     22          1           0        3.012947    0.356286    1.568156
 ---------------------------------------------------------------------

 SCF Done:  E(UB3LYP) =  -553.988936564     A.U. after   33 cycles
 SCF Done:  E(UB3LYP) =  -553.988936564     a.u. after    1 cycles

 The electronic state is 2-A.
 Alpha  occ. eigenvalues --  -19.07898 -19.07309 -18.99034 -14.19559 -10.22109
 Alpha  occ. eigenvalues --  -10.15842 -10.14869 -10.13034 -10.07884 -10.07095
 Alpha  occ. eigenvalues --  -10.06056  -1.04203  -0.97348  -0.93135  -0.80989
 Alpha  occ. eigenvalues --   -0.71369  -0.67104  -0.60964  -0.57829  -0.52705
 Alpha  occ. eigenvalues --   -0.49384  -0.47758  -0.43142  -0.40126  -0.37767
 Alpha  occ. eigenvalues --   -0.36613  -0.34962  -0.34280  -0.32853  -0.31425
 Alpha  occ. eigenvalues --   -0.30654  -0.29749  -0.29109  -0.28123  -0.27791
 Alpha  occ. eigenvalues --   -0.27358  -0.26951  -0.24844  -0.21455  -0.19771
 Alpha  occ. eigenvalues --   -0.16966  -0.14856   0.04780
 Alpha virt. eigenvalues --    0.06617   0.07208   0.08344   0.09224   0.09694
 Alpha virt. eigenvalues --    0.09887   0.10429   0.12237   0.12363   0.12905
 Alpha virt. eigenvalues --    0.13464   0.14193   0.15354   0.15785   0.15882

  Beta  occ. eigenvalues --  -19.07881 -19.07282 -18.98926 -14.19597 -10.21940
  Beta  occ. eigenvalues --  -10.15735 -10.14877 -10.13006 -10.07866 -10.07037
  Beta  occ. eigenvalues --  -10.06011  -1.04088  -0.97292  -0.92943  -0.80937
  Beta  occ. eigenvalues --   -0.71298  -0.67040  -0.60892  -0.57695  -0.52561
  Beta  occ. eigenvalues --   -0.49285  -0.47656  -0.43050  -0.39810  -0.37708
  Beta  occ. eigenvalues --   -0.36547  -0.34838  -0.34203  -0.32755  -0.31282
  Beta  occ. eigenvalues --   -0.30564  -0.29699  -0.28985  -0.28031  -0.27727
  Beta  occ. eigenvalues --   -0.26999  -0.26837  -0.24793  -0.21343  -0.19759
  Beta  occ. eigenvalues --   -0.16755  -0.14786
  Beta virt. eigenvalues --    0.07041   0.07880   0.08389   0.09098   0.09909
  Beta virt. eigenvalues --    0.10160   0.10674   0.10763   0.12587   0.12842
  Beta virt. eigenvalues --    0.13076   0.13698   0.14381   0.15326   0.15814

 Mulliken charges and spin densities:
               1          2
     1  C    1.088465  -1.445272
     2  C    0.089096  -0.319778
     3  O   -0.162103   0.049952
     4  C    0.373341  -0.339849
     5  N   -0.146085   0.036302
     6  C    0.575349  -0.524571
     7  O   -0.381549   0.037625
     8  C   -0.965047   1.141843
     9  O   -0.063782   0.007300
    10  C   -0.496696   0.084454
    11  C    1.166932  -1.608623
    12  H   -0.142390   0.288763
    13  H   -0.646696   0.798313
    14  H   -0.086000   0.247794
    15  H   -0.798089   0.983302
    16  H    0.175832  -0.002214
    17  H    0.103989   0.058419
    18  H    0.015215   0.140190
    19  H    0.012979   0.153458
    20  H   -0.318106   0.494914
    21  H   -0.395212   0.554420
    22  H    0.000556   0.163259
 Sum of Mulliken charges =  -1.00000   1.00000

 Dipole moment (field-independent basis, Debye):
    X=              4.7437    Y=             -1.1797    Z=             -2.2594  Tot=              5.3851
 Quadrupole moment (field-independent basis, Debye-Ang):
   XX=           -139.7959   YY=           -102.9235   ZZ=            -92.5882
   XY=             -1.9281   XZ=             -5.7347   YZ=              4.1624

 Summary of Natural Population Analysis:

                                       Natural Population
                Natural  -----------------------------------------------
    Atom  No    Charge         Core      Valence    Rydberg      Total
 -----------------------------------------------------------------------
      C    1   -0.30175      0.99966     2.29696    0.00513     3.30175
      C    2   -0.01178      0.99957     2.00048    0.01173     3.01178
      O    3   -0.25940      0.99984     3.24989    0.00968     4.25940
      C    4    0.47341      0.99955     1.50302    0.02401     2.52659
      N    5   -0.33506      0.99964     2.82596    0.00945     3.83506
      C    6    0.34501      0.99961     1.62889    0.02649     2.65499
      O    7   -0.29242      0.99987     3.28589    0.00665     4.29242
      C    8    0.08706      0.99951     1.89734    0.01608     2.91294
      O    9   -0.27034      0.99985     3.26149    0.00900     4.27034
      C   10   -0.28851      0.99961     2.28308    0.00582     3.28851
      C   11   -0.29072      0.99961     2.28338    0.00773     3.29072
      H   12    0.10198      0.00000     0.39658    0.00144     0.39802
      H   13    0.10691      0.00000     0.39032    0.00277     0.39309
      H   14    0.10729      0.00000     0.39103    0.00168     0.39271
      H   15    0.09432      0.00000     0.40296    0.00272     0.40568
      H   16    0.09632      0.00000     0.40167    0.00201     0.40368
      H   17    0.10966      0.00000     0.38938    0.00096     0.39034
      H   18    0.10227      0.00000     0.39673    0.00101     0.39773
      H   19    0.10426      0.00000     0.39475    0.00099     0.39574
      H   20    0.10763      0.00000     0.39096    0.00141     0.39237
      H   21    0.10420      0.00000     0.39394    0.00186     0.39580
      H   22    0.10965      0.00000     0.38919    0.00116     0.39035
 =======================================================================
   * Total *   -0.00000     10.99632    30.85390    0.14978    42.00000

 Normal termination of Gaussian 16 at Tue Dec  8 21:52:30 2020.
