 Gaussian 16, Revision A.03,

 -----------------------------------------------------------
 # opt freq B3LYP/6-31G(d) empiricaldispersion=gd3bj scf=xqc
 -----------------------------------------------------------

 ------------------------------
 CID_69400907_JID_8558_neutraal
 ------------------------------
 Symbolic Z-matrix:
 Charge =  0 Multiplicity = 1

 SCF Done:  E(RB3LYP) =  -811.461530667     A.U. after   14 cycles
 SCF Done:  E(RB3LYP) =  -811.478949871     A.U. after   12 cycles
 SCF Done:  E(RB3LYP) =  -811.482077852     A.U. after   15 cycles
 SCF Done:  E(RB3LYP) =  -811.486323908     A.U. after   13 cycles
 SCF Done:  E(RB3LYP) =  -811.485225419     A.U. after   12 cycles
 SCF Done:  E(RB3LYP) =  -811.487791337     A.U. after   13 cycles
 SCF Done:  E(RB3LYP) =  -811.489515984     A.U. after   12 cycles
 SCF Done:  E(RB3LYP) =  -811.490260925     A.U. after   12 cycles
 SCF Done:  E(RB3LYP) =  -811.490570405     A.U. after   12 cycles
 SCF Done:  E(RB3LYP) =  -811.490849906     A.U. after   11 cycles
 SCF Done:  E(RB3LYP) =  -811.490960110     A.U. after    8 cycles
 SCF Done:  E(RB3LYP) =  -811.490961206     A.U. after    8 cycles
 SCF Done:  E(RB3LYP) =  -811.490961931     A.U. after    8 cycles
 SCF Done:  E(RB3LYP) =  -811.490962347     A.U. after    8 cycles
 SCF Done:  E(RB3LYP) =  -811.490962450     A.U. after    7 cycles
 Optimization completed.
    -- Stationary point found.
 Normal termination of Gaussian 16 at Fri Dec 11 21:14:57 2020.

 --------------------------------------------------------------------
 #N Geom=AllCheck Guess=TCheck SCRF=Check GenChk RB3LYP/6-31G(d) Freq
 --------------------------------------------------------------------

 Structure from the checkpoint file:  "JID_8558.chk"
 ------------------------------
 CID_69400907_JID_8558_neutraal
 ------------------------------
 Charge =  0 Multiplicity = 1

 SCF Done:  E(RB3LYP) =  -811.490962450     A.U. after    1 cycles

  Exact polarizability: 216.260  -8.134 193.338   2.185   2.623  83.745
 Approx polarizability: 325.920 -14.165 299.664   6.517   7.020 127.860

                      1                      2                      3
                      A                      A                      A
 Frequencies --     43.1618                48.3027                75.8649
 Red. masses --      4.5384                 3.8919                 3.9919
 Frc consts  --      0.0050                 0.0053                 0.0135
 IR Inten    --      2.1621                 0.1569                 6.6142

                      4                      5                      6
                      A                      A                      A
 Frequencies --    107.4314               116.8270               128.1492
 Red. masses --      1.5448                 1.9049                 4.3344
 Frc consts  --      0.0105                 0.0153                 0.0419
 IR Inten    --      1.7921                 0.5178                 0.9662

                      7                      8                      9
                      A                      A                      A
 Frequencies --    131.9033               152.1699               180.5904
 Red. masses --      4.5828                 3.9455                 2.6630
 Frc consts  --      0.0470                 0.0538                 0.0512
 IR Inten    --      1.7746                 1.6782                 9.4013

                     10                     11                     12
                      A                      A                      A
 Frequencies --    199.5233               257.4132               286.4332
 Red. masses --      4.6802                 5.3271                 3.3418
 Frc consts  --      0.1098                 0.2080                 0.1615
 IR Inten    --      1.4340                 2.5435                 6.6337

                     13                     14                     15
                      A                      A                      A
 Frequencies --    304.1205               324.2374               326.1266
 Red. masses --      3.2720                 3.1541                 4.5832
 Frc consts  --      0.1783                 0.1954                 0.2872
 IR Inten    --      6.8026                 5.9874                 3.2559

                     16                     17                     18
                      A                      A                      A
 Frequencies --    359.5734               377.1523               395.3068
 Red. masses --      3.1915                 1.5981                 3.7473
 Frc consts  --      0.2431                 0.1339                 0.3450
 IR Inten    --     29.5142                72.7453                31.2082

                     19                     20                     21
                      A                      A                      A
 Frequencies --    459.3210               483.5049               512.8807
 Red. masses --      2.6182                 1.3365                 3.6010
 Frc consts  --      0.3255                 0.1841                 0.5581
 IR Inten    --      5.8839                52.3297                 0.3594

                     22                     23                     24
                      A                      A                      A
 Frequencies --    548.5848               633.4565               662.6102
 Red. masses --      3.4836                 5.8462                 6.6875
 Frc consts  --      0.6177                 1.3822                 1.7299
 IR Inten    --     10.8413                 4.5460                 4.3468

                     25                     26                     27
                      A                      A                      A
 Frequencies --    682.9889               688.3831               714.4662
 Red. masses --      6.9398                 3.7951                 3.9345
 Frc consts  --      1.9073                 1.0596                 1.1833
 IR Inten    --      8.4075                 1.0901                37.4914

                     28                     29                     30
                      A                      A                      A
 Frequencies --    735.1058               740.5825               780.9330
 Red. masses --      4.6242                 3.5385                 2.6517
 Frc consts  --      1.4723                 1.1434                 0.9528
 IR Inten    --      6.1199                 2.1940                36.1308

                     31                     32                     33
                      A                      A                      A
 Frequencies --    799.4852               813.7151               825.0371
 Red. masses --      2.3618                 2.1855                 2.6840
 Frc consts  --      0.8894                 0.8526                 1.0764
 IR Inten    --      0.2379                52.6857                26.9968

                     34                     35                     36
                      A                      A                      A
 Frequencies --    837.6345               854.5195               858.7690
 Red. masses --      1.4672                 1.3111                 1.4046
 Frc consts  --      0.6065                 0.5641                 0.6103
 IR Inten    --    107.0653                 3.1610                 4.6943

                     37                     38                     39
                      A                      A                      A
 Frequencies --    912.2088               940.0523               976.1119
 Red. masses --      2.2872                 2.6343                 2.7492
 Frc consts  --      1.1213                 1.3716                 1.5433
 IR Inten    --      6.2244                54.5744                49.5634

                     40                     41                     42
                      A                      A                      A
 Frequencies --    989.5812               991.2443              1004.7079
 Red. masses --      1.3811                 3.8988                 6.4237
 Frc consts  --      0.7968                 2.2571                 3.8205
 IR Inten    --      0.6398                 4.7687                 8.3596

                     43                     44                     45
                      A                      A                      A
 Frequencies --   1016.4648              1037.5058              1042.4562
 Red. masses --      3.0640                 2.4320                 2.4424
 Frc consts  --      1.8652                 1.5424                 1.5638
 IR Inten    --      9.2786                 9.8482                15.9607

                     46                     47                     48
                      A                      A                      A
 Frequencies --   1113.8022              1128.7034              1131.2391
 Red. masses --      2.1267                 2.1171                 1.2323
 Frc consts  --      1.5545                 1.5891                 0.9291
 IR Inten    --      3.4195                 0.4653                13.3720

                     49                     50                     51
                      A                      A                      A
 Frequencies --   1158.3085              1159.5358              1196.2786
 Red. masses --      1.7828                 1.2937                 1.8924
 Frc consts  --      1.4093                 1.0248                 1.5956
 IR Inten    --      3.9583                 1.0739                18.1292

                     52                     53                     54
                      A                      A                      A
 Frequencies --   1225.7188              1239.7692              1250.4941
 Red. masses --      1.4915                 1.4586                 2.8450
 Frc consts  --      1.3202                 1.3209                 2.6212
 IR Inten    --      4.3256                10.3201               101.1488

                     55                     56                     57
                      A                      A                      A
 Frequencies --   1258.7637              1282.5946              1294.7765
 Red. masses --      1.2510                 5.5578                 3.0562
 Frc consts  --      1.1679                 5.3868                 3.0187
 IR Inten    --      3.2169                 0.4345                 6.3948

                     58                     59                     60
                      A                      A                      A
 Frequencies --   1299.4440              1316.0325              1353.1891
 Red. masses --      1.2785                 2.0948                 1.6687
 Frc consts  --      1.2719                 2.1376                 1.8003
 IR Inten    --      3.3249                 5.1722                 5.9360

                     61                     62                     63
                      A                      A                      A
 Frequencies --   1357.7974              1385.4863              1406.2847
 Red. masses --      2.2760                 1.2296                 2.6092
 Frc consts  --      2.4723                 1.3907                 3.0402
 IR Inten    --     57.5647                11.7536                30.2052

                     64                     65                     66
                      A                      A                      A
 Frequencies --   1433.9392              1451.9651              1456.8136
 Red. masses --      1.8191                 1.5221                 2.2506
 Frc consts  --      2.2038                 1.8906                 2.8142
 IR Inten    --    133.8845                19.8877                91.5036

                     67                     68                     69
                      A                      A                      A
 Frequencies --   1495.1322              1514.3186              1518.6577
 Red. masses --      2.8568                 1.0485                 1.0831
 Frc consts  --      3.7626                 1.4167                 1.4718
 IR Inten    --     16.1337                 8.3836                 0.4489

                     70                     71                     72
                      A                      A                      A
 Frequencies --   1526.8508              1535.7758              1538.6974
 Red. masses --      4.3144                 1.0897                 1.2174
 Frc consts  --      5.9261                 1.5143                 1.6982
 IR Inten    --      0.4853                64.1830                45.6588

                     73                     74                     75
                      A                      A                      A
 Frequencies --   1565.4252              1582.3190              1600.2541
 Red. masses --      2.7526                 4.2081                 3.5652
 Frc consts  --      3.9743                 6.2076                 5.3791
 IR Inten    --    242.9281               477.6440                37.3469

                     76                     77                     78
                      A                      A                      A
 Frequencies --   1633.8344              1644.5284              1687.5615
 Red. masses --      4.2573                 3.5870                 1.7260
 Frc consts  --      6.6957                 5.7156                 2.8961
 IR Inten    --    513.5820               119.3087               423.1331

                     79                     80                     81
                      A                      A                      A
 Frequencies --   3035.2024              3049.1193              3052.3899
 Red. masses --      1.0407                 1.0645                 1.0693
 Frc consts  --      5.6487                 5.8309                 5.8698
 IR Inten    --     62.6966                82.6265                55.7915

                     82                     83                     84
                      A                      A                      A
 Frequencies --   3090.5637              3105.1439              3128.5473
 Red. masses --      1.1024                 1.0869                 1.1009
 Frc consts  --      6.2036                 6.1744                 6.3485
 IR Inten    --     27.0830                35.3427                21.2983

                     85                     86                     87
                      A                      A                      A
 Frequencies --   3136.1867              3164.6737              3184.2378
 Red. masses --      1.1010                 1.0903                 1.0975
 Frc consts  --      6.3806                 6.4339                 6.5566
 IR Inten    --     38.2227                47.7158                 1.4392

                     88                     89                     90
                      A                      A                      A
 Frequencies --   3235.6541              3253.3387              3373.2151
 Red. masses --      1.0933                 1.0946                 1.0659
 Frc consts  --      6.7439                 6.8262                 7.1461
 IR Inten    --      4.2073                10.8030               526.3265

                     91                     92                     93
                      A                      A                      A
 Frequencies --   3517.4501              3619.9700              3643.0774
 Red. masses --      1.0761                 1.0835                 1.0769
 Frc consts  --      7.8447                 8.3651                 8.4213
 IR Inten    --      0.6152                32.8153                50.2513

 - Thermochemistry -
 -------------------
 Temperature   298.150 Kelvin.  Pressure   1.00000 Atm.
 Atom     1 has atomic number  6 and mass  12.00000

 Molecular mass:   245.13889 amu.
 Principal axes and moments of inertia in atomic units:
                           1         2         3
     Eigenvalues --  2848.964065392.288367931.00355
           X            0.99999   0.00388  -0.00134
           Y           -0.00388   0.99999   0.00057
           Z            0.00135  -0.00056   1.00000
 This molecule is an asymmetric top.
 Rotational symmetry number  1.
 Warning -- assumption of classical behavior for rotation
           may cause significant error
 Rotational temperatures (Kelvin)      0.03040     0.01606     0.01092
 Rotational constants (GHZ):           0.63347     0.33469     0.22756
 Zero-point vibrational energy     715903.1 (Joules/Mol)
                                  171.10496 (Kcal/Mol)
 Warning -- explicit consideration of  22 degrees of freedom as
           vibrations may cause significant error
 Vibrational temperatures:     62.10    69.50   109.15   154.57   168.09
          (Kelvin)            184.38   189.78   218.94   259.83   287.07
                              370.36   412.11   437.56   466.51   469.22
                              517.35   542.64   568.76   660.86   695.66
                              737.92   789.29   911.40   953.35   982.67
                              990.43  1027.96  1057.65  1065.53  1123.59
                             1150.28  1170.75  1187.04  1205.17  1229.46
                             1235.58  1312.47  1352.53  1404.41  1423.79
                             1426.18  1445.55  1462.47  1492.74  1499.86
                             1602.51  1623.95  1627.60  1666.55  1668.31
                             1721.18  1763.54  1783.75  1799.18  1811.08
                             1845.37  1862.89  1869.61  1893.48  1946.94
                             1953.57  1993.41  2023.33  2063.12  2089.05
                             2096.03  2151.16  2178.77  2185.01  2196.80
                             2209.64  2213.84  2252.30  2276.60  2302.41
                             2350.72  2366.11  2428.02  4366.98  4387.00
                             4391.71  4446.63  4467.61  4501.28  4512.27
                             4553.26  4581.41  4655.38  4680.83  4853.30
                             5060.83  5208.33  5241.58

 Zero-point correction=                           0.272673 (Hartree/Particle)
 Thermal correction to Energy=                    0.288539
 Thermal correction to Enthalpy=                  0.289483
 Thermal correction to Gibbs Free Energy=         0.229065
 Sum of electronic and zero-point Energies=           -811.218289
 Sum of electronic and thermal Energies=              -811.202424
 Sum of electronic and thermal Enthalpies=            -811.201480
 Sum of electronic and thermal Free Energies=         -811.261897

                     E (Thermal)             CV                S
                      KCal/Mol        Cal/Mol-Kelvin    Cal/Mol-Kelvin
 Total                  181.061             61.035            127.160
 Electronic               0.000              0.000              0.000
 Translational            0.889              2.981             42.391
 Rotational               0.889              2.981             33.166
 Vibrational            179.283             55.073             51.603
 Vibration     1          0.595              1.980              5.108
 Vibration     2          0.595              1.978              4.886
 Vibration     3          0.599              1.965              3.995
 Vibration     4          0.606              1.943              3.315
 Vibration     5          0.608              1.935              3.152
 Vibration     6          0.611              1.925              2.974
 Vibration     7          0.612              1.921              2.918
 Vibration     8          0.619              1.900              2.645
 Vibration     9          0.630              1.866              2.322
 Vibration    10          0.638              1.841              2.137
 Vibration    11          0.667              1.750              1.679
 Vibration    12          0.684              1.699              1.495
 Vibration    13          0.695              1.666              1.394
 Vibration    14          0.709              1.627              1.289
 Vibration    15          0.710              1.623              1.279
 Vibration    16          0.734              1.556              1.124
 Vibration    17          0.748              1.519              1.051
 Vibration    18          0.762              1.480              0.980
 Vibration    19          0.817              1.340              0.768
 Vibration    20          0.840              1.287              0.701
 Vibration    21          0.868              1.221              0.627
 Vibration    22          0.904              1.143              0.547

 Optimization completed.
    -- Stationary point found.
 Normal termination of Gaussian 16 at Fri Dec 11 21:27:36 2020.

 ----------------------------------------------------------------------
 # B3LYP/6-311++G(d,p) empiricaldispersion=gd3bj scf=xqc pop=npa geom=c
 heck
 ----------------------------------------------------------------------

 --------------------------------------
 CID_69400907_JID_8558_Energie_neutraal
 --------------------------------------
 Structure from the checkpoint file:  "JID_8558.chk"
 Charge =  0 Multiplicity = 1

 SCF Done:  E(RB3LYP) =  -811.715495157     A.U. after   15 cycles
 Normal termination of Gaussian 16 at Fri Dec 11 21:32:31 2020.

 ----------------------------------------------------------------------
 # B3LYP/6-311++G(d,p) empiricaldispersion=gd3bj scf=xqc pop=npa geom=c
 heck
 ----------------------------------------------------------------------

 ------------------------------------
 CID_69400907_JID_8558_Energie_kation
 ------------------------------------
 Structure from the checkpoint file:  "JID_8558.chk"
 Charge =  1 Multiplicity = 2

 SCF Done:  E(UB3LYP) =  -811.456470539     A.U. after   24 cycles
 Normal termination of Gaussian 16 at Fri Dec 11 21:43:14 2020.
 Gaussian 16:  ES64L-G16RevA.03 25-Dec-2016

 ----------------------------------------------------------------------
 # B3LYP/6-311++G(d,p) empiricaldispersion=gd3bj scf=xqc pop=npa geom=c
 heck
 ----------------------------------------------------------------------

 -----------------------------------
 CID_69400907_JID_8558_Energie_anion
 -----------------------------------
 Structure from the checkpoint file:  "JID_8558.chk"
 Charge = -1 Multiplicity = 2

                         Standard orientation:
 ---------------------------------------------------------------------
 Center     Atomic      Atomic             Coordinates (Angstroms)
 Number     Number       Type             X           Y           Z
 ---------------------------------------------------------------------
      1          6           0        4.175434   -1.699153   -0.079851
      2          7           0        3.307457   -0.549799    0.003465
      3          6           0        1.949029   -0.543638   -0.061590
      4          6           0        1.556231    0.808735    0.026851
      5          6           0        2.792593    1.510008    0.143160
      6          7           0        3.843747    0.714373    0.134090
      7          6           0        0.222677    1.358807   -0.002089
      8          7           0       -0.826854    0.504393   -0.051301
      9          6           0       -2.051837    1.052378   -0.081219
     10          7           0       -2.361379    2.364800   -0.066157
     11          6           0       -1.309214    3.188076   -0.016926
     12          6           0        0.004575    2.751824    0.018279
     13          7           0       -3.139684    0.218388   -0.141965
     14          6           0       -3.134990   -1.210641   -0.007043
     15          6           0       -2.255824   -2.059388   -0.969759
     16          7           0       -1.498020   -2.614986    0.189286
     17          6           0       -2.348384   -1.874509    1.163182
     18          7           0        1.239539   -1.691201   -0.255406
     19          1           0        4.039826   -2.369932    0.778976
     20          1           0        3.991940   -2.259956   -1.004050
     21          1           0        5.199581   -1.327021   -0.079019
     22          1           0        2.940739    2.577438    0.241305
     23          1           0       -1.539266    4.252804   -0.005368
     24          1           0        0.826888    3.455241    0.052504
     25          1           0       -4.019147    0.709782   -0.089145
     26          1           0       -4.182044   -1.520776   -0.027613
     27          1           0       -2.814721   -2.801982   -1.552286
     28          1           0       -1.619939   -1.475521   -1.638582
     29          1           0       -1.577112   -3.625025    0.272398
     30          1           0       -1.770294   -1.177827    1.774746
     31          1           0       -2.961867   -2.508729    1.814984
     32          1           0        0.234670   -1.696448   -0.048250
     33          1           0        1.695365   -2.548828    0.027326
 ---------------------------------------------------------------------

 SCF Done:  E(UB3LYP) =  -811.710245804     A.U. after   33 cycles
 SCF Done:  E(UB3LYP) =  -811.710245804     a.u. after    1 cycles

 The electronic state is 2-A.
 Alpha  occ. eigenvalues --  -14.28320 -14.22886 -14.22676 -14.21612 -14.19723
 Alpha  occ. eigenvalues --  -14.19289 -14.19250 -10.16420 -10.14801 -10.12218
 Alpha  occ. eigenvalues --  -10.11782 -10.11254 -10.10811 -10.09291 -10.08941
 Alpha  occ. eigenvalues --  -10.08908 -10.06587 -10.06564  -0.94907  -0.89505
 Alpha  occ. eigenvalues --   -0.83501  -0.81874  -0.80114  -0.78023  -0.74538
 Alpha  occ. eigenvalues --   -0.68775  -0.65917  -0.62124  -0.60641  -0.57715
 Alpha  occ. eigenvalues --   -0.55817  -0.53882  -0.50665  -0.47961  -0.46913
 Alpha  occ. eigenvalues --   -0.44883  -0.42980  -0.41448  -0.41274  -0.39061
 Alpha  occ. eigenvalues --   -0.38622  -0.37522  -0.37123  -0.35326  -0.34405
 Alpha  occ. eigenvalues --   -0.32870  -0.32004  -0.31693  -0.31445  -0.30434
 Alpha  occ. eigenvalues --   -0.29537  -0.29197  -0.28601  -0.25843  -0.25180
 Alpha  occ. eigenvalues --   -0.23227  -0.22045  -0.20454  -0.20332  -0.19952
 Alpha  occ. eigenvalues --   -0.14840  -0.14710  -0.13484  -0.12156  -0.10250
 Alpha  occ. eigenvalues --    0.03817
 Alpha virt. eigenvalues --    0.05448   0.05731   0.07293   0.07752   0.08274
 Alpha virt. eigenvalues --    0.09084   0.09214   0.09639   0.10009   0.10523
 Alpha virt. eigenvalues --    0.10815   0.11821   0.12236   0.12749   0.12868

  Beta  occ. eigenvalues --  -14.28323 -14.22886 -14.22673 -14.21588 -14.19692
  Beta  occ. eigenvalues --  -14.19201 -14.19190 -10.16429 -10.14759 -10.12189
  Beta  occ. eigenvalues --  -10.11651 -10.11238 -10.10743 -10.09265 -10.08919
  Beta  occ. eigenvalues --  -10.08890 -10.06619 -10.06587  -0.94886  -0.89419
  Beta  occ. eigenvalues --   -0.83441  -0.81817  -0.80061  -0.77852  -0.74507
  Beta  occ. eigenvalues --   -0.68686  -0.65862  -0.62053  -0.60585  -0.57663
  Beta  occ. eigenvalues --   -0.55679  -0.53816  -0.50620  -0.47912  -0.46854
  Beta  occ. eigenvalues --   -0.44834  -0.42905  -0.41402  -0.41189  -0.39021
  Beta  occ. eigenvalues --   -0.38570  -0.37491  -0.37081  -0.35297  -0.34243
  Beta  occ. eigenvalues --   -0.32828  -0.31955  -0.31650  -0.31339  -0.30350
  Beta  occ. eigenvalues --   -0.29441  -0.29142  -0.28553  -0.25785  -0.25084
  Beta  occ. eigenvalues --   -0.23104  -0.21637  -0.20348  -0.20095  -0.19935
  Beta  occ. eigenvalues --   -0.14740  -0.14615  -0.13440  -0.12027  -0.10133
  Beta virt. eigenvalues --    0.06245   0.06546   0.06841   0.07421   0.08443
  Beta virt. eigenvalues --    0.08594   0.09229   0.09528   0.10021   0.10203
  Beta virt. eigenvalues --    0.10743   0.11212   0.12003   0.12471   0.12776

 Mulliken charges and spin densities:
               1          2
     1  C    0.486950  -0.858183
     2  N    0.138383   0.110678
     3  C    0.521516  -0.111819
     4  C   -0.666204  -0.042696
     5  C    0.052249   0.258584
     6  N   -0.334333  -0.007085
     7  C    0.548822  -0.108215
     8  N   -0.112362   0.018661
     9  C   -0.188875  -0.165341
    10  N   -0.080484   0.013580
    11  C   -0.194625   0.022178
    12  C   -0.697208   0.016009
    13  N   -0.270965   0.041522
    14  C   -0.745713   0.747671
    15  C    0.809199  -1.099876
    16  N   -0.222238  -0.185244
    17  C    0.840610  -1.182340
    18  N   -0.480359   0.036269
    19  H   -0.256725   0.431621
    20  H   -0.090854   0.256224
    21  H    0.101596   0.075202
    22  H    0.151056   0.017758
    23  H    0.153471   0.006211
    24  H    0.077393  -0.002095
    25  H    0.258665   0.065121
    26  H   -0.600758   0.820056
    27  H   -0.595802   0.743991
    28  H    0.169049   0.008282
    29  H   -0.165617   0.445979
    30  H    0.148078   0.023565
    31  H   -0.670158   0.810986
    32  H    0.984242  -0.503890
    33  H   -0.067998   0.296635
 Sum of Mulliken charges =  -1.00000   1.00000

 Dipole moment (field-independent basis, Debye):
    X=              3.1993    Y=              6.3569    Z=             -0.4402  Tot=              7.1302
 Quadrupole moment (field-independent basis, Debye-Ang):
   XX=           -180.0810   YY=           -163.9013   ZZ=           -130.1895
   XY=            -14.5164   XZ=             -0.4240   YZ=              2.6653

 Summary of Natural Population Analysis:

                                       Natural Population
                Natural  -----------------------------------------------
    Atom  No    Charge         Core      Valence    Rydberg      Total
 -----------------------------------------------------------------------
      C    1   -0.18058      0.99965     2.17271    0.00822     3.18058
      N    2   -0.13208      0.99962     2.62039    0.01208     3.63208
      C    3    0.22113      0.99950     1.76594    0.01343     2.77887
      C    4   -0.12918      0.99947     2.11960    0.01011     3.12918
      C    5    0.01380      0.99962     1.97286    0.01372     2.98620
      N    6   -0.16797      0.99973     2.65657    0.01167     3.66797
      C    7    0.15323      0.99946     1.83600    0.01131     2.84677
      N    8   -0.28580      0.99965     2.77683    0.00932     3.78580
      C    9    0.30413      0.99960     1.67681    0.01945     2.69587
      N   10   -0.27360      0.99969     2.76431    0.00961     3.77360
      C   11    0.05723      0.99960     1.92943    0.01374     2.94277
      C   12   -0.17593      0.99954     2.16919    0.00720     3.17593
      N   13   -0.31031      0.99965     2.79987    0.01079     3.81031
      C   14   -0.01874      0.99959     2.00418    0.01497     3.01874
      C   15   -0.08431      0.99964     2.07382    0.01086     3.08431
      N   16   -0.35776      0.99977     2.84174    0.01625     3.85776
      C   17   -0.08432      0.99964     2.07417    0.01051     3.08432
      N   18   -0.39835      0.99969     2.89036    0.00830     3.89835
      H   19    0.09699      0.00000     0.40134    0.00167     0.40301
      H   20    0.09848      0.00000     0.40036    0.00116     0.40152
      H   21    0.11031      0.00000     0.38823    0.00146     0.38969
      H   22    0.09391      0.00000     0.40518    0.00091     0.40609
      H   23    0.08382      0.00000     0.41500    0.00117     0.41618
      H   24    0.10078      0.00000     0.39807    0.00115     0.39922
      H   25    0.19617      0.00000     0.30100    0.00283     0.30383
      H   26    0.10230      0.00000     0.39547    0.00223     0.39770
      H   27    0.09044      0.00000     0.40752    0.00205     0.40956
      H   28    0.09693      0.00000     0.40160    0.00147     0.40307
      H   29    0.18191      0.00000     0.31013    0.00796     0.31809
      H   30    0.09476      0.00000     0.40372    0.00152     0.40524
      H   31    0.09133      0.00000     0.40634    0.00233     0.40867
      H   32    0.22436      0.00000     0.27259    0.00305     0.27564
      H   33    0.18693      0.00000     0.31108    0.00199     0.31307
 =======================================================================
   * Total *    0.00000     17.99310    46.76241    0.24449    65.00000

 Normal termination of Gaussian 16 at Fri Dec 11 21:58:01 2020.
