 Gaussian 16, Revision A.03,

 -----------------------------------------------------------
 # opt freq B3LYP/6-31G(d) empiricaldispersion=gd3bj scf=xqc
 -----------------------------------------------------------

 -------------------------------
 CID_123167403_JID_2058_neutraal
 -------------------------------
 Symbolic Z-matrix:
 Charge =  0 Multiplicity = 1

 SCF Done:  E(RB3LYP) =  -606.657266238     A.U. after   16 cycles
 SCF Done:  E(RB3LYP) =  -606.669810015     A.U. after   13 cycles
 SCF Done:  E(RB3LYP) =  -606.671493988     A.U. after   13 cycles
 SCF Done:  E(RB3LYP) =  -606.671854764     A.U. after   12 cycles
 SCF Done:  E(RB3LYP) =  -606.671992903     A.U. after   12 cycles
 SCF Done:  E(RB3LYP) =  -606.672045415     A.U. after   11 cycles
 SCF Done:  E(RB3LYP) =  -606.672070574     A.U. after   11 cycles
 SCF Done:  E(RB3LYP) =  -606.672078632     A.U. after   10 cycles
 SCF Done:  E(RB3LYP) =  -606.672083883     A.U. after   10 cycles
 SCF Done:  E(RB3LYP) =  -606.672084810     A.U. after    9 cycles
 SCF Done:  E(RB3LYP) =  -606.672085500     A.U. after    9 cycles
 SCF Done:  E(RB3LYP) =  -606.672085735     A.U. after    8 cycles
 Optimization completed.
    -- Stationary point found.
 Normal termination of Gaussian 16 at Wed Dec  9 16:45:28 2020.

 --------------------------------------------------------------------
 #N Geom=AllCheck Guess=TCheck SCRF=Check GenChk RB3LYP/6-31G(d) Freq
 --------------------------------------------------------------------

 Structure from the checkpoint file:  "JID_2058.chk"
 -------------------------------
 CID_123167403_JID_2058_neutraal
 -------------------------------
 Charge =  0 Multiplicity = 1

 SCF Done:  E(RB3LYP) =  -606.672085735     A.U. after    1 cycles

  Exact polarizability: 124.359  -3.636 108.536   1.133  -1.036  55.239
 Approx polarizability: 190.022  -6.603 198.093   3.881  -6.320  85.693

                      1                      2                      3
                      A                      A                      A
 Frequencies --     73.4177                89.1395               133.3903
 Red. masses --      5.1354                 6.7996                 3.4075
 Frc consts  --      0.0163                 0.0318                 0.0357
 IR Inten    --      1.9053                 1.7338                 3.3597

                      4                      5                      6
                      A                      A                      A
 Frequencies --    157.3393               193.4115               228.6071
 Red. masses --      2.8543                 3.4892                 1.1538
 Frc consts  --      0.0416                 0.0769                 0.0355
 IR Inten    --     11.2211                 6.8598                 6.0499

                      7                      8                      9
                      A                      A                      A
 Frequencies --    237.0860               242.7371               256.0531
 Red. masses --      1.9122                 2.4451                 4.5323
 Frc consts  --      0.0633                 0.0849                 0.1751
 IR Inten    --     11.3218                30.4711                15.1771

                     10                     11                     12
                      A                      A                      A
 Frequencies --    280.4134               402.2827               411.6386
 Red. masses --      3.6956                 5.1502                 5.0503
 Frc consts  --      0.1712                 0.4911                 0.5042
 IR Inten    --      7.1100                 2.7424                 3.1103

                     13                     14                     15
                      A                      A                      A
 Frequencies --    476.0100               515.1156               571.0526
 Red. masses --      3.3142                 3.5474                11.2593
 Frc consts  --      0.4425                 0.5546                 2.1633
 IR Inten    --      3.0210                 1.8099                 4.8899

                     16                     17                     18
                      A                      A                      A
 Frequencies --    584.2056               602.3203               676.9172
 Red. masses --     10.5174                 5.5831                 8.3602
 Frc consts  --      2.1149                 1.1934                 2.2570
 IR Inten    --      0.7241                19.6472                12.8369

                     19                     20                     21
                      A                      A                      A
 Frequencies --    724.2354               787.3474               840.8785
 Red. masses --     12.1498                 6.0683                 5.1226
 Frc consts  --      3.7547                 2.2164                 2.1341
 IR Inten    --      0.0290                23.8613                13.6048

                     22                     23                     24
                      A                      A                      A
 Frequencies --    897.9338               923.0981               944.1332
 Red. masses --      4.8628                 2.0713                 1.4866
 Frc consts  --      2.3101                 1.0399                 0.7807
 IR Inten    --     37.3590                28.0921                 1.6159

                     25                     26                     27
                      A                      A                      A
 Frequencies --    958.5387              1010.6464              1053.5162
 Red. masses --      2.2837                 4.1828                 3.5550
 Frc consts  --      1.2363                 2.5172                 2.3247
 IR Inten    --     39.5915               138.2959                29.0800

                     28                     29                     30
                      A                      A                      A
 Frequencies --   1139.4640              1159.7470              1175.8267
 Red. masses --      2.3856                 2.0972                 2.5183
 Frc consts  --      1.8249                 1.6619                 2.0513
 IR Inten    --      4.6654                21.3826                 1.7968

                     31                     32                     33
                      A                      A                      A
 Frequencies --   1247.5781              1286.9575              1302.5255
 Red. masses --      1.4024                 2.7228                 1.9343
 Frc consts  --      1.2861                 2.6570                 1.9335
 IR Inten    --      3.6947               168.0463                13.2950

                     34                     35                     36
                      A                      A                      A
 Frequencies --   1326.4495              1354.5680              1379.3942
 Red. masses --      2.3023                 1.2739                 1.5011
 Frc consts  --      2.3867                 1.3772                 1.6828
 IR Inten    --     25.5268                13.3456                52.5068

                     37                     38                     39
                      A                      A                      A
 Frequencies --   1405.9846              1445.5179              1473.4116
 Red. masses --      1.4572                 1.3133                 2.7524
 Frc consts  --      1.6972                 1.6169                 3.5205
 IR Inten    --     64.6078                19.5141               164.8865

                     40                     41                     42
                      A                      A                      A
 Frequencies --   1513.8928              1527.6962              1528.2631
 Red. masses --      1.0613                 1.0525                 1.1696
 Frc consts  --      1.4331                 1.4472                 1.6094
 IR Inten    --      3.1524                 4.5115                53.6763

                     43                     44                     45
                      A                      A                      A
 Frequencies --   1670.7838              1720.6443              1860.8606
 Red. masses --      9.4081                 1.0822                13.0528
 Frc consts  --     15.4736                 1.8878                26.6306
 IR Inten    --    674.8412                 9.8345               292.5645

                     46                     47                     48
                      A                      A                      A
 Frequencies --   1889.1042              3026.4269              3068.1217
 Red. masses --     12.9764                 1.0709                 1.0383
 Frc consts  --     27.2844                 5.7791                 5.7584
 IR Inten    --    381.7491                30.8995                10.5648

                     49                     50                     51
                      A                      A                      A
 Frequencies --   3073.7011              3133.6715              3142.4953
 Red. masses --      1.0829                 1.0962                 1.1015
 Frc consts  --      6.0278                 6.3421                 6.4092
 IR Inten    --     23.0207                 2.0918                27.1805

                     52                     53                     54
                      A                      A                      A
 Frequencies --   3151.3756              3446.0257              3537.1802
 Red. masses --      1.1030                 1.0486                 1.0954
 Frc consts  --      6.4542                 7.3364                 8.0747
 IR Inten    --     10.6390                 4.7031                 3.1901

 - Thermochemistry -
 -------------------
 Temperature   298.150 Kelvin.  Pressure   1.00000 Atm.
 Atom     1 has atomic number  6 and mass  12.00000

 Molecular mass:   168.05349 amu.
 Principal axes and moments of inertia in atomic units:
                           1         2         3
     Eigenvalues --  1312.663182190.025513429.73523
           X            0.99926   0.03846  -0.00177
           Y           -0.03846   0.99926   0.00300
           Z            0.00189  -0.00293   0.99999
 This molecule is an asymmetric top.
 Rotational symmetry number  1.
 Warning -- assumption of classical behavior for rotation
           may cause significant error
 Rotational temperatures (Kelvin)      0.06598     0.03955     0.02525
 Rotational constants (GHZ):           1.37487     0.82407     0.52620
 Zero-point vibrational energy     402299.0 (Joules/Mol)
                                   96.15176 (Kcal/Mol)
 Warning -- explicit consideration of  17 degrees of freedom as
           vibrations may cause significant error
 Vibrational temperatures:    105.63   128.25   191.92   226.38   278.28
          (Kelvin)            328.91   341.11   349.24   368.40   403.45
                              578.80   592.26   684.87   741.14   821.62
                              840.54   866.60   973.93  1042.01  1132.82
                             1209.84  1291.93  1328.13  1358.40  1379.12
                             1454.09  1515.77  1639.43  1668.62  1691.75
                             1794.99  1851.64  1874.04  1908.46  1948.92
                             1984.64  2022.90  2079.78  2119.91  2178.15
                             2198.01  2198.83  2403.89  2475.62  2677.36
                             2718.00  4354.35  4414.34  4422.37  4508.65
                             4521.35  4534.13  4958.06  5089.21

 Zero-point correction=                           0.153228 (Hartree/Particle)
 Thermal correction to Energy=                    0.164279
 Thermal correction to Enthalpy=                  0.165224
 Thermal correction to Gibbs Free Energy=         0.116395
 Sum of electronic and zero-point Energies=           -606.518858
 Sum of electronic and thermal Energies=              -606.507806
 Sum of electronic and thermal Enthalpies=            -606.506862
 Sum of electronic and thermal Free Energies=         -606.555691

                     E (Thermal)             CV                S
                      KCal/Mol        Cal/Mol-Kelvin    Cal/Mol-Kelvin
 Total                  103.087             40.574            102.768
 Electronic               0.000              0.000              0.000
 Translational            0.889              2.981             41.265
 Rotational               0.889              2.981             30.667
 Vibrational            101.309             34.613             30.835
 Vibration     1          0.599              1.967              4.060
 Vibration     2          0.602              1.957              3.679
 Vibration     3          0.613              1.920              2.897
 Vibration     4          0.621              1.894              2.582
 Vibration     5          0.635              1.849              2.195
 Vibration     6          0.651              1.797              1.890
 Vibration     7          0.656              1.784              1.825
 Vibration     8          0.659              1.775              1.783
 Vibration     9          0.666              1.753              1.689
 Vibration    10          0.680              1.710              1.531
 Vibration    11          0.768              1.465              0.954
 Vibration    12          0.776              1.445              0.921
 Vibration    13          0.833              1.303              0.721
 Vibration    14          0.870              1.217              0.621
 Vibration    15          0.927              1.094              0.502
 Vibration    16          0.941              1.066              0.478
 Vibration    17          0.961              1.027              0.446

                           ! Non-Optimized Parameters !
 Normal termination of Gaussian 16 at Wed Dec  9 16:49:31 2020.

 ----------------------------------------------------------------------
 # B3LYP/6-311++G(d,p) empiricaldispersion=gd3bj scf=xqc pop=npa geom=c
 heck
 ----------------------------------------------------------------------

 ---------------------------------------
 CID_123167403_JID_2058_Energie_neutraal
 ---------------------------------------
 Structure from the checkpoint file:  "JID_2058.chk"
 Charge =  0 Multiplicity = 1

 SCF Done:  E(RB3LYP) =  -606.853951234     A.U. after   15 cycles
 Normal termination of Gaussian 16 at Wed Dec  9 16:50:59 2020.

 ----------------------------------------------------------------------
 # B3LYP/6-311++G(d,p) empiricaldispersion=gd3bj scf=xqc pop=npa geom=c
 heck
 ----------------------------------------------------------------------

 -------------------------------------
 CID_123167403_JID_2058_Energie_kation
 -------------------------------------
 Structure from the checkpoint file:  "JID_2058.chk"
 Charge =  1 Multiplicity = 2

 SCF Done:  E(UB3LYP) =  -606.541204373     A.U. after   28 cycles
 Normal termination of Gaussian 16 at Wed Dec  9 16:54:25 2020.
 Gaussian 16:  ES64L-G16RevA.03 25-Dec-2016

 ----------------------------------------------------------------------
 # B3LYP/6-311++G(d,p) empiricaldispersion=gd3bj scf=xqc pop=npa geom=c
 heck
 ----------------------------------------------------------------------

 ------------------------------------
 CID_123167403_JID_2058_Energie_anion
 ------------------------------------
 Structure from the checkpoint file:  "JID_2058.chk"
 Charge = -1 Multiplicity = 2

                         Standard orientation:
 ---------------------------------------------------------------------
 Center     Atomic      Atomic             Coordinates (Angstroms)
 Number     Number       Type             X           Y           Z
 ---------------------------------------------------------------------
      1          6           0       -3.310929   -1.027010    0.113566
      2          6           0       -1.997572   -0.441296   -0.365167
      3          6           0       -1.722734    0.952304    0.235256
      4          7           0       -0.394218    1.436157   -0.154555
      5          6           0        0.548881    0.471025   -0.100622
      6          6           0        0.259443   -0.875852   -0.020608
      7          8           0       -0.956319   -1.418095   -0.011639
      8          6           0        1.687597   -1.301383    0.037510
      9          8           0        2.309934   -2.328041    0.132244
     10          6           0        2.023889    0.241016   -0.041814
     11          8           0        3.009070    0.938447   -0.043198
     12          7           0       -0.112792    2.796864    0.105919
     13          1           0       -3.321490   -1.107337    1.205122
     14          1           0       -3.450076   -2.025886   -0.308191
     15          1           0       -4.147603   -0.395683   -0.202047
     16          1           0       -1.977982   -0.362317   -1.458143
     17          1           0       -2.469487    1.654927   -0.141484
     18          1           0       -1.813754    0.906730    1.330539
     19          1           0        0.562703    2.859883    0.869008
     20          1           0        0.333837    3.187222   -0.722339
 ---------------------------------------------------------------------

 SCF Done:  E(UB3LYP) =  -606.858108108     A.U. after   32 cycles

 The electronic state is 2-A.
 Alpha  occ. eigenvalues --  -19.06224 -18.98782 -18.97964 -14.26377 -14.23768
 Alpha  occ. eigenvalues --  -10.14214 -10.13798 -10.13037 -10.11709 -10.10919
 Alpha  occ. eigenvalues --  -10.09581 -10.07214  -0.97962  -0.92508  -0.91048
 Alpha  occ. eigenvalues --   -0.90080  -0.75622  -0.72782  -0.67106  -0.59495
 Alpha  occ. eigenvalues --   -0.54212  -0.50331  -0.45821  -0.42333  -0.41178
 Alpha  occ. eigenvalues --   -0.40131  -0.39306  -0.37303  -0.33857  -0.32879
 Alpha  occ. eigenvalues --   -0.32596  -0.31574  -0.30655  -0.29814  -0.29537
 Alpha  occ. eigenvalues --   -0.28307  -0.25055  -0.24422  -0.23551  -0.20032
 Alpha  occ. eigenvalues --   -0.18950  -0.17647  -0.10656  -0.10491   0.03945
 Alpha virt. eigenvalues --    0.06860   0.07851   0.08285   0.09071   0.09405
 Alpha virt. eigenvalues --    0.10419   0.11316   0.12221   0.12938   0.13871
 Alpha virt. eigenvalues --    0.15246   0.15403   0.15946   0.16449   0.18083

  Beta  occ. eigenvalues --  -19.06206 -18.98709 -18.97859 -14.26366 -14.23718
  Beta  occ. eigenvalues --  -10.14194 -10.13764 -10.12970 -10.11520 -10.10864
  Beta  occ. eigenvalues --  -10.09389 -10.07174  -0.97858  -0.92359  -0.90868
  Beta  occ. eigenvalues --   -0.89981  -0.75356  -0.72640  -0.67020  -0.59335
  Beta  occ. eigenvalues --   -0.54016  -0.50195  -0.45547  -0.42176  -0.41043
  Beta  occ. eigenvalues --   -0.39977  -0.39189  -0.37186  -0.33532  -0.32704
  Beta  occ. eigenvalues --   -0.32431  -0.31330  -0.30560  -0.29728  -0.29329
  Beta  occ. eigenvalues --   -0.28197  -0.24724  -0.24022  -0.23303  -0.19647
  Beta  occ. eigenvalues --   -0.18830  -0.17554  -0.10481  -0.09750
  Beta virt. eigenvalues --    0.06928   0.07951   0.08995   0.09025   0.09753
  Beta virt. eigenvalues --    0.10028   0.10888   0.11754   0.12472   0.13179
  Beta virt. eigenvalues --    0.14155   0.15299   0.15491   0.15852   0.16477

 Mulliken charges and spin densities:
               1          2
     1  C    1.125282  -1.736262
     2  C   -1.119212   1.252124
     3  C    1.087998  -1.590628
     4  N   -0.053359   0.135507
     5  C   -0.168231   0.573949
     6  C    0.527149  -0.146569
     7  O   -0.158566   0.040606
     8  C    0.047351  -0.343965
     9  O   -0.402868   0.031545
    10  C   -0.002688   0.043983
    11  O   -0.407054   0.026164
    12  N   -0.314297  -0.039683
    13  H   -0.008857   0.167779
    14  H   -0.018284   0.176804
    15  H   -0.353108   0.502217
    16  H   -0.401754   0.630203
    17  H   -0.201813   0.399749
    18  H   -0.310945   0.500292
    19  H    0.027460   0.217709
    20  H    0.105795   0.158479
 Sum of Mulliken charges =  -1.00000   1.00000

 Dipole moment (field-independent basis, Debye):
    X=             -1.5190    Y=              0.8663    Z=              0.1477  Tot=              1.7549
 Quadrupole moment (field-independent basis, Debye-Ang):
   XX=           -128.6591   YY=           -104.2584   ZZ=            -86.3598
   XY=              9.7483   XZ=             -3.8610   YZ=             -0.9562

 Summary of Natural Population Analysis:

                                       Natural Population
                Natural  -----------------------------------------------
    Atom  No    Charge         Core      Valence    Rydberg      Total
 -----------------------------------------------------------------------
      C    1   -0.29239      0.99964     2.28618    0.00656     3.29239
      C    2    0.05855      0.99954     1.92838    0.01354     2.94145
      C    3   -0.09158      0.99958     2.08062    0.01138     3.09158
      N    4   -0.15568      0.99959     2.64267    0.01342     3.65568
      C    5    0.06623      0.99935     1.92013    0.01428     2.93377
      C    6    0.15998      0.99928     1.82403    0.01671     2.84002
      O    7   -0.26291      0.99985     3.25349    0.00957     4.26291
      C    8    0.22023      0.99961     1.75504    0.02513     2.77977
      O    9   -0.28715      0.99987     3.27989    0.00740     4.28715
      C   10    0.22723      0.99961     1.74651    0.02665     2.77277
      O   11   -0.29301      0.99987     3.28523    0.00792     4.29301
      N   12   -0.31449      0.99977     2.80387    0.01085     3.81449
      H   13    0.10262      0.00000     0.39633    0.00105     0.39738
      H   14    0.10607      0.00000     0.39291    0.00102     0.39393
      H   15    0.10638      0.00000     0.39200    0.00162     0.39362
      H   16    0.09275      0.00000     0.40501    0.00223     0.40725
      H   17    0.11091      0.00000     0.38700    0.00209     0.38909
      H   18    0.09366      0.00000     0.40434    0.00200     0.40634
      H   19    0.17667      0.00000     0.32063    0.00270     0.32333
      H   20    0.17593      0.00000     0.32209    0.00198     0.32407
 =======================================================================
   * Total *   -0.00000     11.99554    31.82636    0.17810    44.00000

 Normal termination of Gaussian 16 at Wed Dec  9 16:58:40 2020.
