 Gaussian 16, Revision A.03,

 -----------------------------------------------------------
 # opt freq B3LYP/6-31G(d) empiricaldispersion=gd3bj scf=xqc
 -----------------------------------------------------------

 -------------------------------
 CID_105481757_JID_6295_neutraal
 -------------------------------
 Symbolic Z-matrix:
 Charge =  0 Multiplicity = 1

 SCF Done:  E(RB3LYP) =  -767.857236505     A.U. after   15 cycles
 SCF Done:  E(RB3LYP) =  -767.860730889     A.U. after   13 cycles
 SCF Done:  E(RB3LYP) =  -767.861371297     A.U. after   13 cycles
 SCF Done:  E(RB3LYP) =  -767.863405550     A.U. after   12 cycles
 SCF Done:  E(RB3LYP) =  -767.864858388     A.U. after   13 cycles
 SCF Done:  E(RB3LYP) =  -767.864124730     A.U. after   15 cycles
 SCF Done:  E(RB3LYP) =  -767.865706493     A.U. after   13 cycles
 SCF Done:  E(RB3LYP) =  -767.866000660     A.U. after   11 cycles
 SCF Done:  E(RB3LYP) =  -767.865914475     A.U. after   11 cycles
 SCF Done:  E(RB3LYP) =  -767.866059670     A.U. after   11 cycles
 SCF Done:  E(RB3LYP) =  -767.866085779     A.U. after    7 cycles
 SCF Done:  E(RB3LYP) =  -767.866087326     A.U. after    9 cycles
 SCF Done:  E(RB3LYP) =  -767.866085619     A.U. after    9 cycles
 SCF Done:  E(RB3LYP) =  -767.866087509     A.U. after    9 cycles
 SCF Done:  E(RB3LYP) =  -767.866085479     A.U. after    9 cycles
 Optimization completed.
    -- Stationary point found.
 Normal termination of Gaussian 16 at Thu Dec 10 22:13:26 2020.

 --------------------------------------------------------------------
 #N Geom=AllCheck Guess=TCheck SCRF=Check GenChk RB3LYP/6-31G(d) Freq
 --------------------------------------------------------------------

 Structure from the checkpoint file:  "JID_6295.chk"
 -------------------------------
 CID_105481757_JID_6295_neutraal
 -------------------------------
 Charge =  0 Multiplicity = 1

 SCF Done:  E(RB3LYP) =  -767.866085479     A.U. after    1 cycles

  Exact polarizability: 161.299   7.673 123.449 -22.308  13.506 114.073
 Approx polarizability: 220.088  11.566 201.536 -45.026  32.902 180.660

                      1                      2                      3
                      A                      A                      A
 Frequencies --     29.4511                34.0039                71.5509
 Red. masses --      4.8864                 5.9962                 5.1358
 Frc consts  --      0.0025                 0.0041                 0.0155
 IR Inten    --      0.0103                 1.0868                 0.4440

                      4                      5                      6
                      A                      A                      A
 Frequencies --     83.3977                91.6838               135.5808
 Red. masses --      4.3271                 2.4364                 2.5994
 Frc consts  --      0.0177                 0.0121                 0.0282
 IR Inten    --      0.3279                 0.1695                 5.8068

                      7                      8                      9
                      A                      A                      A
 Frequencies --    153.2781               182.0909               211.6424
 Red. masses --      4.3713                 4.9543                 2.0555
 Frc consts  --      0.0605                 0.0968                 0.0542
 IR Inten    --      0.3081                 0.1871                 0.1326

                     10                     11                     12
                      A                      A                      A
 Frequencies --    236.3898               256.7991               269.2813
 Red. masses --      3.1755                 1.3442                 2.2438
 Frc consts  --      0.1045                 0.0522                 0.0959
 IR Inten    --      2.5712                 1.0469                 3.0999

                     13                     14                     15
                      A                      A                      A
 Frequencies --    289.9875               312.1822               348.9515
 Red. masses --      2.9057                 3.5407                 1.1943
 Frc consts  --      0.1440                 0.2033                 0.0857
 IR Inten    --     11.1450                 3.1274               101.8785

                     16                     17                     18
                      A                      A                      A
 Frequencies --    359.9250               398.7752               438.3966
 Red. masses --      3.0167                 2.5414                 2.8306
 Frc consts  --      0.2303                 0.2381                 0.3205
 IR Inten    --      0.7392                 1.6049                 1.1823

                     19                     20                     21
                      A                      A                      A
 Frequencies --    446.9717               470.7862               496.4605
 Red. masses --      2.5241                 2.9349                 3.0872
 Frc consts  --      0.2971                 0.3833                 0.4483
 IR Inten    --      5.9970                 3.8014                 6.7660

                     22                     23                     24
                      A                      A                      A
 Frequencies --    512.6129               548.8812               566.0286
 Red. masses --      3.1306                 4.4118                 4.3132
 Frc consts  --      0.4847                 0.7831                 0.8142
 IR Inten    --      2.5935                 5.3460                 7.8450

                     25                     26                     27
                      A                      A                      A
 Frequencies --    579.5585               626.4231               650.7211
 Red. masses --      3.3746                 5.0819                 1.8967
 Frc consts  --      0.6678                 1.1749                 0.4732
 IR Inten    --     49.5790                 1.4191                62.0572

                     28                     29                     30
                      A                      A                      A
 Frequencies --    706.7389               746.7075               761.8013
 Red. masses --      2.4687                 3.4832                 1.3473
 Frc consts  --      0.7265                 1.1443                 0.4607
 IR Inten    --     46.8616                 7.4612                54.7525

                     31                     32                     33
                      A                      A                      A
 Frequencies --    799.8098               803.1881               848.8646
 Red. masses --      4.3360                 3.7096                 1.5012
 Frc consts  --      1.6342                 1.4100                 0.6373
 IR Inten    --      3.6805                 4.3306                 1.3063

                     34                     35                     36
                      A                      A                      A
 Frequencies --    868.9681               885.7007               897.7797
 Red. masses --      3.9333                 3.2748                 2.3493
 Frc consts  --      1.7499                 1.5136                 1.1157
 IR Inten    --     11.9048                 8.4469                10.9170

                     37                     38                     39
                      A                      A                      A
 Frequencies --    915.8614               936.2510               968.6760
 Red. masses --      2.0813                 1.3636                 1.3931
 Frc consts  --      1.0286                 0.7042                 0.7702
 IR Inten    --      2.8370                 1.0415                 1.4493

                     40                     41                     42
                      A                      A                      A
 Frequencies --    972.1837               985.1826              1073.5138
 Red. masses --      1.7077                 2.0583                 2.1766
 Frc consts  --      0.9510                 1.1770                 1.4779
 IR Inten    --      3.8903                 9.3352                20.6053

                     43                     44                     45
                      A                      A                      A
 Frequencies --   1086.2157              1115.6973              1126.2297
 Red. masses --      2.0857                 2.1513                 3.8236
 Frc consts  --      1.4499                 1.5777                 2.8575
 IR Inten    --     47.7927                10.6249                62.3910

                     46                     47                     48
                      A                      A                      A
 Frequencies --   1158.3757              1175.7706              1193.3442
 Red. masses --      1.5836                 2.0303                 1.1656
 Frc consts  --      1.2520                 1.6537                 0.9780
 IR Inten    --     68.6969                90.1673                 1.0427

                     49                     50                     51
                      A                      A                      A
 Frequencies --   1194.4020              1203.5346              1213.1121
 Red. masses --      1.2219                 1.3360                 2.2992
 Frc consts  --      1.0271                 1.1402                 1.9936
 IR Inten    --      5.0055                30.5594               188.9057

                     52                     53                     54
                      A                      A                      A
 Frequencies --   1239.0927              1246.5289              1269.2422
 Red. masses --      1.5046                 2.0290                 1.4601
 Frc consts  --      1.3611                 1.8575                 1.3859
 IR Inten    --     33.7786                10.1470                34.8027

                     55                     56                     57
                      A                      A                      A
 Frequencies --   1301.5541              1312.4840              1352.5727
 Red. masses --      2.9715                 2.1172                 1.4804
 Frc consts  --      2.9659                 2.1488                 1.5957
 IR Inten    --     78.2340                 6.7040                 2.3669

                     58                     59                     60
                      A                      A                      A
 Frequencies --   1358.6636              1377.5734              1386.0730
 Red. masses --      1.5938                 1.5355                 2.2827
 Frc consts  --      1.7335                 1.7169                 2.5839
 IR Inten    --     24.6860                40.4133                13.8316

                     61                     62                     63
                      A                      A                      A
 Frequencies --   1392.6471              1444.7743              1499.5379
 Red. masses --      2.3842                 1.3030                 1.2493
 Frc consts  --      2.7244                 1.6025                 1.6552
 IR Inten    --     77.9057                11.4188                12.1793

                     64                     65                     66
                      A                      A                      A
 Frequencies --   1505.4123              1512.8827              1516.3597
 Red. masses --      1.7666                 1.1962                 1.1015
 Frc consts  --      2.3589                 1.6131                 1.4922
 IR Inten    --     33.8358                 9.5124                 0.9453

                     67                     68                     69
                      A                      A                      A
 Frequencies --   1523.2283              1532.2077              1534.0480
 Red. masses --      1.0565                 1.0533                 1.0770
 Frc consts  --      1.4442                 1.4569                 1.4933
 IR Inten    --     11.4313                 1.6003                12.4047

                     70                     71                     72
                      A                      A                      A
 Frequencies --   1540.6334              1556.9934              1654.5921
 Red. masses --      1.0557                 2.4659                 5.8356
 Frc consts  --      1.4763                 3.5220                 9.4128
 IR Inten    --      3.2120                24.5263                12.1462

                     73                     74                     75
                      A                      A                      A
 Frequencies --   1670.3174              1840.1264              3031.6467
 Red. masses --      6.1393                 9.1721                 1.0397
 Frc consts  --     10.0918                18.2984                 5.6304
 IR Inten    --     13.0548               291.8798                51.8454

                     76                     77                     78
                      A                      A                      A
 Frequencies --   3067.4523              3074.1508              3102.6326
 Red. masses --      1.0612                 1.0407                 1.0776
 Frc consts  --      5.8828                 5.7946                 6.1119
 IR Inten    --     20.0218                15.8631                25.8608

                     79                     80                     81
                      A                      A                      A
 Frequencies --   3106.2249              3128.0281              3140.8238
 Red. masses --      1.0809                 1.0986                 1.1038
 Frc consts  --      6.1447                 6.3336                 6.4154
 IR Inten    --     14.0660                 8.5134                26.3783

                     82                     83                     84
                      A                      A                      A
 Frequencies --   3145.8790              3164.4119              3167.2199
 Red. masses --      1.1001                 1.0887                 1.1006
 Frc consts  --      6.4147                 6.4232                 6.5051
 IR Inten    --     21.9613                17.0030                 5.5431

                     85                     86                     87
                      A                      A                      A
 Frequencies --   3169.2182              3188.5148              3198.9495
 Red. masses --      1.1015                 1.0869                 1.0914
 Frc consts  --      6.5186                 6.5105                 6.5802
 IR Inten    --     18.5862                 1.7933                21.0950

                     88                     89                     90
                      A                      A                      A
 Frequencies --   3214.7882              3679.7715              3755.2388
 Red. masses --      1.0971                 1.0638                 1.0660
 Frc consts  --      6.6805                 8.4872                 8.8566
 IR Inten    --     21.3277                46.9219                43.2332

 - Thermochemistry -
 -------------------
 Temperature   298.150 Kelvin.  Pressure   1.00000 Atm.
 Atom     1 has atomic number  6 and mass  12.00000

 Molecular mass:   224.10486 amu.
 Principal axes and moments of inertia in atomic units:
                           1         2         3
     Eigenvalues --  2031.167805671.363915735.96319
           X            0.99985   0.01334  -0.01069
           Y           -0.01034   0.96990   0.24328
           Z            0.01361  -0.24313   0.96990
 This molecule is an asymmetric top.
 Rotational symmetry number  1.
 Warning -- assumption of classical behavior for rotation
           may cause significant error
 Rotational temperatures (Kelvin)      0.04264     0.01527     0.01510
 Rotational constants (GHZ):           0.88852     0.31822     0.31464
 Zero-point vibrational energy     701862.3 (Joules/Mol)
                                  167.74912 (Kcal/Mol)
 Warning -- explicit consideration of  25 degrees of freedom as
           vibrations may cause significant error
 Vibrational temperatures:     42.37    48.92   102.95   119.99   131.91
          (Kelvin)            195.07   220.53   261.99   304.51   340.11
                              369.48   387.44   417.23   449.16   502.06
                              517.85   573.75   630.75   643.09   677.36
                              714.30   737.54   789.72   814.39   833.86
                              901.28   936.24  1016.84  1074.35  1096.06
                             1150.75  1155.61  1221.33  1250.25  1274.33
                             1291.70  1317.72  1347.06  1393.71  1398.76
                             1417.46  1544.55  1562.82  1605.24  1620.39
                             1666.64  1691.67  1716.96  1718.48  1731.62
                             1745.40  1782.78  1793.48  1826.16  1872.65
                             1888.37  1946.05  1954.81  1982.02  1994.25
                             2003.71  2078.71  2157.50  2165.95  2176.70
                             2181.70  2191.59  2204.51  2207.15  2216.63
                             2240.17  2380.59  2403.21  2647.53  4361.86
                             4413.38  4423.02  4464.00  4469.16  4500.53
                             4518.94  4526.22  4552.88  4556.92  4559.80
                             4587.56  4602.57  4625.36  5294.37  5402.95

 Zero-point correction=                           0.267325 (Hartree/Particle)
 Thermal correction to Energy=                    0.283276
 Thermal correction to Enthalpy=                  0.284220
 Thermal correction to Gibbs Free Energy=         0.223420
 Sum of electronic and zero-point Energies=           -767.598760
 Sum of electronic and thermal Energies=              -767.582809
 Sum of electronic and thermal Enthalpies=            -767.581865
 Sum of electronic and thermal Free Energies=         -767.642666

                     E (Thermal)             CV                S
                      KCal/Mol        Cal/Mol-Kelvin    Cal/Mol-Kelvin
 Total                  177.759             60.761            127.965
 Electronic               0.000              0.000              0.000
 Translational            0.889              2.981             42.123
 Rotational               0.889              2.981             32.558
 Vibrational            175.981             54.799             53.285
 Vibration     1          0.593              1.984              5.866
 Vibration     2          0.594              1.983              5.581
 Vibration     3          0.598              1.968              4.110
 Vibration     4          0.600              1.961              3.809
 Vibration     5          0.602              1.955              3.624
 Vibration     6          0.613              1.918              2.865
 Vibration     7          0.619              1.899              2.631
 Vibration     8          0.630              1.864              2.307
 Vibration     9          0.643              1.823              2.029
 Vibration    10          0.655              1.785              1.830
 Vibration    11          0.666              1.751              1.683
 Vibration    12          0.674              1.730              1.601
 Vibration    13          0.686              1.692              1.474
 Vibration    14          0.701              1.650              1.351
 Vibration    15          0.726              1.577              1.171
 Vibration    16          0.734              1.555              1.122
 Vibration    17          0.765              1.473              0.967
 Vibration    18          0.799              1.386              0.832
 Vibration    19          0.806              1.368              0.805
 Vibration    20          0.828              1.315              0.735
 Vibration    21          0.852              1.258              0.667
 Vibration    22          0.868              1.222              0.627
 Vibration    23          0.904              1.142              0.546
 Vibration    24          0.922              1.105              0.512
 Vibration    25          0.936              1.075              0.486

 Optimization completed.
    -- Stationary point found.
 Normal termination of Gaussian 16 at Thu Dec 10 22:25:11 2020.

 ----------------------------------------------------------------------
 # B3LYP/6-311++G(d,p) empiricaldispersion=gd3bj scf=xqc pop=npa geom=c
 heck
 ----------------------------------------------------------------------

 ---------------------------------------
 CID_105481757_JID_6295_Energie_neutraal
 ---------------------------------------
 Structure from the checkpoint file:  "JID_6295.chk"
 Charge =  0 Multiplicity = 1

 SCF Done:  E(RB3LYP) =  -768.100931953     A.U. after   16 cycles
 Normal termination of Gaussian 16 at Thu Dec 10 22:31:21 2020.

 ----------------------------------------------------------------------
 # B3LYP/6-311++G(d,p) empiricaldispersion=gd3bj scf=xqc pop=npa geom=c
 heck
 ----------------------------------------------------------------------

 -------------------------------------
 CID_105481757_JID_6295_Energie_kation
 -------------------------------------
 Structure from the checkpoint file:  "JID_6295.chk"
 Charge =  1 Multiplicity = 2

 SCF Done:  E(UB3LYP) =  -767.800546979     A.U. after   25 cycles
 Normal termination of Gaussian 16 at Thu Dec 10 22:44:56 2020.
 Gaussian 16:  ES64L-G16RevA.03 25-Dec-2016

 ----------------------------------------------------------------------
 # B3LYP/6-311++G(d,p) empiricaldispersion=gd3bj scf=xqc pop=npa geom=c
 heck
 ----------------------------------------------------------------------

 ------------------------------------
 CID_105481757_JID_6295_Energie_anion
 ------------------------------------
 Structure from the checkpoint file:  "JID_6295.chk"
 Charge = -1 Multiplicity = 2

                         Standard orientation:
 ---------------------------------------------------------------------
 Center     Atomic      Atomic             Coordinates (Angstroms)
 Number     Number       Type             X           Y           Z
 ---------------------------------------------------------------------
      1          6           0       -0.866825   -1.538636   -1.292953
      2          6           0       -0.980596   -0.798988    0.040376
      3          6           0        0.280000   -1.044865    0.918619
      4          6           0        1.577431   -0.509080    0.364227
      5          6           0        2.359879   -1.257366   -0.521387
      6          6           0        3.555204   -0.768384   -1.048768
      7          6           0        3.996496    0.501319   -0.680439
      8          6           0        3.246980    1.264570    0.213160
      9          6           0        2.051648    0.762373    0.732689
     10          8           0        1.298354    1.484477    1.625769
     11          6           0       -1.181345    0.728970   -0.175395
     12          6           0       -2.530451    1.077561   -0.751887
     13          8           0       -3.492271    1.456324   -0.118303
     14          8           0       -2.576693    0.929922   -2.101479
     15          8           0       -2.124474   -1.394640    0.659808
     16          6           0       -2.541548   -0.896458    1.922781
     17          1           0       -0.032346   -1.155787   -1.885482
     18          1           0       -1.785684   -1.421256   -1.869739
     19          1           0       -0.709789   -2.605521   -1.105354
     20          1           0        0.112219   -0.606579    1.905257
     21          1           0        0.356174   -2.129881    1.051313
     22          1           0        2.018403   -2.251339   -0.797016
     23          1           0        4.136909   -1.375729   -1.735196
     24          1           0        4.924801    0.900146   -1.078935
     25          1           0        3.590188    2.253068    0.513620
     26          1           0        1.749507    2.322960    1.807988
     27          1           0       -1.083463    1.257477    0.772949
     28          1           0       -0.391756    1.086019   -0.841898
     29          1           0       -3.491448    1.151795   -2.359532
     30          1           0       -1.791926   -1.061783    2.708143
     31          1           0       -2.802998    0.166115    1.882104
     32          1           0       -3.439352   -1.464477    2.179279
 ---------------------------------------------------------------------

 SCF Done:  E(UB3LYP) =  -768.091160331     A.U. after   33 cycles
 SCF Done:  E(UB3LYP) =  -768.091160332     a.u. after    1 cycles

 The electronic state is 2-A.
 Alpha  occ. eigenvalues --  -19.07967 -19.05230 -19.03517 -19.02478 -10.21626
 Alpha  occ. eigenvalues --  -10.15160 -10.13953 -10.11867 -10.08700 -10.08650
 Alpha  occ. eigenvalues --  -10.08202 -10.08172 -10.08137 -10.07588 -10.07551
 Alpha  occ. eigenvalues --  -10.06519  -1.01994  -0.96293  -0.94708  -0.92948
 Alpha  occ. eigenvalues --   -0.76415  -0.72346  -0.67485  -0.64597  -0.64172
 Alpha  occ. eigenvalues --   -0.60019  -0.58694  -0.53226  -0.52969  -0.49965
 Alpha  occ. eigenvalues --   -0.46411  -0.44517  -0.42284  -0.40595  -0.40000
 Alpha  occ. eigenvalues --   -0.39663  -0.38092  -0.37420  -0.35909  -0.35096
 Alpha  occ. eigenvalues --   -0.34069  -0.33666  -0.32261  -0.32151  -0.31343
 Alpha  occ. eigenvalues --   -0.30463  -0.29955  -0.29160  -0.28320  -0.27186
 Alpha  occ. eigenvalues --   -0.26681  -0.25806  -0.24569  -0.24213  -0.23487
 Alpha  occ. eigenvalues --   -0.21845  -0.19211  -0.18023  -0.15482  -0.13126
 Alpha  occ. eigenvalues --    0.04188
 Alpha virt. eigenvalues --    0.05863   0.06526   0.07062   0.07547   0.08217
 Alpha virt. eigenvalues --    0.08403   0.09104   0.09329   0.09942   0.10603
 Alpha virt. eigenvalues --    0.11096   0.11268   0.11408   0.12626   0.13246

  Beta  occ. eigenvalues --  -19.07932 -19.05165 -19.03513 -19.02471 -10.21622
  Beta  occ. eigenvalues --  -10.15160 -10.13954 -10.11861 -10.08691 -10.08634
  Beta  occ. eigenvalues --  -10.08194 -10.08166 -10.08123 -10.07581 -10.07508
  Beta  occ. eigenvalues --  -10.06511  -1.01948  -0.96176  -0.94702  -0.92913
  Beta  occ. eigenvalues --   -0.76382  -0.72329  -0.67450  -0.64546  -0.64143
  Beta  occ. eigenvalues --   -0.59992  -0.58679  -0.53139  -0.52906  -0.49924
  Beta  occ. eigenvalues --   -0.46369  -0.44428  -0.42264  -0.40554  -0.39978
  Beta  occ. eigenvalues --   -0.39637  -0.38038  -0.37397  -0.35886  -0.35078
  Beta  occ. eigenvalues --   -0.34020  -0.33632  -0.32237  -0.32114  -0.31316
  Beta  occ. eigenvalues --   -0.30435  -0.29919  -0.29144  -0.28295  -0.27165
  Beta  occ. eigenvalues --   -0.26659  -0.25770  -0.24534  -0.24172  -0.23461
  Beta  occ. eigenvalues --   -0.21830  -0.19186  -0.18011  -0.15448  -0.13094
  Beta virt. eigenvalues --    0.06324   0.06925   0.07206   0.07645   0.07814
  Beta virt. eigenvalues --    0.08554   0.08792   0.09265   0.09530   0.10051
  Beta virt. eigenvalues --    0.10718   0.11281   0.11350   0.11744   0.12686

 Mulliken charges and spin densities:
               1          2
     1  C   -0.524912  -0.128756
     2  C   -0.419229   0.289667
     3  C    2.021857  -2.202512
     4  C    1.804074  -0.375339
     5  C   -0.963518   0.799879
     6  C   -0.729208   0.312830
     7  C    1.353003  -1.672168
     8  C   -0.713190   0.414057
     9  C   -1.007121   0.255562
    10  O   -0.236093   0.029468
    11  C    0.262033  -0.897959
    12  C   -0.245759   0.053146
    13  O   -0.258554   0.005456
    14  O   -0.118228  -0.001590
    15  O   -0.028346  -0.001555
    16  C   -0.019811  -0.198684
    17  H    0.200186  -0.023851
    18  H    0.097085   0.085229
    19  H    0.025851   0.126292
    20  H    0.105815   0.164947
    21  H    0.122329   0.090614
    22  H    0.002430   0.143419
    23  H   -0.272149   0.437123
    24  H   -0.138764   0.297068
    25  H   -1.348554   1.534912
    26  H   -0.471931   0.766585
    27  H    0.211393   0.061269
    28  H    0.185453   0.023475
    29  H   -0.199325   0.478264
    30  H    0.081989   0.024091
    31  H    0.157012   0.019587
    32  H    0.064183   0.089474
 Sum of Mulliken charges =  -1.00000   1.00000

 Dipole moment (field-independent basis, Debye):
    X=             -3.7601    Y=             -6.6468    Z=             -0.7425  Tot=              7.6726
 Quadrupole moment (field-independent basis, Debye-Ang):
   XX=           -173.4030   YY=           -143.7692   ZZ=           -130.7299
   XY=            -12.5354   XZ=            -10.3959   YZ=             -9.2580

 Summary of Natural Population Analysis:

                                       Natural Population
                Natural  -----------------------------------------------
    Atom  No    Charge         Core      Valence    Rydberg      Total
 -----------------------------------------------------------------------
      C    1   -0.29363      0.99959     2.28760    0.00644     3.29363
      C    2    0.15545      0.99953     1.83040    0.01462     2.84455
      C    3   -0.21199      0.99955     2.20139    0.01105     3.21199
      C    4   -0.04619      0.99946     2.03487    0.01186     3.04619
      C    5   -0.09182      0.99952     2.08406    0.00825     3.09182
      C    6   -0.11729      0.99956     2.10808    0.00965     3.11729
      C    7   -0.09268      0.99957     2.08231    0.01080     3.09268
      C    8   -0.12978      0.99951     2.11921    0.01106     3.12978
      C    9    0.16168      0.99933     1.82486    0.01412     2.83832
      O   10   -0.34689      0.99988     3.33899    0.00802     4.34689
      C   11   -0.26350      0.99951     2.25298    0.01100     3.26350
      C   12    0.41277      0.99972     1.56085    0.02666     2.58723
      O   13   -0.30829      0.99987     3.30254    0.00588     4.30829
      O   14   -0.34544      0.99988     3.33892    0.00665     4.34544
      O   15   -0.31116      0.99986     3.30058    0.01071     4.31116
      C   16   -0.10296      0.99959     2.09536    0.00801     3.10296
      H   17    0.10525      0.00000     0.39378    0.00097     0.39475
      H   18    0.10968      0.00000     0.38900    0.00133     0.39032
      H   19    0.09984      0.00000     0.39903    0.00113     0.40016
      H   20    0.11284      0.00000     0.38528    0.00189     0.38716
      H   21    0.10543      0.00000     0.39341    0.00115     0.39457
      H   22    0.09875      0.00000     0.39998    0.00127     0.40125
      H   23    0.09992      0.00000     0.39916    0.00092     0.40008
      H   24    0.10188      0.00000     0.39704    0.00108     0.39812
      H   25    0.10858      0.00000     0.38597    0.00545     0.39142
      H   26    0.24652      0.00000     0.23153    0.02195     0.25348
      H   27    0.12268      0.00000     0.37564    0.00168     0.37732
      H   28    0.12179      0.00000     0.37670    0.00151     0.37821
      H   29    0.24097      0.00000     0.25204    0.00699     0.25903
      H   30    0.07748      0.00000     0.42133    0.00120     0.42252
      H   31    0.09154      0.00000     0.40714    0.00133     0.40846
      H   32    0.08858      0.00000     0.41058    0.00084     0.41142
 =======================================================================
   * Total *    0.00000     15.99393    43.78060    0.22547    60.00000

 Normal termination of Gaussian 16 at Thu Dec 10 23:03:41 2020.
