 Gaussian 16, Revision A.03,

 -----------------------------------------------------------
 # opt freq B3LYP/6-31G(d) empiricaldispersion=gd3bj scf=xqc
 -----------------------------------------------------------

 -------------------------------
 CID_102305067_JID_3883_neutraal
 -------------------------------
 Symbolic Z-matrix:
 Charge =  0 Multiplicity = 1

 SCF Done:  E(RB3LYP) =  -685.796871540     A.U. after   15 cycles
 SCF Done:  E(RB3LYP) =  -685.802816139     A.U. after   13 cycles
 SCF Done:  E(RB3LYP) =  -685.803458913     A.U. after   12 cycles
 SCF Done:  E(RB3LYP) =  -685.803581758     A.U. after   11 cycles
 SCF Done:  E(RB3LYP) =  -685.803535718     A.U. after   12 cycles
 SCF Done:  E(RB3LYP) =  -685.803644531     A.U. after   11 cycles
 SCF Done:  E(RB3LYP) =  -685.803652594     A.U. after    9 cycles
 SCF Done:  E(RB3LYP) =  -685.803659743     A.U. after   10 cycles
 SCF Done:  E(RB3LYP) =  -685.803674915     A.U. after   11 cycles
 SCF Done:  E(RB3LYP) =  -685.803684686     A.U. after   11 cycles
 SCF Done:  E(RB3LYP) =  -685.803714700     A.U. after    9 cycles
 SCF Done:  E(RB3LYP) =  -685.803723297     A.U. after   10 cycles
 SCF Done:  E(RB3LYP) =  -685.803728675     A.U. after   11 cycles
 SCF Done:  E(RB3LYP) =  -685.803730032     A.U. after    9 cycles
 SCF Done:  E(RB3LYP) =  -685.803730409     A.U. after    8 cycles
 SCF Done:  E(RB3LYP) =  -685.803730450     A.U. after    7 cycles
 Optimization completed.
    -- Stationary point found.
 Normal termination of Gaussian 16 at Mon Dec 14 18:44:05 2020.

 --------------------------------------------------------------------
 #N Geom=AllCheck Guess=TCheck SCRF=Check GenChk RB3LYP/6-31G(d) Freq
 --------------------------------------------------------------------

 Structure from the checkpoint file:  "JID_3883.chk"
 -------------------------------
 CID_102305067_JID_3883_neutraal
 -------------------------------
 Charge =  0 Multiplicity = 1

 SCF Done:  E(RB3LYP) =  -685.803730450     A.U. after    1 cycles

  Exact polarizability: 156.934  23.636 111.334  -1.858  -3.553  50.816
 Approx polarizability: 246.123  75.089 191.659  -7.796 -14.105  77.843

                      1                      2                      3
                      A                      A                      A
 Frequencies --     44.0510                56.1843                75.3612
 Red. masses --      8.3861                 2.9569                 4.2085
 Frc consts  --      0.0096                 0.0055                 0.0141
 IR Inten    --      1.6010                 3.7570                 1.3222

                      4                      5                      6
                      A                      A                      A
 Frequencies --    105.0288               108.9738               123.7105
 Red. masses --      4.0734                 1.4500                 2.5481
 Frc consts  --      0.0265                 0.0101                 0.0230
 IR Inten    --      1.8535                 0.6133                 0.7246

                      7                      8                      9
                      A                      A                      A
 Frequencies --    149.0209               195.6691               225.3549
 Red. masses --      1.1413                 5.9222                 4.1698
 Frc consts  --      0.0149                 0.1336                 0.1248
 IR Inten    --      0.0663                 0.8876                 1.3708

                     10                     11                     12
                      A                      A                      A
 Frequencies --    229.7415               245.9409               329.7203
 Red. masses --      3.1469                 6.0013                 4.1259
 Frc consts  --      0.0979                 0.2139                 0.2643
 IR Inten    --      2.8596                 2.7533                 1.3514

                     13                     14                     15
                      A                      A                      A
 Frequencies --    336.0808               408.8349               519.4906
 Red. masses --     10.7582                 8.2067                 6.0135
 Frc consts  --      0.7159                 0.8082                 0.9562
 IR Inten    --      2.3354                18.6366                 6.2434

                     16                     17                     18
                      A                      A                      A
 Frequencies --    568.9027               590.7534               623.9665
 Red. masses --      4.4236                 4.9993                 1.4181
 Frc consts  --      0.8435                 1.0279                 0.3253
 IR Inten    --     29.7024                29.7837                73.7438

                     19                     20                     21
                      A                      A                      A
 Frequencies --    664.6123               675.5309               733.2038
 Red. masses --      5.8346                 7.0055                 8.8392
 Frc consts  --      1.5185                 1.8836                 2.7997
 IR Inten    --     33.6418                 6.4184                 9.2301

                     22                     23                     24
                      A                      A                      A
 Frequencies --    740.0978               757.3643               763.6794
 Red. masses --      3.7533                 5.4418                 5.5664
 Frc consts  --      1.2113                 1.8391                 1.9127
 IR Inten    --      6.6650                31.7979                14.6457

                     25                     26                     27
                      A                      A                      A
 Frequencies --    882.3600               920.2445               935.5824
 Red. masses --      1.4716                 5.8673                 3.2809
 Frc consts  --      0.6751                 2.9275                 1.6920
 IR Inten    --     31.4962                23.7135                32.6076

                     28                     29                     30
                      A                      A                      A
 Frequencies --    996.9548              1045.1005              1064.3109
 Red. masses --      8.0323                 3.1484                 3.8877
 Frc consts  --      4.7037                 2.0261                 2.5947
 IR Inten    --    161.7197                60.5850                29.8556

                     31                     32                     33
                      A                      A                      A
 Frequencies --   1071.5626              1173.0046              1183.4328
 Red. masses --      1.4690                 2.7330                 1.2690
 Frc consts  --      0.9938                 2.2156                 1.0472
 IR Inten    --      0.2918                54.1761                 2.8616

                     34                     35                     36
                      A                      A                      A
 Frequencies --   1206.4124              1230.6617              1279.8077
 Red. masses --      1.6803                 1.7885                 3.2100
 Frc consts  --      1.4409                 1.5959                 3.0978
 IR Inten    --    142.2114               193.9566                13.0522

                     37                     38                     39
                      A                      A                      A
 Frequencies --   1363.8685              1378.5877              1424.3740
 Red. masses --      2.3767                 2.6888                 3.3230
 Frc consts  --      2.6048                 3.0107                 3.9722
 IR Inten    --    132.0610                84.8425               123.0048

                     40                     41                     42
                      A                      A                      A
 Frequencies --   1445.8967              1500.6918              1507.0835
 Red. masses --      1.4409                 1.1811                 1.0500
 Frc consts  --      1.7748                 1.5671                 1.4051
 IR Inten    --     10.3798                 3.6844                 6.6115

                     43                     44                     45
                      A                      A                      A
 Frequencies --   1514.7089              1516.9469              1533.5594
 Red. masses --      1.1249                 1.0496                 1.0532
 Frc consts  --      1.5207                 1.4230                 1.4594
 IR Inten    --      1.4909                 6.7237                 7.1021

                     46                     47                     48
                      A                      A                      A
 Frequencies --   1720.3035              1727.3812              1808.4341
 Red. masses --      9.5265                 9.2679                 8.9597
 Frc consts  --     16.6110                16.2932                17.2644
 IR Inten    --    157.6922                57.7510               558.6763

                     49                     50                     51
                      A                      A                      A
 Frequencies --   1893.9367              3051.4738              3056.7953
 Red. masses --     12.8969                 1.0323                 1.0367
 Frc consts  --     27.2562                 5.6633                 5.7073
 IR Inten    --    346.9427                39.3331                12.3115

                     52                     53                     54
                      A                      A                      A
 Frequencies --   3110.7353              3121.3727              3150.8654
 Red. masses --      1.1004                 1.1072                 1.1022
 Frc consts  --      6.2740                 6.3560                 6.4469
 IR Inten    --      7.1399                23.9271                 7.7411

                     55                     56                     57
                      A                      A                      A
 Frequencies --   3178.2078              3245.2491              3693.9618
 Red. masses --      1.1036                 1.0895                 1.0640
 Frc consts  --      6.5678                 6.7603                 8.5542
 IR Inten    --     17.0420                 0.8126                71.7772

 - Thermochemistry -
 -------------------
 Temperature   298.150 Kelvin.  Pressure   1.00000 Atm.
 Atom     1 has atomic number  6 and mass  12.00000

 Molecular mass:   184.03717 amu.
 Principal axes and moments of inertia in atomic units:
                           1         2         3
     Eigenvalues --  1535.328353153.136684551.62836
           X            0.99970  -0.02463  -0.00003
           Y            0.02463   0.99953   0.01827
           Z           -0.00042  -0.01826   0.99983
 This molecule is an asymmetric top.
 Rotational symmetry number  1.
 Warning -- assumption of classical behavior for rotation
           may cause significant error
 Rotational temperatures (Kelvin)      0.05641     0.02747     0.01903
 Rotational constants (GHZ):           1.17548     0.57236     0.39650
 Zero-point vibrational energy     407957.4 (Joules/Mol)
                                   97.50415 (Kcal/Mol)
 Warning -- explicit consideration of  17 degrees of freedom as
           vibrations may cause significant error
 Vibrational temperatures:     63.38    80.84   108.43   151.11   156.79
          (Kelvin)            177.99   214.41   281.52   324.24   330.55
                              353.85   474.39   483.55   588.22   747.43
                              818.52   849.96   897.75   956.23   971.94
                             1054.92  1064.84  1089.68  1098.76  1269.52
                             1324.03  1346.09  1434.40  1503.67  1531.31
                             1541.74  1687.69  1702.70  1735.76  1770.65
                             1841.36  1962.30  1983.48  2049.36  2080.32
                             2159.16  2168.36  2179.33  2182.55  2206.45
                             2475.13  2485.32  2601.93  2724.95  4390.39
                             4398.05  4475.65  4490.96  4533.39  4572.73
                             4669.19  5314.79

 Zero-point correction=                           0.155383 (Hartree/Particle)
 Thermal correction to Energy=                    0.168353
 Thermal correction to Enthalpy=                  0.169297
 Thermal correction to Gibbs Free Energy=         0.114686
 Sum of electronic and zero-point Energies=           -685.648348
 Sum of electronic and thermal Energies=              -685.635377
 Sum of electronic and thermal Enthalpies=            -685.634433
 Sum of electronic and thermal Free Energies=         -685.689044

                     E (Thermal)             CV                S
                      KCal/Mol        Cal/Mol-Kelvin    Cal/Mol-Kelvin
 Total                  105.643             45.207            114.939
 Electronic               0.000              0.000              0.000
 Translational            0.889              2.981             41.536
 Rotational               0.889              2.981             31.466
 Vibrational            103.866             39.246             41.936
 Vibration     1          0.595              1.980              5.068
 Vibration     2          0.596              1.975              4.587
 Vibration     3          0.599              1.965              4.008
 Vibration     4          0.605              1.945              3.359
 Vibration     5          0.606              1.942              3.287
 Vibration     6          0.610              1.929              3.042
 Vibration     7          0.618              1.904              2.685
 Vibration     8          0.636              1.846              2.173
 Vibration     9          0.650              1.802              1.916
 Vibration    10          0.652              1.796              1.881
 Vibration    11          0.660              1.769              1.759
 Vibration    12          0.713              1.616              1.261
 Vibration    13          0.717              1.603              1.231
 Vibration    14          0.773              1.451              0.931
 Vibration    15          0.874              1.207              0.611
 Vibration    16          0.925              1.099              0.506
 Vibration    17          0.948              1.051              0.466

                           ! Non-Optimized Parameters !
 Normal termination of Gaussian 16 at Mon Dec 14 18:48:37 2020.

 ----------------------------------------------------------------------
 # B3LYP/6-311++G(d,p) empiricaldispersion=gd3bj scf=xqc pop=npa geom=c
 heck
 ----------------------------------------------------------------------

 ---------------------------------------
 CID_102305067_JID_3883_Energie_neutraal
 ---------------------------------------
 Structure from the checkpoint file:  "JID_3883.chk"
 Charge =  0 Multiplicity = 1

 SCF Done:  E(RB3LYP) =  -686.011667081     A.U. after   16 cycles
 Normal termination of Gaussian 16 at Mon Dec 14 18:50:26 2020.

 ----------------------------------------------------------------------
 # B3LYP/6-311++G(d,p) empiricaldispersion=gd3bj scf=xqc pop=npa geom=c
 heck
 ----------------------------------------------------------------------

 -------------------------------------
 CID_102305067_JID_3883_Energie_kation
 -------------------------------------
 Structure from the checkpoint file:  "JID_3883.chk"
 Charge =  1 Multiplicity = 2

 SCF Done:  E(UB3LYP) =  -685.670174496     A.U. after   29 cycles
 Normal termination of Gaussian 16 at Mon Dec 14 18:55:13 2020.
 Gaussian 16:  ES64L-G16RevA.03 25-Dec-2016

 ----------------------------------------------------------------------
 # B3LYP/6-311++G(d,p) empiricaldispersion=gd3bj scf=xqc pop=npa geom=c
 heck
 ----------------------------------------------------------------------

 ------------------------------------
 CID_102305067_JID_3883_Energie_anion
 ------------------------------------
 Structure from the checkpoint file:  "JID_3883.chk"
 Charge = -1 Multiplicity = 2

                         Standard orientation:
 ---------------------------------------------------------------------
 Center     Atomic      Atomic             Coordinates (Angstroms)
 Number     Number       Type             X           Y           Z
 ---------------------------------------------------------------------
      1          6           0       -3.427084   -0.152693   -0.240663
      2          6           0       -1.947699   -0.281154   -0.144494
      3          6           0       -0.980973    0.656450   -0.233436
      4          6           0        0.331653    0.007163   -0.091190
      5          6           0        1.532015    0.608264   -0.191308
      6          6           0        2.868434    0.010398   -0.068695
      7          8           0        3.893086    0.657386   -0.181296
      8          8           0        2.865677   -1.318390    0.184682
      9          8           0        0.125292   -1.324982    0.125757
     10          6           0       -1.263302   -1.568380    0.087117
     11          8           0       -1.708380   -2.672209    0.241055
     12          8           0       -1.127385    1.979863   -0.470752
     13          6           0       -1.005226    2.819045    0.691287
     14          1           0       -3.907483   -0.473017    0.691154
     15          1           0       -3.709592    0.881708   -0.451087
     16          1           0       -3.818842   -0.796255   -1.036409
     17          1           0        1.535739    1.669952   -0.404943
     18          1           0        3.805017   -1.575023    0.239436
     19          1           0       -1.813717    2.607757    1.400255
     20          1           0       -0.038531    2.672262    1.184229
     21          1           0       -1.085814    3.844710    0.330100
 ---------------------------------------------------------------------

 SCF Done:  E(UB3LYP) =  -686.058761609     A.U. after   20 cycles

 The electronic state is 2-A.
 Alpha  occ. eigenvalues --  -19.02591 -19.02128 -19.02000 -18.95111 -18.94893
 Alpha  occ. eigenvalues --  -10.14361 -10.12946 -10.11475 -10.08393 -10.08037
 Alpha  occ. eigenvalues --  -10.05050 -10.02944 -10.01421  -0.96187  -0.95666
 Alpha  occ. eigenvalues --   -0.93957  -0.88058  -0.86535  -0.67879  -0.64149
 Alpha  occ. eigenvalues --   -0.60487  -0.57082  -0.52027  -0.46440  -0.44445
 Alpha  occ. eigenvalues --   -0.41638  -0.37738  -0.36190  -0.35665  -0.34058
 Alpha  occ. eigenvalues --   -0.33429  -0.32057  -0.30256  -0.29833  -0.28683
 Alpha  occ. eigenvalues --   -0.28588  -0.27316  -0.26741  -0.25426  -0.24641
 Alpha  occ. eigenvalues --   -0.22588  -0.21607  -0.18252  -0.16708  -0.13633
 Alpha  occ. eigenvalues --   -0.13337  -0.12602  -0.10446   0.01746
 Alpha virt. eigenvalues --    0.07879   0.09415   0.10137   0.10887   0.12337
 Alpha virt. eigenvalues --    0.13134   0.13357   0.14038   0.14810   0.15488
 Alpha virt. eigenvalues --    0.16817   0.17184   0.17439   0.18217   0.18719

  Beta  occ. eigenvalues --  -19.02581 -19.02085 -19.02085 -18.94860 -18.94509
  Beta  occ. eigenvalues --  -10.14262 -10.12773 -10.11441 -10.08173 -10.07789
  Beta  occ. eigenvalues --  -10.05071 -10.02707 -10.01188  -0.96011  -0.95482
  Beta  occ. eigenvalues --   -0.93850  -0.87510  -0.86176  -0.67399  -0.63580
  Beta  occ. eigenvalues --   -0.60297  -0.56877  -0.51401  -0.46158  -0.44162
  Beta  occ. eigenvalues --   -0.41331  -0.37403  -0.35990  -0.35290  -0.33927
  Beta  occ. eigenvalues --   -0.33232  -0.31335  -0.29542  -0.29472  -0.28415
  Beta  occ. eigenvalues --   -0.28284  -0.27133  -0.26538  -0.25223  -0.24360
  Beta  occ. eigenvalues --   -0.22419  -0.19996  -0.17338  -0.16547  -0.13064
  Beta  occ. eigenvalues --   -0.12679  -0.12114  -0.08312
  Beta virt. eigenvalues --    0.07621   0.08288   0.09399   0.10147   0.10849
  Beta virt. eigenvalues --    0.12294   0.13145   0.13347   0.14035   0.15100
  Beta virt. eigenvalues --    0.16731   0.17110   0.17282   0.17495   0.18230

 Mulliken charges and spin densities:
               1          2
     1  C   -0.256744  -0.007634
     2  C    1.063810   0.186477
     3  C   -1.102132   0.123874
     4  C    0.282784   0.130543
     5  C   -0.298052   0.171860
     6  C   -0.040922   0.082334
     7  O   -0.401139   0.081895
     8  O   -0.249477   0.009564
     9  O   -0.131398  -0.025674
    10  C   -0.201642   0.099778
    11  O   -0.421890   0.133672
    12  O   -0.192009  -0.001209
    13  C   -0.297710  -0.016699
    14  H    0.132455   0.015232
    15  H    0.161224   0.001056
    16  H    0.137397   0.007284
    17  H    0.164215  -0.009335
    18  H    0.272479  -0.001103
    19  H    0.119259   0.003808
    20  H    0.148668  -0.001970
    21  H    0.110826   0.016250
 Sum of Mulliken charges =  -1.00000   1.00000

 Dipole moment (field-independent basis, Debye):
    X=             -2.6815    Y=              3.8123    Z=              1.0990  Tot=              4.7887
 Quadrupole moment (field-independent basis, Debye-Ang):
   XX=           -110.7842   YY=            -96.9420   ZZ=            -80.1548
   XY=            -16.3276   XZ=              1.4355   YZ=              5.1956

 Summary of Natural Population Analysis:

                                       Natural Population
                Natural  -----------------------------------------------
    Atom  No    Charge         Core      Valence    Rydberg      Total
 -----------------------------------------------------------------------
      C    1   -0.29652      0.99965     2.29159    0.00528     3.29652
      C    2   -0.04563      0.99939     2.03662    0.00962     3.04563
      C    3    0.18639      0.99923     1.80034    0.01403     2.81361
      C    4    0.19616      0.99938     1.79166    0.01281     2.80384
      C    5   -0.14878      0.99945     2.13940    0.00993     3.14878
      C    6    0.39516      0.99969     1.58046    0.02468     2.60484
      O    7   -0.31191      0.99987     3.30435    0.00769     4.31191
      O    8   -0.34213      0.99988     3.33564    0.00661     4.34213
      O    9   -0.27764      0.99986     3.26854    0.00924     4.27764
      C   10    0.40900      0.99961     1.56667    0.02471     2.59100
      O   11   -0.26498      0.99986     3.25814    0.00698     4.26498
      O   12   -0.28921      0.99985     3.27847    0.01089     4.28921
      C   13   -0.09238      0.99960     2.08511    0.00768     3.09238
      H   14    0.10278      0.00000     0.39608    0.00114     0.39722
      H   15    0.09783      0.00000     0.40106    0.00111     0.40217
      H   16    0.10398      0.00000     0.39491    0.00111     0.39602
      H   17    0.10219      0.00000     0.39674    0.00107     0.39781
      H   18    0.22812      0.00000     0.26878    0.00310     0.27188
      H   19    0.07774      0.00000     0.42087    0.00139     0.42226
      H   20    0.08697      0.00000     0.41157    0.00146     0.41303
      H   21    0.08284      0.00000     0.41628    0.00088     0.41716
 =======================================================================
   * Total *    0.00000     12.99532    34.84327    0.16141    48.00000

 Normal termination of Gaussian 16 at Mon Dec 14 18:58:36 2020.
