 Gaussian 16, Revision A.03,

 -----------------------------------------------------------
 # opt freq B3LYP/6-31G(d) empiricaldispersion=gd3bj scf=xqc
 -----------------------------------------------------------

 -----------------------------
 CID_3375987_JID_6009_neutraal
 -----------------------------
 Symbolic Z-matrix:
 Charge =  0 Multiplicity = 1

 SCF Done:  E(RB3LYP) =  -712.092769043     A.U. after   15 cycles
 SCF Done:  E(RB3LYP) =  -712.094002703     A.U. after   13 cycles
 SCF Done:  E(RB3LYP) =  -712.094992608     A.U. after   14 cycles
 SCF Done:  E(RB3LYP) =  -712.096507573     A.U. after   13 cycles
 SCF Done:  E(RB3LYP) =  -712.098730217     A.U. after   12 cycles
 SCF Done:  E(RB3LYP) =  -712.099510420     A.U. after   12 cycles
 SCF Done:  E(RB3LYP) =  -712.099459946     A.U. after   13 cycles
 SCF Done:  E(RB3LYP) =  -712.099927189     A.U. after   12 cycles
 SCF Done:  E(RB3LYP) =  -712.099969295     A.U. after   12 cycles
 SCF Done:  E(RB3LYP) =  -712.100057225     A.U. after   11 cycles
 SCF Done:  E(RB3LYP) =  -712.100095791     A.U. after    7 cycles
 SCF Done:  E(RB3LYP) =  -712.100096063     A.U. after    8 cycles
 SCF Done:  E(RB3LYP) =  -712.100096160     A.U. after    7 cycles
 SCF Done:  E(RB3LYP) =  -712.100096202     A.U. after    6 cycles
 Optimization completed.
    -- Stationary point found.
 Normal termination of Gaussian 16 at Thu Dec 10 21:17:20 2020.

 --------------------------------------------------------------------
 #N Geom=AllCheck Guess=TCheck SCRF=Check GenChk RB3LYP/6-31G(d) Freq
 --------------------------------------------------------------------

 Structure from the checkpoint file:  "JID_6009.chk"
 -----------------------------
 CID_3375987_JID_6009_neutraal
 -----------------------------
 Charge =  0 Multiplicity = 1

 SCF Done:  E(RB3LYP) =  -712.100096202     A.U. after    1 cycles

  Exact polarizability: 141.248  17.614 153.133  -6.400   8.170 130.507
 Approx polarizability: 194.482  36.121 232.381 -12.465  19.609 215.801

                      1                      2                      3
                      A                      A                      A
 Frequencies --     39.2880                54.0528                63.7551
 Red. masses --      3.7474                 3.3286                 3.4709
 Frc consts  --      0.0034                 0.0057                 0.0083
 IR Inten    --      0.6211                 0.6207                 0.3437

                      4                      5                      6
                      A                      A                      A
 Frequencies --     78.3785                89.7006               115.2050
 Red. masses --      3.7436                 1.6169                 2.0452
 Frc consts  --      0.0135                 0.0077                 0.0160
 IR Inten    --      1.2584                 1.3330                 0.1219

                      7                      8                      9
                      A                      A                      A
 Frequencies --    127.3075               137.2189               143.8927
 Red. masses --      4.0817                 3.2430                 2.2240
 Frc consts  --      0.0390                 0.0360                 0.0271
 IR Inten    --      4.7333                 2.5940                 1.2370

                     10                     11                     12
                      A                      A                      A
 Frequencies --    176.7463               225.6078               232.5505
 Red. masses --      2.0637                 2.2401                 1.1838
 Frc consts  --      0.0380                 0.0672                 0.0377
 IR Inten    --      0.1602                 4.1079                 0.4899

                     13                     14                     15
                      A                      A                      A
 Frequencies --    249.3222               262.4404               291.3575
 Red. masses --      1.5959                 3.5629                 2.7451
 Frc consts  --      0.0584                 0.1446                 0.1373
 IR Inten    --      0.3593                 2.5973                 0.3502

                     16                     17                     18
                      A                      A                      A
 Frequencies --    340.0680               369.3826               396.5261
 Red. masses --      3.7054                 3.3026                 3.9352
 Frc consts  --      0.2525                 0.2655                 0.3646
 IR Inten    --      1.6813                 3.8652                 1.1650

                     19                     20                     21
                      A                      A                      A
 Frequencies --    416.9441               433.1427               471.3553
 Red. masses --      2.8336                 2.9010                 3.0008
 Frc consts  --      0.2902                 0.3207                 0.3928
 IR Inten    --      0.2194                 3.4944                 2.2227

                     22                     23                     24
                      A                      A                      A
 Frequencies --    521.6955               524.0018               537.5398
 Red. masses --      2.8461                 3.1263                 5.1742
 Frc consts  --      0.4564                 0.5058                 0.8809
 IR Inten    --      7.1606                26.8497                 1.8335

                     25                     26                     27
                      A                      A                      A
 Frequencies --    590.9536               610.5361               638.6396
 Red. masses --      3.7234                 4.3202                 1.6739
 Frc consts  --      0.7661                 0.9488                 0.4023
 IR Inten    --      3.7475                13.5432                67.2465

                     28                     29                     30
                      A                      A                      A
 Frequencies --    697.6374               735.6067               772.3443
 Red. masses --      3.6671                 2.9761                 1.9638
 Frc consts  --      1.0516                 0.9488                 0.6902
 IR Inten    --     44.8981                 8.2968                 8.1357

                     31                     32                     33
                      A                      A                      A
 Frequencies --    790.4456               795.3885               858.6897
 Red. masses --      1.3710                 2.0234                 2.2853
 Frc consts  --      0.5047                 0.7542                 0.9928
 IR Inten    --     21.5695                16.0157                 2.5782

                     34                     35                     36
                      A                      A                      A
 Frequencies --    862.7700               874.6591               886.5953
 Red. masses --      2.0661                 3.4396                 1.8108
 Frc consts  --      0.9061                 1.5504                 0.8386
 IR Inten    --      3.4781                 2.2970                 1.4729

                     37                     38                     39
                      A                      A                      A
 Frequencies --    944.6993               956.2389               972.7460
 Red. masses --      1.4718                 1.7229                 1.8215
 Frc consts  --      0.7739                 0.9282                 1.0155
 IR Inten    --      4.2400                 5.1749                 1.4861

                     40                     41                     42
                      A                      A                      A
 Frequencies --    978.4934               998.7862              1023.9388
 Red. masses --      1.2706                 1.2458                 1.9214
 Frc consts  --      0.7168                 0.7322                 1.1869
 IR Inten    --      0.0492                 2.8009                 3.3741

                     43                     44                     45
                      A                      A                      A
 Frequencies --   1047.5988              1063.2198              1074.3743
 Red. masses --      7.6654                 2.5769                 2.1113
 Frc consts  --      4.9565                 1.7163                 1.4359
 IR Inten    --     66.1530                 2.9201                10.4260

                     46                     47                     48
                      A                      A                      A
 Frequencies --   1134.8795              1162.4487              1188.5331
 Red. masses --      1.9380                 2.1439                 1.2258
 Frc consts  --      1.4706                 1.7068                 1.0202
 IR Inten    --     21.4495                 8.5064                 0.4641

                     49                     50                     51
                      A                      A                      A
 Frequencies --   1190.0757              1194.5008              1199.9258
 Red. masses --      1.1516                 2.3991                 1.8253
 Frc consts  --      0.9609                 2.0168                 1.5484
 IR Inten    --      0.0326                28.4207                 9.3058

                     52                     53                     54
                      A                      A                      A
 Frequencies --   1208.5686              1214.8891              1222.9516
 Red. masses --      1.7661                 1.2865                 1.7557
 Frc consts  --      1.5199                 1.1188                 1.5471
 IR Inten    --      8.6714                16.2890                 0.8384

                     55                     56                     57
                      A                      A                      A
 Frequencies --   1283.0765              1292.6101              1301.5932
 Red. masses --      2.8285                 1.5264                 1.2579
 Frc consts  --      2.7436                 1.5027                 1.2556
 IR Inten    --    123.4229                18.7842                 0.7852

                     58                     59                     60
                      A                      A                      A
 Frequencies --   1336.1794              1352.8812              1359.6028
 Red. masses --      2.8785                 1.2588                 2.0411
 Frc consts  --      3.0279                 1.3575                 2.2230
 IR Inten    --      1.6098                 2.8093                21.3517

                     61                     62                     63
                      A                      A                      A
 Frequencies --   1370.4269              1396.7874              1408.4781
 Red. masses --      1.3821                 1.8027                 2.0575
 Frc consts  --      1.5293                 2.0722                 2.4049
 IR Inten    --      3.0518                81.4883                70.3130

                     64                     65                     66
                      A                      A                      A
 Frequencies --   1438.7206              1445.3135              1485.3468
 Red. masses --      1.2877                 1.2253                 1.4313
 Frc consts  --      1.5704                 1.5081                 1.8606
 IR Inten    --      4.6594                 3.9255                12.5640

                     67                     68                     69
                      A                      A                      A
 Frequencies --   1499.8962              1503.8816              1507.0820
 Red. masses --      1.4526                 1.3915                 1.3594
 Frc consts  --      1.9254                 1.8542                 1.8192
 IR Inten    --     23.7355                41.5361                 3.0164

                     70                     71                     72
                      A                      A                      A
 Frequencies --   1519.3514              1520.2874              1525.1060
 Red. masses --      1.0576                 1.0583                 1.0822
 Frc consts  --      1.4384                 1.4411                 1.4831
 IR Inten    --      3.1481                 2.4182                10.2017

                     73                     74                     75
                      A                      A                      A
 Frequencies --   1526.4284              1530.8747              1535.6221
 Red. masses --      1.0669                 1.0881                 1.0514
 Frc consts  --      1.4646                 1.5024                 1.4608
 IR Inten    --      6.4307                 8.6488                 0.9747

                     76                     77                     78
                      A                      A                      A
 Frequencies --   1541.6622              1544.4205              1637.1554
 Red. masses --      1.0994                 2.2926                 6.1040
 Frc consts  --      1.5395                 3.2219                 9.6392
 IR Inten    --     11.2794                48.9404                 5.6830

                     79                     80                     81
                      A                      A                      A
 Frequencies --   1661.5516              1776.9948              3030.0164
 Red. masses --      6.0305                 7.7124                 1.0717
 Frc consts  --      9.8091                14.3487                 5.7969
 IR Inten    --      1.6906               421.5857                28.2553

                     82                     83                     84
                      A                      A                      A
 Frequencies --   3040.9402              3047.1963              3050.0100
 Red. masses --      1.0386                 1.0373                 1.0373
 Frc consts  --      5.6588                 5.6747                 5.6852
 IR Inten    --     65.9841                21.0374                27.5722

                     85                     86                     87
                      A                      A                      A
 Frequencies --   3057.0850              3105.1856              3106.0051
 Red. masses --      1.0635                 1.0989                 1.0984
 Frc consts  --      5.8558                 6.2426                 6.2436
 IR Inten    --     10.3948                 9.6186                10.9029

                     88                     89                     90
                      A                      A                      A
 Frequencies --   3108.5710              3119.2335              3125.4484
 Red. masses --      1.0913                 1.1016                 1.0985
 Frc consts  --      6.2131                 6.3149                 6.3224
 IR Inten    --      7.1685                20.2613                23.3846

                     91                     92                     93
                      A                      A                      A
 Frequencies --   3127.6099              3131.0537              3135.6724
 Red. masses --      1.0924                 1.0946                 1.1017
 Frc consts  --      6.2961                 6.3223                 6.3823
 IR Inten    --     29.9577                34.1812                32.8926

                     94                     95                     96
                      A                      A                      A
 Frequencies --   3167.6415              3176.3742              3192.6329
 Red. masses --      1.1036                 1.0876                 1.0879
 Frc consts  --      6.5241                 6.4651                 6.5332
 IR Inten    --     21.2147                 8.0070                 7.1816

                     97                     98                     99
                      A                      A                      A
 Frequencies --   3206.4308              3216.4715              3567.9666
 Red. masses --      1.0926                 1.0968                 1.0749
 Frc consts  --      6.6187                 6.6855                 8.0622
 IR Inten    --     21.8420                13.2683                11.7379

 - Thermochemistry -
 -------------------
 Temperature   298.150 Kelvin.  Pressure   1.00000 Atm.
 Atom     1 has atomic number  6 and mass  12.00000

 Molecular mass:   221.14158 amu.
 Principal axes and moments of inertia in atomic units:
                           1         2         3
     Eigenvalues --  2927.569663556.518014815.09185
           X            0.99227  -0.12408  -0.00282
           Y            0.12407   0.99227  -0.00169
           Z            0.00300   0.00133   0.99999
 This molecule is an asymmetric top.
 Rotational symmetry number  1.
 Warning -- assumption of classical behavior for rotation
           may cause significant error
 Rotational temperatures (Kelvin)      0.02959     0.02435     0.01799
 Rotational constants (GHZ):           0.61646     0.50745     0.37481
 Zero-point vibrational energy     796721.8 (Joules/Mol)
                                  190.42109 (Kcal/Mol)
 Warning -- explicit consideration of  26 degrees of freedom as
           vibrations may cause significant error
 Vibrational temperatures:     56.53    77.77    91.73   112.77   129.06
          (Kelvin)            165.75   183.17   197.43   207.03   254.30
                              324.60   334.59   358.72   377.59   419.20
                              489.28   531.46   570.51   599.89   623.20
                              678.18   750.60   753.92   773.40   850.25
                              878.43   918.86  1003.74  1058.37  1111.23
                             1137.27  1144.39  1235.46  1241.33  1258.44
                             1275.61  1359.21  1375.81  1399.56  1407.83
                             1437.03  1473.22  1507.26  1529.74  1545.78
                             1632.84  1672.50  1710.03  1712.25  1718.62
                             1726.43  1738.86  1747.95  1759.55  1846.06
                             1859.78  1872.70  1922.46  1946.49  1956.17
                             1971.74  2009.67  2026.49  2070.00  2079.48
                             2137.08  2158.02  2163.75  2168.35  2186.01
                             2187.35  2194.29  2196.19  2202.59  2209.42
                             2218.11  2222.08  2355.50  2390.60  2556.70
                             4359.52  4375.23  4384.24  4388.28  4398.46
                             4467.67  4468.85  4472.54  4487.88  4496.82
                             4499.93  4504.89  4511.53  4557.53  4570.09
                             4593.49  4613.34  4627.79  5133.51

 Zero-point correction=                           0.303455 (Hartree/Particle)
 Thermal correction to Energy=                    0.320300
 Thermal correction to Enthalpy=                  0.321244
 Thermal correction to Gibbs Free Energy=         0.258867
 Sum of electronic and zero-point Energies=           -711.796641
 Sum of electronic and thermal Energies=              -711.779797
 Sum of electronic and thermal Enthalpies=            -711.778852
 Sum of electronic and thermal Free Energies=         -711.841230

                     E (Thermal)             CV                S
                      KCal/Mol        Cal/Mol-Kelvin    Cal/Mol-Kelvin
 Total                  200.991             62.830            131.284
 Electronic               0.000              0.000              0.000
 Translational            0.889              2.981             42.084
 Rotational               0.889              2.981             32.283
 Vibrational            199.214             56.869             56.917
 Vibration     1          0.594              1.981              5.295
 Vibration     2          0.596              1.976              4.663
 Vibration     3          0.597              1.972              4.337
 Vibration     4          0.600              1.964              3.931
 Vibration     5          0.602              1.956              3.667
 Vibration     6          0.608              1.937              3.179
 Vibration     7          0.611              1.926              2.986
 Vibration     8          0.614              1.916              2.842
 Vibration     9          0.616              1.909              2.751
 Vibration    10          0.628              1.871              2.363
 Vibration    11          0.650              1.802              1.914
 Vibration    12          0.653              1.791              1.859
 Vibration    13          0.662              1.764              1.735
 Vibration    14          0.670              1.742              1.645
 Vibration    15          0.687              1.690              1.466
 Vibration    16          0.720              1.595              1.212
 Vibration    17          0.742              1.535              1.082
 Vibration    18          0.763              1.478              0.976
 Vibration    19          0.780              1.433              0.902
 Vibration    20          0.794              1.398              0.848
 Vibration    21          0.828              1.314              0.734
 Vibration    22          0.877              1.202              0.606
 Vibration    23          0.879              1.197              0.601
 Vibration    24          0.893              1.167              0.571
 Vibration    25          0.948              1.051              0.465
 Vibration    26          0.970              1.010              0.432

 Optimization completed.
    -- Stationary point found.
 Normal termination of Gaussian 16 at Thu Dec 10 21:30:52 2020.

 ----------------------------------------------------------------------
 # B3LYP/6-311++G(d,p) empiricaldispersion=gd3bj scf=xqc pop=npa geom=c
 heck
 ----------------------------------------------------------------------

 -------------------------------------
 CID_3375987_JID_6009_Energie_neutraal
 -------------------------------------
 Structure from the checkpoint file:  "JID_6009.chk"
 Charge =  0 Multiplicity = 1

 SCF Done:  E(RB3LYP) =  -712.301342345     A.U. after   16 cycles
 Normal termination of Gaussian 16 at Thu Dec 10 21:37:20 2020.

 ----------------------------------------------------------------------
 # B3LYP/6-311++G(d,p) empiricaldispersion=gd3bj scf=xqc pop=npa geom=c
 heck
 ----------------------------------------------------------------------

 -----------------------------------
 CID_3375987_JID_6009_Energie_kation
 -----------------------------------
 Structure from the checkpoint file:  "JID_6009.chk"
 Charge =  1 Multiplicity = 2

 SCF Done:  E(UB3LYP) =  -711.990051771     A.U. after   33 cycles
 SCF Done:  E(UB3LYP) =  -711.990052679     a.u. after    2 cycles
 Normal termination of Gaussian 16 at Thu Dec 10 22:09:10 2020.
 Gaussian 16:  ES64L-G16RevA.03 25-Dec-2016

 ----------------------------------------------------------------------
 # B3LYP/6-311++G(d,p) empiricaldispersion=gd3bj scf=xqc pop=npa geom=c
 heck
 ----------------------------------------------------------------------

 ----------------------------------
 CID_3375987_JID_6009_Energie_anion
 ----------------------------------
 Structure from the checkpoint file:  "JID_6009.chk"
 Charge = -1 Multiplicity = 2

                         Standard orientation:
 ---------------------------------------------------------------------
 Center     Atomic      Atomic             Coordinates (Angstroms)
 Number     Number       Type             X           Y           Z
 ---------------------------------------------------------------------
      1          6           0       -0.865542    2.703123   -1.206230
      2          6           0       -1.458728    1.294551   -1.288188
      3          6           0       -1.965986    0.768452    0.069477
      4          6           0       -3.295656    1.402699    0.488314
      5          7           0       -2.104287   -0.687338    0.052881
      6          6           0       -1.243303   -1.635568    0.526805
      7          8           0       -1.406026   -2.826102    0.278457
      8          6           0       -0.126612   -1.180152    1.476492
      9          6           0        0.930801   -0.244297    0.926868
     10          6           0        1.446629    0.777939    1.733745
     11          6           0        2.421728    1.658913    1.267765
     12          6           0        2.900386    1.532867   -0.036730
     13          6           0        2.402719    0.522391   -0.856952
     14          6           0        1.432594   -0.360806   -0.379670
     15          8           0        0.912545   -1.286149   -1.258448
     16          6           0        1.429685   -2.614372   -1.134420
     17          1           0       -1.597438    3.439036   -0.853705
     18          1           0       -0.512563    3.034874   -2.188557
     19          1           0       -0.009209    2.720489   -0.522250
     20          1           0       -2.288627    1.272036   -2.009454
     21          1           0       -0.701547    0.600047   -1.661836
     22          1           0       -1.215302    1.007278    0.825626
     23          1           0       -4.088537    1.142156   -0.224188
     24          1           0       -3.599881    1.050337    1.478757
     25          1           0       -3.218367    2.494287    0.516373
     26          1           0       -2.784905   -1.072156   -0.593664
     27          1           0       -0.586986   -0.706904    2.352473
     28          1           0        0.330373   -2.109920    1.828770
     29          1           0        1.064135    0.886961    2.745946
     30          1           0        2.797736    2.443494    1.917687
     31          1           0        3.652212    2.218890   -0.415898
     32          1           0        2.742022    0.405472   -1.881430
     33          1           0        2.522844   -2.610756   -1.231163
     34          1           0        1.133726   -3.073886   -0.187043
     35          1           0        0.985874   -3.186805   -1.950329
 ---------------------------------------------------------------------

 SCF Done:  E(UB3LYP) =  -712.288443473     A.U. after   33 cycles
 SCF Done:  E(UB3LYP) =  -712.288443473     a.u. after    1 cycles

 The electronic state is 2-A.
 Alpha  occ. eigenvalues --  -19.05090 -18.99007 -14.23734 -10.17906 -10.13712
 Alpha  occ. eigenvalues --  -10.12963 -10.11757 -10.09748 -10.09327 -10.08301
 Alpha  occ. eigenvalues --  -10.08239 -10.08184 -10.07932 -10.07035 -10.06888
 Alpha  occ. eigenvalues --  -10.06100  -0.96764  -0.94123  -0.82993  -0.76781
 Alpha  occ. eigenvalues --   -0.69949  -0.69082  -0.66186  -0.63314  -0.62277
 Alpha  occ. eigenvalues --   -0.59452  -0.55451  -0.51928  -0.50734  -0.49714
 Alpha  occ. eigenvalues --   -0.48449  -0.43543  -0.40878  -0.39709  -0.39225
 Alpha  occ. eigenvalues --   -0.37857  -0.36858  -0.35720  -0.35277  -0.34524
 Alpha  occ. eigenvalues --   -0.34125  -0.33018  -0.32632  -0.31858  -0.30397
 Alpha  occ. eigenvalues --   -0.29606  -0.28843  -0.28454  -0.27478  -0.26919
 Alpha  occ. eigenvalues --   -0.26546  -0.25974  -0.25283  -0.24186  -0.23454
 Alpha  occ. eigenvalues --   -0.19170  -0.16671  -0.15968  -0.15703  -0.15127
 Alpha  occ. eigenvalues --    0.04258
 Alpha virt. eigenvalues --    0.06274   0.06773   0.06899   0.07246   0.08026
 Alpha virt. eigenvalues --    0.08555   0.08678   0.08803   0.09744   0.10230
 Alpha virt. eigenvalues --    0.11007   0.11237   0.11345   0.11601   0.11808

  Beta  occ. eigenvalues --  -19.05088 -18.98998 -14.23733 -10.17895 -10.13710
  Beta  occ. eigenvalues --  -10.12958 -10.11750 -10.09747 -10.09313 -10.08282
  Beta  occ. eigenvalues --  -10.08208 -10.08163 -10.07912 -10.07028 -10.06851
  Beta  occ. eigenvalues --  -10.06077  -0.96760  -0.94105  -0.82982  -0.76746
  Beta  occ. eigenvalues --   -0.69922  -0.69054  -0.66149  -0.63274  -0.62234
  Beta  occ. eigenvalues --   -0.59425  -0.55394  -0.51869  -0.50705  -0.49670
  Beta  occ. eigenvalues --   -0.48421  -0.43505  -0.40845  -0.39670  -0.39193
  Beta  occ. eigenvalues --   -0.37840  -0.36830  -0.35698  -0.35229  -0.34496
  Beta  occ. eigenvalues --   -0.34093  -0.32981  -0.32609  -0.31829  -0.30360
  Beta  occ. eigenvalues --   -0.29574  -0.28801  -0.28420  -0.27441  -0.26881
  Beta  occ. eigenvalues --   -0.26509  -0.25934  -0.25250  -0.24152  -0.23429
  Beta  occ. eigenvalues --   -0.19161  -0.16639  -0.15912  -0.15687  -0.15097
  Beta virt. eigenvalues --    0.06415   0.06747   0.07276   0.07474   0.07713
  Beta virt. eigenvalues --    0.08120   0.09033   0.09168   0.09365   0.09991
  Beta virt. eigenvalues --    0.10398   0.11160   0.11571   0.11610   0.11873

 Mulliken charges and spin densities:
               1          2
     1  C    0.323481  -1.011665
     2  C   -1.016305   0.939279
     3  C   -0.775597   0.718498
     4  C    1.657157  -2.171167
     5  N   -0.115991   0.102505
     6  C   -0.486138   0.154330
     7  O   -0.305477   0.007475
     8  C    1.745708  -2.160742
     9  C   -0.830165   1.370471
    10  C   -0.264935  -0.087292
    11  C    1.226662  -1.675343
    12  C    1.565503  -1.806700
    13  C   -0.863892   0.890949
    14  C   -0.901001   0.728819
    15  O   -0.054304  -0.008777
    16  C   -0.082333  -0.158721
    17  H   -0.067338   0.195390
    18  H   -0.119162   0.248807
    19  H    0.076004   0.068516
    20  H   -0.042357   0.193569
    21  H    0.328260  -0.095017
    22  H    0.405681  -0.162401
    23  H   -0.157938   0.290298
    24  H   -0.197514   0.360616
    25  H   -0.216994   0.367964
    26  H    0.206477   0.064142
    27  H   -0.093758   0.285644
    28  H    0.200208   0.011859
    29  H   -0.851284   1.038153
    30  H   -0.785010   0.977325
    31  H   -0.585156   0.766567
    32  H   -0.257325   0.438761
    33  H    0.092707   0.030714
    34  H    0.148549   0.038394
    35  H    0.093579   0.048778
 Sum of Mulliken charges =  -1.00000   1.00000

 Dipole moment (field-independent basis, Debye):
    X=             -0.6560    Y=             -5.5905    Z=             -3.7634  Tot=              6.7710
 Quadrupole moment (field-independent basis, Debye-Ang):
   XX=           -160.4308   YY=           -156.7564   ZZ=           -142.3977
   XY=            -13.3638   XZ=              0.5379   YZ=             -4.9175

 Summary of Natural Population Analysis:

                                       Natural Population
                Natural  -----------------------------------------------
    Atom  No    Charge         Core      Valence    Rydberg      Total
 -----------------------------------------------------------------------
      C    1   -0.28644      0.99966     2.28186    0.00492     3.28644
      C    2   -0.19488      0.99961     2.18734    0.00794     3.19488
      C    3   -0.01898      0.99958     2.00732    0.01208     3.01898
      C    4   -0.28488      0.99964     2.27938    0.00586     3.28488
      N    5   -0.31625      0.99965     2.80635    0.01025     3.81625
      C    6    0.35167      0.99967     1.62395    0.02471     2.64833
      O    7   -0.33168      0.99988     3.32631    0.00550     4.33168
      C    8   -0.24296      0.99955     2.23432    0.00908     3.24296
      C    9   -0.04075      0.99944     2.03027    0.01104     3.04075
      C   10   -0.09214      0.99951     2.08144    0.01119     3.09214
      C   11   -0.10042      0.99955     2.08997    0.01089     3.10042
      C   12   -0.09615      0.99956     2.08601    0.01058     3.09615
      C   13   -0.11238      0.99950     2.10220    0.01068     3.11238
      C   14    0.14783      0.99931     1.83791    0.01495     2.85217
      O   15   -0.29236      0.99986     3.28319    0.00932     4.29236
      C   16   -0.09548      0.99959     2.08830    0.00760     3.09548
      H   17    0.09555      0.00000     0.40337    0.00108     0.40445
      H   18    0.09922      0.00000     0.39991    0.00087     0.40078
      H   19    0.10337      0.00000     0.39498    0.00165     0.39663
      H   20    0.09038      0.00000     0.40850    0.00112     0.40962
      H   21    0.10731      0.00000     0.39043    0.00225     0.39269
      H   22    0.10331      0.00000     0.39309    0.00361     0.39669
      H   23    0.09471      0.00000     0.40413    0.00117     0.40529
      H   24    0.10413      0.00000     0.39464    0.00124     0.39587
      H   25    0.10410      0.00000     0.39478    0.00112     0.39590
      H   26    0.19017      0.00000     0.30778    0.00205     0.30983
      H   27    0.11647      0.00000     0.38205    0.00148     0.38353
      H   28    0.11583      0.00000     0.38298    0.00119     0.38417
      H   29    0.10458      0.00000     0.39315    0.00227     0.39542
      H   30    0.10647      0.00000     0.39098    0.00255     0.39353
      H   31    0.10455      0.00000     0.39355    0.00190     0.39545
      H   32    0.10579      0.00000     0.39297    0.00124     0.39421
      H   33    0.07924      0.00000     0.41961    0.00115     0.42076
      H   34    0.08976      0.00000     0.40903    0.00121     0.41024
      H   35    0.09133      0.00000     0.40784    0.00083     0.40867
 =======================================================================
   * Total *   -0.00000     15.99356    43.80988    0.19656    60.00000

 Normal termination of Gaussian 16 at Thu Dec 10 22:27:48 2020.
