 Gaussian 16, Revision A.03,

 -----------------------------------------------------------
 # opt freq B3LYP/6-31G(d) empiricaldispersion=gd3bj scf=xqc
 -----------------------------------------------------------

 --------------------------------
 CID_115966964_JID_10237_neutraal
 --------------------------------
 Symbolic Z-matrix:
 Charge =  0 Multiplicity = 1

 SCF Done:  E(RB3LYP) =  -1280.09586747     A.U. after   15 cycles
 SCF Done:  E(RB3LYP) =  -1280.09575335     A.U. after   13 cycles
 SCF Done:  E(RB3LYP) =  -1280.10282317     A.U. after   12 cycles
 SCF Done:  E(RB3LYP) =  -1280.10337263     A.U. after   12 cycles
 SCF Done:  E(RB3LYP) =  -1280.10330970     A.U. after   12 cycles
 SCF Done:  E(RB3LYP) =  -1280.10391481     A.U. after   12 cycles
 SCF Done:  E(RB3LYP) =  -1280.10402992     A.U. after   11 cycles
 SCF Done:  E(RB3LYP) =  -1280.10411899     A.U. after   11 cycles
 SCF Done:  E(RB3LYP) =  -1280.10416463     A.U. after   10 cycles
 SCF Done:  E(RB3LYP) =  -1280.10428263     A.U. after   11 cycles
 SCF Done:  E(RB3LYP) =  -1280.10441710     A.U. after    8 cycles
 SCF Done:  E(RB3LYP) =  -1280.10441708     A.U. after    8 cycles
 SCF Done:  E(RB3LYP) =  -1280.10441802     A.U. after    8 cycles
 SCF Done:  E(RB3LYP) =  -1280.10441769     A.U. after    8 cycles
 SCF Done:  E(RB3LYP) =  -1280.10441774     A.U. after    6 cycles
 Optimization completed.
    -- Stationary point found.
 Normal termination of Gaussian 16 at Sun Dec 13 13:11:13 2020.

 --------------------------------------------------------------------
 #N Geom=AllCheck Guess=TCheck SCRF=Check GenChk RB3LYP/6-31G(d) Freq
 --------------------------------------------------------------------

 Structure from the checkpoint file:  "JID_10237.chk"
 --------------------------------
 CID_115966964_JID_10237_neutraal
 --------------------------------
 Charge =  0 Multiplicity = 1

 SCF Done:  E(RB3LYP) =  -1280.10441774     A.U. after    1 cycles

  Exact polarizability: 184.348 -23.440 172.244  -3.588   7.842 181.096
 Approx polarizability: 271.242 -49.792 260.896  -8.747  -0.079 292.102

                      1                      2                      3
                      A                      A                      A
 Frequencies --     22.7963                46.9213                52.5533
 Red. masses --      4.8910                 5.1016                 4.1529
 Frc consts  --      0.0015                 0.0066                 0.0068
 IR Inten    --      0.0779                 0.5862                 0.8641

                      4                      5                      6
                      A                      A                      A
 Frequencies --     64.7082                69.0057                98.4335
 Red. masses --      2.9873                 3.6667                 3.7537
 Frc consts  --      0.0074                 0.0103                 0.0214
 IR Inten    --      0.5588                 0.1336                 3.4674

                      7                      8                      9
                      A                      A                      A
 Frequencies --    112.3636               116.8089               150.7702
 Red. masses --      3.3418                 2.5452                 2.8884
 Frc consts  --      0.0249                 0.0205                 0.0387
 IR Inten    --      1.0279                 1.1007                 2.1442

                     10                     11                     12
                      A                      A                      A
 Frequencies --    183.7381               194.6066               204.7204
 Red. masses --      2.9187                 4.3205                 2.7887
 Frc consts  --      0.0581                 0.0964                 0.0689
 IR Inten    --      1.5697                 0.3094                 1.0374

                     13                     14                     15
                      A                      A                      A
 Frequencies --    215.9590               228.4553               234.8168
 Red. masses --      2.5239                 2.8222                 2.9702
 Frc consts  --      0.0694                 0.0868                 0.0965
 IR Inten    --      1.3748                 2.8604                 2.8386

                     16                     17                     18
                      A                      A                      A
 Frequencies --    266.9214               288.6924               300.8092
 Red. masses --      2.6230                 3.5194                 2.7469
 Frc consts  --      0.1101                 0.1728                 0.1464
 IR Inten    --      0.2875                 1.6366                13.0963

                     19                     20                     21
                      A                      A                      A
 Frequencies --    311.9101               322.0615               350.9614
 Red. masses --      1.4301                 3.4601                 3.6378
 Frc consts  --      0.0820                 0.2115                 0.2640
 IR Inten    --     86.2434                15.6589                 0.8865

                     22                     23                     24
                      A                      A                      A
 Frequencies --    379.1034               408.6215               435.7593
 Red. masses --      3.6091                 4.3618                 2.3913
 Frc consts  --      0.3056                 0.4291                 0.2675
 IR Inten    --      5.2013                 8.2811                10.7620

                     25                     26                     27
                      A                      A                      A
 Frequencies --    449.4930               468.7505               487.0081
 Red. masses --      2.7233                 3.1971                 4.3429
 Frc consts  --      0.3242                 0.4139                 0.6069
 IR Inten    --      7.7237                 3.0539                 1.4578

                     28                     29                     30
                      A                      A                      A
 Frequencies --    527.9958               549.4222               562.6195
 Red. masses --      4.5528                 4.8034                 5.4450
 Frc consts  --      0.7478                 0.8543                 1.0155
 IR Inten    --      7.8933                28.8177                35.8861

                     31                     32                     33
                      A                      A                      A
 Frequencies --    596.1743               614.2719               624.4060
 Red. masses --      4.2794                 4.1032                 4.3145
 Frc consts  --      0.8962                 0.9122                 0.9911
 IR Inten    --     71.2960                 2.8560                67.8897

                     34                     35                     36
                      A                      A                      A
 Frequencies --    693.0445               740.7348               756.9582
 Red. masses --      6.0680                 3.3549                 2.0434
 Frc consts  --      1.7172                 1.0846                 0.6899
 IR Inten    --     27.6472                 3.4446                10.0335

                     37                     38                     39
                      A                      A                      A
 Frequencies --    768.7250               783.6973               822.5838
 Red. masses --      1.9496                 1.3376                 2.7427
 Frc consts  --      0.6788                 0.4840                 1.0934
 IR Inten    --     36.4442                38.5999                 3.3916

                     40                     41                     42
                      A                      A                      A
 Frequencies --    836.1534               869.1277               877.7111
 Red. masses --      1.4375                 1.9597                 1.9838
 Frc consts  --      0.5921                 0.8722                 0.9004
 IR Inten    --     59.9638                12.4359                 4.2288

                     43                     44                     45
                      A                      A                      A
 Frequencies --    892.9059               899.3456               930.8501
 Red. masses --      2.0423                 2.0828                 1.4876
 Frc consts  --      0.9594                 0.9925                 0.7594
 IR Inten    --      5.4702                 5.7012                 5.6560

                     46                     47                     48
                      A                      A                      A
 Frequencies --    946.9626               964.1313               968.9266
 Red. masses --      1.2867                 2.1078                 1.3453
 Frc consts  --      0.6798                 1.1544                 0.7441
 IR Inten    --      1.4151                53.0841                 0.4587

                     49                     50                     51
                      A                      A                      A
 Frequencies --    982.6366               995.1096              1002.1214
 Red. masses --      1.9481                 1.3029                 1.8882
 Frc consts  --      1.1083                 0.7602                 1.1172
 IR Inten    --     16.7711                 0.5794                29.3296

                     52                     53                     54
                      A                      A                      A
 Frequencies --   1002.8921              1045.2988              1057.5230
 Red. masses --      1.9263                 3.6531                 6.9537
 Frc consts  --      1.1415                 2.3518                 4.5819
 IR Inten    --     50.6383                11.5092                16.0469

                     55                     56                     57
                      A                      A                      A
 Frequencies --   1084.9978              1088.5901              1098.4770
 Red. masses --      2.2703                 2.5554                 2.4884
 Frc consts  --      1.5747                 1.7842                 1.7691
 IR Inten    --      5.5708               101.1315                14.7171

                     58                     59                     60
                      A                      A                      A
 Frequencies --   1113.7884              1129.5562              1131.2788
 Red. masses --      2.0396                 2.8822                 2.5417
 Frc consts  --      1.4908                 2.1666                 1.9165
 IR Inten    --      9.4480                80.8925                62.4562

                     61                     62                     63
                      A                      A                      A
 Frequencies --   1139.7952              1150.6914              1154.2854
 Red. masses --      4.1231                 2.0471                 3.0241
 Frc consts  --      3.1559                 1.5970                 2.3739
 IR Inten    --     32.8837                45.8672                36.0270

                     64                     65                     66
                      A                      A                      A
 Frequencies --   1190.4630              1199.4855              1199.7655
 Red. masses --      1.5876                 1.1317                 1.3622
 Frc consts  --      1.3256                 0.9594                 1.1553
 IR Inten    --     18.1693                 2.3076                21.0523

                     67                     68                     69
                      A                      A                      A
 Frequencies --   1227.7171              1274.3105              1277.6127
 Red. masses --      1.3052                 3.1084                 1.4300
 Frc consts  --      1.1591                 2.9740                 1.3753
 IR Inten    --      6.4700                37.0790                 3.6697

                     70                     71                     72
                      A                      A                      A
 Frequencies --   1285.2274              1309.7457              1310.4559
 Red. masses --      1.3887                 1.3579                 1.3436
 Frc consts  --      1.3515                 1.3725                 1.3594
 IR Inten    --      9.8260                23.9813                25.9077

                     73                     74                     75
                      A                      A                      A
 Frequencies --   1320.5426              1323.1104              1329.1690
 Red. masses --      1.2159                 2.6481                 1.7096
 Frc consts  --      1.2493                 2.7313                 1.7795
 IR Inten    --      0.9964                84.0502                58.2365

                     76                     77                     78
                      A                      A                      A
 Frequencies --   1340.3421              1354.5241              1374.5799
 Red. masses --      1.3399                 4.3104                 1.2805
 Frc consts  --      1.4183                 4.6595                 1.4255
 IR Inten    --     10.6038                35.0604                 5.9320

                     79                     80                     81
                      A                      A                      A
 Frequencies --   1376.9284              1399.5327              1406.0984
 Red. masses --      1.2839                 1.3480                 1.2856
 Frc consts  --      1.4342                 1.5557                 1.4975
 IR Inten    --     10.0388                13.9480                13.2473

                     82                     83                     84
                      A                      A                      A
 Frequencies --   1419.4299              1423.4516              1436.6799
 Red. masses --      1.3677                 1.4259                 1.3000
 Frc consts  --      1.6235                 1.7022                 1.5809
 IR Inten    --      4.0963                 5.9027                38.0854

                     85                     86                     87
                      A                      A                      A
 Frequencies --   1446.1584              1470.4226              1506.1518
 Red. masses --      1.2620                 1.6695                 1.7609
 Frc consts  --      1.5551                 2.1268                 2.3535
 IR Inten    --      9.6563                 5.1540               101.4324

                     88                     89                     90
                      A                      A                      A
 Frequencies --   1516.9154              1521.8318              1522.0096
 Red. masses --      1.2667                 1.0619                 1.0874
 Frc consts  --      1.7173                 1.4490                 1.4841
 IR Inten    --     32.0983                 3.8223                 3.2623

                     91                     92                     93
                      A                      A                      A
 Frequencies --   1534.2965              1537.2809              1539.2953
 Red. masses --      1.0927                 1.0924                 1.1002
 Frc consts  --      1.5155                 1.5210                 1.5358
 IR Inten    --      3.0166                12.7770                 1.6980

                     94                     95                     96
                      A                      A                      A
 Frequencies --   1540.3874              1547.3529              1554.4467
 Red. masses --      1.0831                 1.4603                 1.0961
 Frc consts  --      1.5142                 2.0600                 1.5605
 IR Inten    --      0.3430                 2.1942                 1.0249

                     97                     98                     99
                      A                      A                      A
 Frequencies --   1633.6017              1650.0336              2986.0254
 Red. masses --      4.5960                 5.5592                 1.0742
 Frc consts  --      7.2264                 8.9176                 5.6429
 IR Inten    --      8.6175                31.5680                67.1368

                    100                    101                    102
                      A                      A                      A
 Frequencies --   2990.8594              3015.9503              3016.1961
 Red. masses --      1.0732                 1.0791                 1.0740
 Frc consts  --      5.6562                 5.7832                 5.7569
 IR Inten    --     60.9506                51.8681                41.6159

                    103                    104                    105
                      A                      A                      A
 Frequencies --   3056.0946              3059.4611              3068.3104
 Red. masses --      1.0734                 1.0368                 1.0933
 Frc consts  --      5.9068                 5.7180                 6.0645
 IR Inten    --     40.0060                20.9991                25.1472

                    106                    107                    108
                      A                      A                      A
 Frequencies --   3079.5590              3079.7077              3116.6833
 Red. masses --      1.0650                 1.0623                 1.0913
 Frc consts  --      5.9509                 5.9365                 6.2456
 IR Inten    --     58.2435                10.4258                23.9084

                    109                    110                    111
                      A                      A                      A
 Frequencies --   3122.9450              3132.2999              3140.9934
 Red. masses --      1.1010                 1.1026                 1.1026
 Frc consts  --      6.3263                 6.3735                 6.4094
 IR Inten    --     63.1049                41.7965                 7.3449

                    112                    113                    114
                      A                      A                      A
 Frequencies --   3142.3435              3157.6289              3176.1906
 Red. masses --      1.1023                 1.0940                 1.0890
 Frc consts  --      6.4131                 6.4267                 6.4726
 IR Inten    --     14.6782                 5.7876                 2.8846

                    115                    116                    117
                      A                      A                      A
 Frequencies --   3177.2308              3200.4876              3215.8458
 Red. masses --      1.0882                 1.0894                 1.0947
 Frc consts  --      6.4722                 6.5743                 6.6704
 IR Inten    --      9.0298                 9.2023                16.8201

                    118                    119                    120
                      A                      A                      A
 Frequencies --   3238.6438              3489.7679              3735.4106
 Red. masses --      1.0923                 1.0736                 1.0660
 Frc consts  --      6.7505                 7.7033                 8.7640
 IR Inten    --      3.6713                 1.2786                11.9361

 - Thermochemistry -
 -------------------
 Temperature   298.150 Kelvin.  Pressure   1.00000 Atm.
 Atom     1 has atomic number  6 and mass  12.00000

 Molecular mass:   298.13511 amu.
 Principal axes and moments of inertia in atomic units:
                           1         2         3
     Eigenvalues --  5471.899986052.983076527.04555
           X            0.99447  -0.10151   0.02679
           Y            0.09810   0.98938   0.10724
           Z           -0.03739  -0.10402   0.99387
 This molecule is an asymmetric top.
 Rotational symmetry number  1.
 Warning -- assumption of classical behavior for rotation
           may cause significant error
 Rotational temperatures (Kelvin)      0.01583     0.01431     0.01327
 Rotational constants (GHZ):           0.32982     0.29816     0.27650
 Zero-point vibrational energy     942469.1 (Joules/Mol)
                                  225.25552 (Kcal/Mol)
 Warning -- explicit consideration of  32 degrees of freedom as
           vibrations may cause significant error
 Vibrational temperatures:     32.80    67.51    75.61    93.10    99.28
          (Kelvin)            141.62   161.67   168.06   216.92   264.36
                              280.00   294.55   310.72   328.70   337.85
                              384.04   415.36   432.80   448.77   463.37
                              504.96   545.45   587.92   626.96   646.72
                              674.43   700.70   759.67   790.50   809.48
                              857.76   883.80   898.38   997.14  1065.75
                             1089.09  1106.02  1127.57  1183.51  1203.04
                             1250.48  1262.83  1284.69  1293.96  1339.29
                             1362.47  1387.17  1394.07  1413.79  1431.74
                             1441.83  1442.94  1503.95  1521.54  1561.07
                             1566.24  1580.46  1602.49  1625.18  1627.66
                             1639.91  1655.59  1660.76  1712.81  1725.79
                             1726.19  1766.41  1833.45  1838.20  1849.16
                             1884.43  1885.45  1899.97  1903.66  1912.38
                             1928.45  1948.86  1977.71  1981.09  2013.62
                             2023.06  2042.24  2048.03  2067.06  2080.70
                             2115.61  2167.02  2182.50  2189.58  2189.83
                             2207.51  2211.80  2214.70  2216.27  2226.30
                             2236.50  2350.39  2374.03  4296.22  4303.18
                             4339.28  4339.63  4397.04  4401.88  4414.61
                             4430.80  4431.01  4484.21  4493.22  4506.68
                             4519.19  4521.13  4543.12  4569.83  4571.33
                             4604.79  4626.88  4659.69  5021.00  5374.42

 Zero-point correction=                           0.358968 (Hartree/Particle)
 Thermal correction to Energy=                    0.378920
 Thermal correction to Enthalpy=                  0.379865
 Thermal correction to Gibbs Free Energy=         0.310114
 Sum of electronic and zero-point Energies=          -1279.745450
 Sum of electronic and thermal Energies=             -1279.725497
 Sum of electronic and thermal Enthalpies=           -1279.724553
 Sum of electronic and thermal Free Energies=        -1279.794303

                     E (Thermal)             CV                S
                      KCal/Mol        Cal/Mol-Kelvin    Cal/Mol-Kelvin
 Total                  237.776             76.418            146.802
 Electronic               0.000              0.000              0.000
 Translational            0.889              2.981             42.974
 Rotational               0.889              2.981             33.735
 Vibrational            235.999             70.456             70.092
 Vibration     1          0.593              1.985              6.374
 Vibration     2          0.595              1.979              4.943
 Vibration     3          0.596              1.977              4.719
 Vibration     4          0.597              1.971              4.308
 Vibration     5          0.598              1.969              4.182
 Vibration     6          0.604              1.950              3.485
 Vibration     7          0.607              1.939              3.228
 Vibration     8          0.608              1.935              3.152
 Vibration     9          0.618              1.902              2.662
 Vibration    10          0.631              1.862              2.290
 Vibration    11          0.635              1.847              2.183
 Vibration    12          0.640              1.833              2.090
 Vibration    13          0.645              1.817              1.993
 Vibration    14          0.651              1.798              1.891
 Vibration    15          0.655              1.788              1.842
 Vibration    16          0.672              1.734              1.616
 Vibration    17          0.685              1.695              1.482
 Vibration    18          0.693              1.672              1.412
 Vibration    19          0.700              1.651              1.352
 Vibration    20          0.707              1.631              1.300
 Vibration    21          0.728              1.573              1.162
 Vibration    22          0.749              1.515              1.043
 Vibration    23          0.773              1.452              0.931
 Vibration    24          0.796              1.392              0.840
 Vibration    25          0.808              1.362              0.797
 Vibration    26          0.826              1.319              0.741
 Vibration    27          0.843              1.279              0.691
 Vibration    28          0.883              1.188              0.592
 Vibration    29          0.905              1.141              0.545
 Vibration    30          0.918              1.112              0.519
 Vibration    31          0.954              1.040              0.456
 Vibration    32          0.974              1.002              0.426

 Optimization completed.
    -- Stationary point found.
 Normal termination of Gaussian 16 at Sun Dec 13 13:42:06 2020.

 ----------------------------------------------------------------------
 # B3LYP/6-311++G(d,p) empiricaldispersion=gd3bj scf=xqc pop=npa geom=c
 heck
 ----------------------------------------------------------------------

 ----------------------------------------
 CID_115966964_JID_10237_Energie_neutraal
 ----------------------------------------
 Structure from the checkpoint file:  "JID_10237.chk"
 Charge =  0 Multiplicity = 1

 SCF Done:  E(RB3LYP) =  -1280.38677222     A.U. after   16 cycles
 Normal termination of Gaussian 16 at Sun Dec 13 13:57:35 2020.

 ----------------------------------------------------------------------
 # B3LYP/6-311++G(d,p) empiricaldispersion=gd3bj scf=xqc pop=npa geom=c
 heck
 ----------------------------------------------------------------------

 --------------------------------------
 CID_115966964_JID_10237_Energie_kation
 --------------------------------------
 Structure from the checkpoint file:  "JID_10237.chk"
 Charge =  1 Multiplicity = 2

 SCF Done:  E(UB3LYP) =  -1280.09233493     A.U. after   25 cycles
 Normal termination of Gaussian 16 at Sun Dec 13 14:32:43 2020.
 Gaussian 16:  ES64L-G16RevA.03 25-Dec-2016

 ----------------------------------------------------------------------
 # B3LYP/6-311++G(d,p) empiricaldispersion=gd3bj scf=xqc pop=npa geom=c
 heck
 ----------------------------------------------------------------------

 -------------------------------------
 CID_115966964_JID_10237_Energie_anion
 -------------------------------------
 Structure from the checkpoint file:  "JID_10237.chk"
 Charge = -1 Multiplicity = 2

                         Standard orientation:
 ---------------------------------------------------------------------
 Center     Atomic      Atomic             Coordinates (Angstroms)
 Number     Number       Type             X           Y           Z
 ---------------------------------------------------------------------
      1          6           0        3.567769   -1.735758   -0.485142
      2          6           0        3.894644   -0.780336    0.665315
      3          6           0        2.884678    0.353511    0.833277
      4          7           0        1.531931   -0.186069    1.102954
      5          6           0        0.498039    0.763175    1.268975
      6          6           0       -0.006533    1.010636    2.555932
      7          6           0       -1.035958    1.919590    2.782450
      8          6           0       -1.567862    2.646518    1.719074
      9          6           0       -1.092708    2.413240    0.431246
     10          6           0       -0.092969    1.463631    0.191553
     11         16           0        0.157398    1.060604   -1.559894
     12          8           0       -0.461023    2.153980   -2.313856
     13          8           0        1.545656    0.670945   -1.810855
     14          7           0       -0.775392   -0.298687   -1.862641
     15          6           0       -2.238004   -0.174622   -1.685775
     16          6           0       -2.535006   -0.953323   -0.402331
     17          6           0       -1.540290   -2.128750   -0.464831
     18          6           0       -0.332490   -1.588965   -1.279881
     19          6           0       -1.129919   -2.649227    0.910422
     20          8           0       -2.234970   -3.108398    1.678986
     21          1           0        2.647886   -2.293289   -0.283389
     22          1           0        4.375909   -2.460980   -0.631757
     23          1           0        3.416378   -1.184723   -1.418069
     24          1           0        3.976933   -1.342819    1.608185
     25          1           0        4.878102   -0.321111    0.502797
     26          1           0        3.201242    1.020889    1.651854
     27          1           0        2.827171    0.940429   -0.082024
     28          1           0        1.581920   -0.759502    1.942915
     29          1           0        0.438562    0.479043    3.393772
     30          1           0       -1.403019    2.073547    3.792968
     31          1           0       -2.350223    3.380245    1.884575
     32          1           0       -1.500086    2.952926   -0.415206
     33          1           0       -2.722500   -0.636289   -2.554907
     34          1           0       -2.532566    0.875157   -1.664053
     35          1           0       -2.321896   -0.328469    0.472025
     36          1           0       -3.574471   -1.283374   -0.330455
     37          1           0       -2.001608   -2.955125   -1.025197
     38          1           0        0.547486   -1.432791   -0.653382
     39          1           0       -0.056461   -2.268025   -2.091934
     40          1           0       -0.360262   -3.432190    0.808076
     41          1           0       -0.691354   -1.831222    1.489367
     42          1           0       -2.628932   -3.856832    1.204045
 ---------------------------------------------------------------------

 SCF Done:  E(UB3LYP) =  -1280.38633745     A.U. after   33 cycles
 SCF Done:  E(UB3LYP) =  -1280.38633745     a.u. after    1 cycles

 The electronic state is 2-A.
 Alpha  occ. eigenvalues --  -88.93871 -19.01832 -18.99616 -18.99376 -14.22400
 Alpha  occ. eigenvalues --  -14.21027 -10.10988 -10.10164 -10.09866 -10.09242
 Alpha  occ. eigenvalues --  -10.09123 -10.07931 -10.07222 -10.07097 -10.06233
 Alpha  occ. eigenvalues --  -10.06096 -10.05985 -10.05811 -10.05699 -10.04967
 Alpha  occ. eigenvalues --   -7.99967  -5.96258  -5.96235  -5.96052  -0.99874
 Alpha  occ. eigenvalues --   -0.91908  -0.89018  -0.83226  -0.82482  -0.73736
 Alpha  occ. eigenvalues --   -0.69028  -0.68394  -0.64833  -0.63788  -0.62333
 Alpha  occ. eigenvalues --   -0.58137  -0.57255  -0.54631  -0.50965  -0.49902
 Alpha  occ. eigenvalues --   -0.49135  -0.47749  -0.45365  -0.43113  -0.41439
 Alpha  occ. eigenvalues --   -0.40003  -0.38534  -0.37730  -0.37538  -0.36366
 Alpha  occ. eigenvalues --   -0.35392  -0.35122  -0.34246  -0.33526  -0.33212
 Alpha  occ. eigenvalues --   -0.32586  -0.31837  -0.31454  -0.29495  -0.29259
 Alpha  occ. eigenvalues --   -0.28234  -0.27158  -0.26661  -0.26164  -0.25790
 Alpha  occ. eigenvalues --   -0.25063  -0.24804  -0.24458  -0.24079  -0.23799
 Alpha  occ. eigenvalues --   -0.22617  -0.21575  -0.20239  -0.19001  -0.18762
 Alpha  occ. eigenvalues --   -0.17507  -0.17260  -0.15874  -0.13891  -0.11347
 Alpha  occ. eigenvalues --    0.04214
 Alpha virt. eigenvalues --    0.05836   0.06855   0.07860   0.08258   0.08559
 Alpha virt. eigenvalues --    0.09070   0.09423   0.09791   0.10152   0.10827
 Alpha virt. eigenvalues --    0.11591   0.11680   0.12046   0.12491   0.12762

  Beta  occ. eigenvalues --  -88.93860 -19.01795 -18.99597 -18.99366 -14.22340
  Beta  occ. eigenvalues --  -14.21028 -10.10974 -10.10071 -10.09865 -10.09241
  Beta  occ. eigenvalues --  -10.09103 -10.07931 -10.07202 -10.06842 -10.06232
  Beta  occ. eigenvalues --  -10.06090 -10.06003 -10.05753 -10.05674 -10.04634
  Beta  occ. eigenvalues --   -7.99955  -5.96250  -5.96208  -5.96039  -0.99807
  Beta  occ. eigenvalues --   -0.91829  -0.88989  -0.83123  -0.82388  -0.73434
  Beta  occ. eigenvalues --   -0.68949  -0.68338  -0.64371  -0.63744  -0.62147
  Beta  occ. eigenvalues --   -0.58012  -0.57202  -0.54475  -0.50662  -0.49818
  Beta  occ. eigenvalues --   -0.49049  -0.47687  -0.45213  -0.43016  -0.41329
  Beta  occ. eigenvalues --   -0.39906  -0.38447  -0.37635  -0.37466  -0.36318
  Beta  occ. eigenvalues --   -0.35353  -0.35027  -0.34170  -0.33430  -0.33147
  Beta  occ. eigenvalues --   -0.32478  -0.31791  -0.31396  -0.29436  -0.29209
  Beta  occ. eigenvalues --   -0.28130  -0.27017  -0.26368  -0.26118  -0.25670
  Beta  occ. eigenvalues --   -0.24896  -0.24672  -0.24408  -0.24002  -0.23677
  Beta  occ. eigenvalues --   -0.22534  -0.21486  -0.20195  -0.18833  -0.18645
  Beta  occ. eigenvalues --   -0.17331  -0.16879  -0.15126  -0.13211  -0.10827
  Beta virt. eigenvalues --    0.06554   0.07203   0.07792   0.08387   0.08630
  Beta virt. eigenvalues --    0.08962   0.09233   0.09588   0.09923   0.10188
  Beta virt. eigenvalues --    0.10923   0.11581   0.11789   0.12030   0.12722

 Mulliken charges and spin densities:
               1          2
     1  C   -0.495233  -0.006234
     2  C   -0.320194   0.016780
     3  C   -0.206374  -0.023090
     4  N    0.106702   0.009987
     5  C    0.257947   0.074593
     6  C   -0.228171  -0.020242
     7  C   -0.410666   0.242047
     8  C   -0.520028  -0.015328
     9  C   -0.260645   0.121354
    10  C   -0.132549   0.149943
    11  S   -0.240329   0.033411
    12  O   -0.133701   0.003833
    13  O   -0.114663   0.008991
    14  N    0.103483   0.044085
    15  C   -0.246916   0.023821
    16  C   -0.078814  -0.241753
    17  C   -0.216913   0.265321
    18  C   -0.131164  -0.307898
    19  C    0.090647  -0.683067
    20  O   -0.184143  -0.002493
    21  H    0.112013   0.048908
    22  H    0.106114   0.027972
    23  H    0.161229  -0.002713
    24  H    0.106515   0.000736
    25  H    0.132825  -0.000410
    26  H    0.133955   0.014878
    27  H    0.183920   0.000118
    28  H    0.229655  -0.003245
    29  H    0.107022   0.001583
    30  H    0.137504  -0.020495
    31  H    0.128257   0.001776
    32  H    0.221403  -0.005328
    33  H    0.115394   0.062043
    34  H    0.127800   0.063193
    35  H    0.213289  -0.001271
    36  H    0.035028   0.176168
    37  H   -0.485347   0.679925
    38  H    0.600859  -0.581122
    39  H    0.051593   0.136394
    40  H   -0.100230   0.244352
    41  H    0.194312   0.055929
    42  H   -0.151384   0.406549
 Sum of Mulliken charges =  -1.00000   1.00000

 Dipole moment (field-independent basis, Debye):
    X=              3.7921    Y=              1.7114    Z=              2.1145  Tot=              4.6669
 Quadrupole moment (field-independent basis, Debye-Ang):
   XX=           -160.1957   YY=           -183.7586   ZZ=           -163.3052
   XY=            -17.5852   XZ=              8.6412   YZ=              6.4542

 Summary of Natural Population Analysis:

                                       Natural Population
                Natural  -----------------------------------------------
    Atom  No    Charge         Core      Valence    Rydberg      Total
 -----------------------------------------------------------------------
      C    1   -0.28858      0.99967     2.28414    0.00477     3.28858
      C    2   -0.19110      0.99964     2.18538    0.00608     3.19110
      C    3   -0.08324      0.99961     2.07569    0.00794     3.08324
      N    4   -0.33580      0.99970     2.82413    0.01197     3.83580
      C    5    0.09640      0.99943     1.89044    0.01373     2.90360
      C    6   -0.12670      0.99952     2.11933    0.00785     3.12670
      C    7   -0.03276      0.99957     2.02454    0.00864     3.03276
      C    8   -0.12364      0.99956     2.11527    0.00881     3.12364
      C    9   -0.07389      0.99952     2.06518    0.00919     3.07389
      C   10   -0.11540      0.99930     2.09939    0.01672     3.11540
      S   11    1.13096      4.99912     1.77006    0.09986     6.86904
      O   12   -0.47438      0.99990     3.46844    0.00603     4.47438
      O   13   -0.47323      0.99990     3.46662    0.00671     4.47323
      N   14   -0.36585      0.99973     2.85265    0.01348     3.86585
      C   15   -0.08822      0.99962     2.07721    0.01139     3.08822
      C   16   -0.19942      0.99961     2.19059    0.00922     3.19942
      C   17   -0.12922      0.99959     2.11664    0.01299     3.12922
      C   18   -0.09602      0.99960     2.08338    0.01304     3.09602
      C   19   -0.00586      0.99955     1.99275    0.01356     3.00586
      O   20   -0.36866      0.99990     3.36213    0.00663     4.36866
      H   21    0.09958      0.00000     0.39901    0.00141     0.40042
      H   22    0.09042      0.00000     0.40865    0.00093     0.40958
      H   23    0.10841      0.00000     0.39037    0.00122     0.39159
      H   24    0.08619      0.00000     0.41259    0.00122     0.41381
      H   25    0.09373      0.00000     0.40525    0.00103     0.40627
      H   26    0.07780      0.00000     0.42084    0.00136     0.42220
      H   27    0.11291      0.00000     0.38597    0.00112     0.38709
      H   28    0.17141      0.00000     0.32669    0.00189     0.32859
      H   29    0.09355      0.00000     0.40538    0.00107     0.40645
      H   30    0.08984      0.00000     0.40872    0.00143     0.41016
      H   31    0.09545      0.00000     0.40358    0.00097     0.40455
      H   32    0.11159      0.00000     0.38740    0.00101     0.38841
      H   33    0.09238      0.00000     0.40644    0.00119     0.40762
      H   34    0.10987      0.00000     0.38904    0.00109     0.39013
      H   35    0.10719      0.00000     0.39056    0.00224     0.39281
      H   36    0.10348      0.00000     0.39560    0.00092     0.39652
      H   37    0.09578      0.00000     0.40147    0.00275     0.40422
      H   38    0.11813      0.00000     0.38000    0.00187     0.38187
      H   39    0.09501      0.00000     0.40364    0.00135     0.40499
      H   40    0.07461      0.00000     0.42412    0.00128     0.42539
      H   41    0.08932      0.00000     0.40826    0.00242     0.41068
      H   42    0.22796      0.00000     0.26657    0.00547     0.27204
 =======================================================================
   * Total *   -0.00000     23.99206    55.68412    0.32383    80.00000

 Normal termination of Gaussian 16 at Sun Dec 13 15:14:16 2020.
