 Gaussian 16, Revision A.03,

 -----------------------------------------------------------
 # opt freq B3LYP/6-31G(d) empiricaldispersion=gd3bj scf=xqc
 -----------------------------------------------------------

 ------------------------------
 CID_83391277_JID_4988_neutraal
 ------------------------------
 Symbolic Z-matrix:
 Charge =  0 Multiplicity = 1

 SCF Done:  E(RB3LYP) =  -700.231051630     A.U. after   15 cycles
 SCF Done:  E(RB3LYP) =  -700.239765966     A.U. after   14 cycles
 SCF Done:  E(RB3LYP) =  -700.241484983     A.U. after   13 cycles
 SCF Done:  E(RB3LYP) =  -700.241742282     A.U. after   14 cycles
 SCF Done:  E(RB3LYP) =  -700.242700152     A.U. after   13 cycles
 SCF Done:  E(RB3LYP) =  -700.242976364     A.U. after   13 cycles
 SCF Done:  E(RB3LYP) =  -700.243309039     A.U. after   12 cycles
 SCF Done:  E(RB3LYP) =  -700.243390145     A.U. after   12 cycles
 SCF Done:  E(RB3LYP) =  -700.243578594     A.U. after   12 cycles
 SCF Done:  E(RB3LYP) =  -700.243713664     A.U. after   12 cycles
 SCF Done:  E(RB3LYP) =  -700.244161159     A.U. after   12 cycles
 SCF Done:  E(RB3LYP) =  -700.244162694     A.U. after   12 cycles
 SCF Done:  E(RB3LYP) =  -700.244172111     A.U. after   11 cycles
 SCF Done:  E(RB3LYP) =  -700.244172250     A.U. after    9 cycles
 SCF Done:  E(RB3LYP) =  -700.244173405     A.U. after    9 cycles
 SCF Done:  E(RB3LYP) =  -700.244173660     A.U. after    9 cycles
 Optimization completed.
    -- Stationary point found.
 Normal termination of Gaussian 16 at Thu Dec 10 11:08:10 2020.

 --------------------------------------------------------------------
 #N Geom=AllCheck Guess=TCheck SCRF=Check GenChk RB3LYP/6-31G(d) Freq
 --------------------------------------------------------------------

 Structure from the checkpoint file:  "JID_4988.chk"
 ------------------------------
 CID_83391277_JID_4988_neutraal
 ------------------------------
 Charge =  0 Multiplicity = 1

 SCF Done:  E(RB3LYP) =  -700.244173660     A.U. after    1 cycles

  Exact polarizability: 210.096 -11.643 106.200   1.054  -0.272  55.311
 Approx polarizability: 306.516 -36.715 191.675   1.967  -3.143  85.790

                      1                      2                      3
                      A                      A                      A
 Frequencies --     29.3817                39.4483                58.4142
 Red. masses --      9.0167                 4.7394                 3.0328
 Frc consts  --      0.0046                 0.0043                 0.0061
 IR Inten    --      3.0170                 1.0307                 0.0475

                      4                      5                      6
                      A                      A                      A
 Frequencies --     90.6234               102.9590               129.8862
 Red. masses --      1.5874                 1.7733                 2.4759
 Frc consts  --      0.0077                 0.0111                 0.0246
 IR Inten    --      0.3325                 0.0435                 0.4631

                      7                      8                      9
                      A                      A                      A
 Frequencies --    135.8551               208.5536               228.2311
 Red. masses --      2.1671                 4.4417                 6.0491
 Frc consts  --      0.0236                 0.1138                 0.1856
 IR Inten    --      0.2676                11.3015                 2.6440

                     10                     11                     12
                      A                      A                      A
 Frequencies --    261.6999               294.7192               314.0161
 Red. masses --      3.1996                 5.2801                 6.2662
 Frc consts  --      0.1291                 0.2702                 0.3640
 IR Inten    --      0.8595                 1.4725                10.3685

                     13                     14                     15
                      A                      A                      A
 Frequencies --    398.2109               408.2748               421.4751
 Red. masses --      4.8124                 5.0612                 4.1675
 Frc consts  --      0.4496                 0.4971                 0.4362
 IR Inten    --      1.0182                 0.5906                 0.1343

                     16                     17                     18
                      A                      A                      A
 Frequencies --    452.1004               523.1997               537.3092
 Red. masses --      3.4801                 3.0358                 4.2018
 Frc consts  --      0.4191                 0.4896                 0.7147
 IR Inten    --      0.8696                 1.2764                24.0488

                     19                     20                     21
                      A                      A                      A
 Frequencies --    595.4353               628.5422               670.2457
 Red. masses --      3.8017                 5.1323                 8.0289
 Frc consts  --      0.7941                 1.1946                 2.1251
 IR Inten    --     14.2364                76.5533                 9.1321

                     22                     23                     24
                      A                      A                      A
 Frequencies --    681.3089               704.2957               804.4052
 Red. masses --      1.8655                 3.2739                 6.9577
 Frc consts  --      0.5102                 0.9568                 2.6526
 IR Inten    --    136.1717                84.6581                 7.3780

                     25                     26                     27
                      A                      A                      A
 Frequencies --    809.5623               828.5595               972.8709
 Red. masses --     11.4055                 9.0250                11.5240
 Frc consts  --      4.4042                 3.6505                 6.4263
 IR Inten    --     25.5884                 6.3881                55.7785

                     28                     29                     30
                      A                      A                      A
 Frequencies --    993.1027              1007.9822              1015.4036
 Red. masses --      1.5196                 2.7153                 1.4117
 Frc consts  --      0.8830                 1.6255                 0.8576
 IR Inten    --      7.2212                79.9271                 0.6202

                     31                     32                     33
                      A                      A                      A
 Frequencies --   1060.4033              1090.7299              1141.5410
 Red. masses --      3.3410                 1.3792                 1.2145
 Frc consts  --      2.2135                 0.9667                 0.9324
 IR Inten    --      9.4013                 3.5126                 0.0077

                     34                     35                     36
                      A                      A                      A
 Frequencies --   1191.7168              1191.9511              1227.9317
 Red. masses --      2.7388                 1.3648                 4.7277
 Frc consts  --      2.2917                 1.1424                 4.2000
 IR Inten    --    677.1015                 3.5837                 3.8345

                     37                     38                     39
                      A                      A                      A
 Frequencies --   1244.8575              1306.8724              1309.1290
 Red. masses --      2.1521                 2.1063                 8.7438
 Frc consts  --      1.9650                 2.1195                 8.8291
 IR Inten    --     93.8119               183.8197                 5.3839

                     40                     41                     42
                      A                      A                      A
 Frequencies --   1351.7882              1409.3605              1448.2728
 Red. masses --      1.4911                 2.7404                 3.0299
 Frc consts  --      1.6053                 3.2071                 3.7444
 IR Inten    --     25.5084                 6.4022                68.3444

                     43                     44                     45
                      A                      A                      A
 Frequencies --   1455.7901              1463.1432              1466.3403
 Red. masses --      1.1543                 2.6172                 1.6324
 Frc consts  --      1.4413                 3.3012                 2.0679
 IR Inten    --      6.6015                62.8746                69.3033

                     46                     47                     48
                      A                      A                      A
 Frequencies --   1520.1940              1522.4971              1522.8396
 Red. masses --      1.2636                 1.0510                 1.0430
 Frc consts  --      1.7206                 1.4354                 1.4251
 IR Inten    --    120.3708                12.5609                 0.6242

                     49                     50                     51
                      A                      A                      A
 Frequencies --   1535.9935              1559.4654              1620.0470
 Red. masses --      1.0434                 5.9896                 2.7980
 Frc consts  --      1.4503                 8.5822                 4.3267
 IR Inten    --     18.4799                98.8511               293.9560

                     52                     53                     54
                      A                      A                      A
 Frequencies --   1663.9146              1753.9663              1821.6134
 Red. masses --      6.0181                12.4031                10.4460
 Frc consts  --      9.8169                22.4815                20.4226
 IR Inten    --    957.6714               178.4079               209.2108

                     55                     56                     57
                      A                      A                      A
 Frequencies --   3034.7287              3041.7324              3083.3755
 Red. masses --      1.0393                 1.0404                 1.1043
 Frc consts  --      5.6395                 5.6715                 6.1857
 IR Inten    --     18.7080               161.5496                65.0637

                     58                     59                     60
                      A                      A                      A
 Frequencies --   3085.5856              3197.4625              3210.2444
 Red. masses --      1.1050                 1.0914                 1.0963
 Frc consts  --      6.1985                 6.5742                 6.6565
 IR Inten    --      0.0171                 3.6204                 1.0765

                     61                     62                     63
                      A                      A                      A
 Frequencies --   3211.2315              3231.4122              3680.7543
 Red. masses --      1.0953                 1.0921                 1.0640
 Frc consts  --      6.6547                 6.7188                 8.4935
 IR Inten    --      0.9851                 0.9978                68.3037

 - Thermochemistry -
 -------------------
 Temperature   298.150 Kelvin.  Pressure   1.00000 Atm.
 Atom     1 has atomic number  6 and mass  12.00000

 Molecular mass:   195.06439 amu.
 Principal axes and moments of inertia in atomic units:
                           1         2         3
     Eigenvalues --   903.849265454.035986283.19896
           X            1.00000  -0.00021   0.00055
           Y            0.00021   0.99998   0.00653
           Z           -0.00055  -0.00653   0.99998
 This molecule is an asymmetric top.
 Rotational symmetry number  1.
 Warning -- assumption of classical behavior for rotation
           may cause significant error
 Rotational temperatures (Kelvin)      0.09583     0.01588     0.01379
 Rotational constants (GHZ):           1.99673     0.33090     0.28723
 Zero-point vibrational energy     460580.0 (Joules/Mol)
                                  110.08126 (Kcal/Mol)
 Warning -- explicit consideration of  19 degrees of freedom as
           vibrations may cause significant error
 Vibrational temperatures:     42.27    56.76    84.05   130.39   148.14
          (Kelvin)            186.88   195.47   300.06   328.37   376.53
                              424.04   451.80   572.94   587.42   606.41
                              650.47   752.77   773.07   856.70   904.33
                              964.33   980.25  1013.32  1157.36  1164.78
                             1192.11  1399.74  1428.85  1450.26  1460.94
                             1525.68  1569.32  1642.42  1714.61  1714.95
                             1766.72  1791.07  1880.30  1883.54  1944.92
                             2027.76  2083.74  2094.56  2105.14  2109.74
                             2187.22  2190.53  2191.03  2209.95  2243.72
                             2330.89  2394.00  2523.57  2620.90  4366.30
                             4376.37  4436.29  4439.47  4600.44  4618.83
                             4620.25  4649.28  5295.78

 Zero-point correction=                           0.175426 (Hartree/Particle)
 Thermal correction to Energy=                    0.188842
 Thermal correction to Enthalpy=                  0.189786
 Thermal correction to Gibbs Free Energy=         0.133463
 Sum of electronic and zero-point Energies=           -700.068748
 Sum of electronic and thermal Energies=              -700.055331
 Sum of electronic and thermal Enthalpies=            -700.054387
 Sum of electronic and thermal Free Energies=         -700.110711

                     E (Thermal)             CV                S
                      KCal/Mol        Cal/Mol-Kelvin    Cal/Mol-Kelvin
 Total                  118.500             47.385            118.543
 Electronic               0.000              0.000              0.000
 Translational            0.889              2.981             41.710
 Rotational               0.889              2.981             31.805
 Vibrational            116.723             41.423             45.029
 Vibration     1          0.593              1.984              5.871
 Vibration     2          0.594              1.981              5.287
 Vibration     3          0.596              1.974              4.510
 Vibration     4          0.602              1.956              3.647
 Vibration     5          0.605              1.947              3.398
 Vibration     6          0.612              1.923              2.948
 Vibration     7          0.614              1.918              2.861
 Vibration     8          0.642              1.828              2.056
 Vibration     9          0.651              1.798              1.893
 Vibration    10          0.669              1.743              1.650
 Vibration    11          0.689              1.684              1.447
 Vibration    12          0.702              1.647              1.341
 Vibration    13          0.764              1.474              0.969
 Vibration    14          0.773              1.452              0.933
 Vibration    15          0.784              1.424              0.887
 Vibration    16          0.811              1.356              0.789
 Vibration    17          0.878              1.199              0.603
 Vibration    18          0.892              1.168              0.571
 Vibration    19          0.953              1.041              0.458

                           ! Non-Optimized Parameters !
 Normal termination of Gaussian 16 at Thu Dec 10 11:13:31 2020.

 ----------------------------------------------------------------------
 # B3LYP/6-311++G(d,p) empiricaldispersion=gd3bj scf=xqc pop=npa geom=c
 heck
 ----------------------------------------------------------------------

 --------------------------------------
 CID_83391277_JID_4988_Energie_neutraal
 --------------------------------------
 Structure from the checkpoint file:  "JID_4988.chk"
 Charge =  0 Multiplicity = 1

 SCF Done:  E(RB3LYP) =  -700.446605501     A.U. after   15 cycles
 Normal termination of Gaussian 16 at Thu Dec 10 11:15:52 2020.

 ----------------------------------------------------------------------
 # B3LYP/6-311++G(d,p) empiricaldispersion=gd3bj scf=xqc pop=npa geom=c
 heck
 ----------------------------------------------------------------------

 ------------------------------------
 CID_83391277_JID_4988_Energie_kation
 ------------------------------------
 Structure from the checkpoint file:  "JID_4988.chk"
 Charge =  1 Multiplicity = 2

 SCF Done:  E(UB3LYP) =  -700.143646777     A.U. after   26 cycles
 Normal termination of Gaussian 16 at Thu Dec 10 11:21:37 2020.
 Gaussian 16:  ES64L-G16RevA.03 25-Dec-2016

 ----------------------------------------------------------------------
 # B3LYP/6-311++G(d,p) empiricaldispersion=gd3bj scf=xqc pop=npa geom=c
 heck
 ----------------------------------------------------------------------

 -----------------------------------
 CID_83391277_JID_4988_Energie_anion
 -----------------------------------
 Structure from the checkpoint file:  "JID_4988.chk"
 Charge = -1 Multiplicity = 2

                         Standard orientation:
 ---------------------------------------------------------------------
 Center     Atomic      Atomic             Coordinates (Angstroms)
 Number     Number       Type             X           Y           Z
 ---------------------------------------------------------------------
      1          6           0        4.155096    0.959111    0.023467
      2          7           0        3.233448   -0.164208   -0.032115
      3          6           0        3.845176   -1.481199   -0.106371
      4          6           0        1.888276    0.004505   -0.014796
      5          7           0        1.115741   -1.109566   -0.072261
      6          6           0       -0.196479   -0.932619   -0.046343
      7          6           0       -0.797069    0.339149    0.031824
      8          6           0        0.107732    1.420128    0.076134
      9          7           0        1.419693    1.280453    0.056966
     10          6           0       -2.232124    0.636113    0.038109
     11          8           0       -2.679617    1.773310    0.060071
     12          6           0       -3.228643   -0.540695    0.045140
     13          8           0       -2.993049   -1.655061    0.463596
     14          8           0       -4.422124   -0.168827   -0.443598
     15          1           0        4.790392    0.965213   -0.871490
     16          1           0        4.803330    0.866352    0.904201
     17          1           0        3.592174    1.887446    0.079095
     18          1           0        4.481732   -1.646935    0.772185
     19          1           0        3.067311   -2.239756   -0.143495
     20          1           0        4.473220   -1.550743   -1.003748
     21          1           0       -0.803497   -1.830802   -0.083454
     22          1           0       -0.281995    2.434133    0.130515
     23          1           0       -4.998309   -0.953992   -0.375475
 ---------------------------------------------------------------------

 SCF Done:  E(UB3LYP) =  -700.481585393     A.U. after   24 cycles

 The electronic state is 2-A.
 Alpha  occ. eigenvalues --  -19.02262 -18.95540 -18.91339 -14.22075 -14.17199
 Alpha  occ. eigenvalues --  -14.17150 -10.13355 -10.13104 -10.09502 -10.09486
 Alpha  occ. eigenvalues --  -10.07135 -10.06436 -10.06240 -10.02655  -0.96222
 Alpha  occ. eigenvalues --   -0.87623  -0.86907  -0.85650  -0.80627  -0.75098
 Alpha  occ. eigenvalues --   -0.65016  -0.61975  -0.58282  -0.52711  -0.51003
 Alpha  occ. eigenvalues --   -0.48460  -0.42238  -0.41326  -0.39200  -0.37144
 Alpha  occ. eigenvalues --   -0.34249  -0.34038  -0.32842  -0.31530  -0.30458
 Alpha  occ. eigenvalues --   -0.30273  -0.29160  -0.28756  -0.28365  -0.26733
 Alpha  occ. eigenvalues --   -0.26104  -0.24089  -0.22669  -0.18559  -0.18365
 Alpha  occ. eigenvalues --   -0.18024  -0.17347  -0.15182  -0.11128  -0.09100
 Alpha  occ. eigenvalues --   -0.07589   0.02880
 Alpha virt. eigenvalues --    0.06789   0.09052   0.09763   0.09804   0.09929
 Alpha virt. eigenvalues --    0.11447   0.12625   0.12879   0.12898   0.13162
 Alpha virt. eigenvalues --    0.14731   0.15702   0.15773   0.17275   0.17748

  Beta  occ. eigenvalues --  -19.02208 -18.95265 -18.90580 -14.21973 -14.17295
  Beta  occ. eigenvalues --  -14.17243 -10.13198 -10.12883 -10.09508 -10.09492
  Beta  occ. eigenvalues --  -10.07029 -10.06200 -10.05895 -10.02712  -0.95970
  Beta  occ. eigenvalues --   -0.87430  -0.86503  -0.84331  -0.80497  -0.75102
  Beta  occ. eigenvalues --   -0.64731  -0.61947  -0.58043  -0.52030  -0.50716
  Beta  occ. eigenvalues --   -0.48195  -0.41765  -0.41161  -0.39093  -0.36923
  Beta  occ. eigenvalues --   -0.34069  -0.33726  -0.32672  -0.31269  -0.30253
  Beta  occ. eigenvalues --   -0.29490  -0.28714  -0.28431  -0.28337  -0.26459
  Beta  occ. eigenvalues --   -0.25878  -0.23476  -0.20420  -0.18552  -0.17945
  Beta  occ. eigenvalues --   -0.17140  -0.15678  -0.14793  -0.11179  -0.08142
  Beta  occ. eigenvalues --   -0.06914
  Beta virt. eigenvalues --    0.06761   0.09014   0.09426   0.09772   0.10225
  Beta virt. eigenvalues --    0.10640   0.11422   0.12605   0.12856   0.12874
  Beta virt. eigenvalues --    0.14665   0.14951   0.15710   0.15871   0.17275

 Mulliken charges and spin densities:
               1          2
     1  C   -0.265598  -0.004297
     2  N   -0.016895   0.028768
     3  C   -0.262497  -0.003740
     4  C   -0.389064   0.124024
     5  N   -0.173353  -0.047093
     6  C   -0.483586   0.041105
     7  C    0.816019  -0.046991
     8  C    0.132586   0.212510
     9  N   -0.179039  -0.057930
    10  C   -0.702637   0.237925
    11  O   -0.400744   0.280656
    12  C   -0.029536   0.136298
    13  O   -0.391032   0.092711
    14  O   -0.156207   0.004421
    15  H    0.108116   0.005425
    16  H    0.107907   0.005942
    17  H    0.191805   0.000294
    18  H    0.107508   0.005097
    19  H    0.190636   0.000503
    20  H    0.105468   0.005893
    21  H    0.240073  -0.004007
    22  H    0.216916  -0.016362
    23  H    0.233153  -0.001151
 Sum of Mulliken charges =  -1.00000   1.00000

 Dipole moment (field-independent basis, Debye):
    X=              6.9799    Y=             -2.3009    Z=             -0.6847  Tot=              7.3812
 Quadrupole moment (field-independent basis, Debye-Ang):
   XX=           -113.7538   YY=           -102.4681   ZZ=            -87.0076
   XY=              7.8721   XZ=              1.8653   YZ=              2.2812

 Summary of Natural Population Analysis:

                                       Natural Population
                Natural  -----------------------------------------------
    Atom  No    Charge         Core      Valence    Rydberg      Total
 -----------------------------------------------------------------------
      C    1   -0.17731      0.99966     2.17120    0.00645     3.17731
      N    2   -0.23425      0.99963     2.72425    0.01037     3.73425
      C    3   -0.17747      0.99966     2.17136    0.00645     3.17747
      C    4    0.33974      0.99957     1.64497    0.01571     2.66026
      N    5   -0.30597      0.99968     2.79684    0.00945     3.80597
      C    6    0.08583      0.99958     1.90115    0.01345     2.91417
      C    7   -0.13442      0.99949     2.12551    0.00942     3.13442
      C    8    0.11877      0.99958     1.86734    0.01430     2.88123
      N    9   -0.30247      0.99968     2.79328    0.00951     3.80247
      C   10    0.25209      0.99959     1.72580    0.02253     2.74791
      O   11   -0.20556      0.99988     3.19970    0.00598     4.20556
      C   12    0.39368      0.99973     1.57959    0.02699     2.60632
      O   13   -0.30579      0.99987     3.29835    0.00757     4.30579
      O   14   -0.33714      0.99987     3.32917    0.00810     4.33714
      H   15    0.08325      0.00000     0.41529    0.00146     0.41675
      H   16    0.08332      0.00000     0.41523    0.00145     0.41668
      H   17    0.11961      0.00000     0.37934    0.00106     0.38039
      H   18    0.08348      0.00000     0.41506    0.00146     0.41652
      H   19    0.11959      0.00000     0.37935    0.00106     0.38041
      H   20    0.08332      0.00000     0.41522    0.00146     0.41668
      H   21    0.10124      0.00000     0.39766    0.00109     0.39876
      H   22    0.09394      0.00000     0.40418    0.00188     0.40606
      H   23    0.22252      0.00000     0.27147    0.00601     0.27748
 =======================================================================
   * Total *   -0.00000     13.99547    36.82131    0.18321    51.00000

 Normal termination of Gaussian 16 at Thu Dec 10 11:27:00 2020.
