 Gaussian 16, Revision A.03,

 -----------------------------------------------------------
 # opt freq B3LYP/6-31G(d) empiricaldispersion=gd3bj scf=xqc
 -----------------------------------------------------------

 -------------------------------
 CID_130948554_JID_4536_neutraal
 -------------------------------
 Symbolic Z-matrix:
 Charge =  0 Multiplicity = 1

 SCF Done:  E(RB3LYP) =  -645.566109170     A.U. after   14 cycles
 SCF Done:  E(RB3LYP) =  -645.573651244     A.U. after   12 cycles
 SCF Done:  E(RB3LYP) =  -645.575833117     A.U. after   12 cycles
 SCF Done:  E(RB3LYP) =  -645.576788853     A.U. after   12 cycles
 SCF Done:  E(RB3LYP) =  -645.577043941     A.U. after   12 cycles
 SCF Done:  E(RB3LYP) =  -645.577294461     A.U. after   11 cycles
 SCF Done:  E(RB3LYP) =  -645.577551547     A.U. after   12 cycles
 SCF Done:  E(RB3LYP) =  -645.578082642     A.U. after   14 cycles
 SCF Done:  E(RB3LYP) =  -645.578656541     A.U. after   12 cycles
 SCF Done:  E(RB3LYP) =  -645.579751896     A.U. after   13 cycles
 SCF Done:  E(RB3LYP) =  -645.580117408     A.U. after    9 cycles
 SCF Done:  E(RB3LYP) =  -645.580121395     A.U. after    9 cycles
 SCF Done:  E(RB3LYP) =  -645.580122245     A.U. after    8 cycles
 SCF Done:  E(RB3LYP) =  -645.580122513     A.U. after    7 cycles
 SCF Done:  E(RB3LYP) =  -645.580122550     A.U. after    7 cycles
 Optimization completed.
    -- Stationary point found.
 Normal termination of Gaussian 16 at Thu Dec 10 10:02:35 2020.

 --------------------------------------------------------------------
 #N Geom=AllCheck Guess=TCheck SCRF=Check GenChk RB3LYP/6-31G(d) Freq
 --------------------------------------------------------------------

 Structure from the checkpoint file:  "JID_4536.chk"
 -------------------------------
 CID_130948554_JID_4536_neutraal
 -------------------------------
 Charge =  0 Multiplicity = 1

 SCF Done:  E(RB3LYP) =  -645.580122550     A.U. after    1 cycles

  Exact polarizability: 147.021 -19.986 104.767   7.398  14.535 110.590
 Approx polarizability: 203.436 -40.361 162.266  13.414  30.673 185.670

                      1                      2                      3
                      A                      A                      A
 Frequencies --     34.4810                49.7868                83.5778
 Red. masses --      5.5175                 4.5825                 3.4934
 Frc consts  --      0.0039                 0.0067                 0.0144
 IR Inten    --      0.1708                 0.3710                 1.3888

                      4                      5                      6
                      A                      A                      A
 Frequencies --    101.8628               139.1222               171.6773
 Red. masses --      3.2971                 4.1778                 1.3631
 Frc consts  --      0.0202                 0.0476                 0.0237
 IR Inten    --      0.5700                 1.9625                11.9497

                      7                      8                      9
                      A                      A                      A
 Frequencies --    209.6216               243.6529               260.6107
 Red. masses --      2.9377                 3.1495                 4.4069
 Frc consts  --      0.0761                 0.1102                 0.1763
 IR Inten    --      6.3907                 6.8244                 1.8566

                     10                     11                     12
                      A                      A                      A
 Frequencies --    268.7411               329.1602               357.2600
 Red. masses --      3.1721                 1.5746                 1.4721
 Frc consts  --      0.1350                 0.1005                 0.1107
 IR Inten    --      6.7946                19.2041                58.3721

                     13                     14                     15
                      A                      A                      A
 Frequencies --    379.9810               437.7189               458.9986
 Red. masses --      3.7970                 2.7095                 3.3194
 Frc consts  --      0.3230                 0.3059                 0.4120
 IR Inten    --     18.7889                24.3720                 7.5674

                     16                     17                     18
                      A                      A                      A
 Frequencies --    463.8604               475.9356               516.9381
 Red. masses --      2.9259                 2.4594                 1.6010
 Frc consts  --      0.3709                 0.3282                 0.2521
 IR Inten    --     10.8970                 6.8316               235.2228

                     19                     20                     21
                      A                      A                      A
 Frequencies --    551.7643               593.0671               693.9599
 Red. masses --      4.7808                 4.1270                 3.8711
 Frc consts  --      0.8575                 0.8553                 1.0984
 IR Inten    --     21.3765                 4.2263                40.0605

                     22                     23                     24
                      A                      A                      A
 Frequencies --    715.8253               765.7980               789.9397
 Red. masses --      4.5138                 3.3697                 2.4059
 Frc consts  --      1.3627                 1.1643                 0.8845
 IR Inten    --     10.5252                 0.9746                 5.3454

                     25                     26                     27
                      A                      A                      A
 Frequencies --    814.2983               850.4407               873.3707
 Red. masses --      2.5522                 1.6260                 1.6689
 Frc consts  --      0.9971                 0.6929                 0.7500
 IR Inten    --     40.5066                 8.0727                20.2190

                     28                     29                     30
                      A                      A                      A
 Frequencies --    893.6499               926.8845               954.2757
 Red. masses --      1.2684                 2.7642                 2.4563
 Frc consts  --      0.5968                 1.3992                 1.3179
 IR Inten    --      4.2116                14.2679                21.4930

                     31                     32                     33
                      A                      A                      A
 Frequencies --    973.1907               975.0758              1007.2206
 Red. masses --      2.7172                 1.5821                 5.8506
 Frc consts  --      1.5162                 0.8862                 3.4970
 IR Inten    --      1.8857                 0.7452                13.8008

                     34                     35                     36
                      A                      A                      A
 Frequencies --   1009.9437              1034.7839              1094.1958
 Red. masses --      3.4450                 2.5104                 1.5014
 Frc consts  --      2.0703                 1.5838                 1.0591
 IR Inten    --     18.4243                36.8807                16.6705

                     37                     38                     39
                      A                      A                      A
 Frequencies --   1103.8435              1130.5591              1133.3430
 Red. masses --      2.3814                 3.2115                 1.1243
 Frc consts  --      1.7096                 2.4185                 0.8508
 IR Inten    --     11.9660                55.9997                 2.5317

                     40                     41                     42
                      A                      A                      A
 Frequencies --   1149.3121              1188.4335              1191.5320
 Red. masses --      1.4720                 1.4837                 1.4316
 Frc consts  --      1.1456                 1.2347                 1.1975
 IR Inten    --      4.2330                20.5368                 4.4344

                     43                     44                     45
                      A                      A                      A
 Frequencies --   1224.6338              1235.8363              1259.8375
 Red. masses --      3.0887                 2.7277                 1.3333
 Frc consts  --      2.7292                 2.4545                 1.2469
 IR Inten    --     88.4574                40.6788                 1.3567

                     46                     47                     48
                      A                      A                      A
 Frequencies --   1279.9030              1312.4246              1320.5546
 Red. masses --      1.3025                 2.2662                 1.6910
 Frc consts  --      1.2572                 2.2999                 1.7374
 IR Inten    --      0.4549                17.5431                 3.9752

                     49                     50                     51
                      A                      A                      A
 Frequencies --   1340.2395              1357.8753              1363.7567
 Red. masses --      1.9215                 1.6072                 1.6111
 Frc consts  --      2.0336                 1.7460                 1.7654
 IR Inten    --     24.1262                 8.3698                 7.9197

                     52                     53                     54
                      A                      A                      A
 Frequencies --   1366.7892              1382.6211              1388.6812
 Red. masses --      1.5153                 1.2659                 1.8469
 Frc consts  --      1.6678                 1.4258                 2.0985
 IR Inten    --      0.6397                 9.3631                31.4657

                     55                     56                     57
                      A                      A                      A
 Frequencies --   1438.4648              1456.8767              1500.6317
 Red. masses --      1.6919                 1.3014                 1.1031
 Frc consts  --      2.0626                 1.6275                 1.4636
 IR Inten    --     45.9983                81.3965                 7.3843

                     58                     59                     60
                      A                      A                      A
 Frequencies --   1518.3280              1529.3887              1541.7002
 Red. masses --      2.3694                 1.0835                 2.0434
 Frc consts  --      3.2182                 1.4932                 2.8616
 IR Inten    --    187.9806                 0.6162                 1.0333

                     61                     62                     63
                      A                      A                      A
 Frequencies --   1554.8695              1618.5121              1664.5229
 Red. masses --      1.1263                 6.3294                 5.5860
 Frc consts  --      1.6043                 9.7690                 9.1186
 IR Inten    --     12.1860                63.0910               206.9050

                     64                     65                     66
                      A                      A                      A
 Frequencies --   1749.8363              2972.0138              2985.2206
 Red. masses --      1.0618                 1.0662                 1.0685
 Frc consts  --      1.9156                 5.5488                 5.6103
 IR Inten    --     26.4047                35.2064                50.8650

                     67                     68                     69
                      A                      A                      A
 Frequencies --   3048.9330              3078.6109              3080.6077
 Red. masses --      1.0592                 1.0946                 1.0951
 Frc consts  --      5.8012                 6.1124                 6.1232
 IR Inten    --     38.5630                47.8269                53.5115

                     70                     71                     72
                      A                      A                      A
 Frequencies --   3093.8829              3133.9403              3168.8201
 Red. masses --      1.1067                 1.0889                 1.0889
 Frc consts  --      6.2412                 6.3011                 6.4423
 IR Inten    --     15.8074                43.8154                31.2524

                     73                     74                     75
                      A                      A                      A
 Frequencies --   3177.1857              3205.8984              3425.1526
 Red. masses --      1.0902                 1.0936                 1.0498
 Frc consts  --      6.4843                 6.6224                 7.2566
 IR Inten    --      7.2256                13.2269                 5.8634

                     76                     77                     78
                      A                      A                      A
 Frequencies --   3502.7360              3600.8594              3725.0613
 Red. masses --      1.0913                 1.0772                 1.0657
 Frc consts  --      7.8885                 8.2293                 8.7125
 IR Inten    --      0.4626                29.7696                 5.1559

 - Thermochemistry -
 -------------------
 Temperature   298.150 Kelvin.  Pressure   1.00000 Atm.
 Atom     1 has atomic number  6 and mass  12.00000

 Molecular mass:   194.11676 amu.
 Principal axes and moments of inertia in atomic units:
                           1         2         3
     Eigenvalues --  1557.942024690.609915075.57054
           X            0.99994  -0.01049   0.00289
           Y            0.01034   0.99887   0.04641
           Z           -0.00338  -0.04638   0.99892
 This molecule is an asymmetric top.
 Rotational symmetry number  1.
 Warning -- assumption of classical behavior for rotation
           may cause significant error
 Rotational temperatures (Kelvin)      0.05560     0.01847     0.01706
 Rotational constants (GHZ):           1.15841     0.38476     0.35557
 Zero-point vibrational energy     622075.5 (Joules/Mol)
                                  148.67961 (Kcal/Mol)
 Warning -- explicit consideration of  20 degrees of freedom as
           vibrations may cause significant error
 Vibrational temperatures:     49.61    71.63   120.25   146.56   200.17
          (Kelvin)            247.01   301.60   350.56   374.96   386.66
                              473.59   514.02   546.71   629.78   660.40
                              667.39   684.77   743.76   793.87   853.29
                              998.45  1029.91  1101.81  1136.55  1171.59
                             1223.59  1256.59  1285.76  1333.58  1372.99
                             1400.20  1402.92  1449.17  1453.08  1488.82
                             1574.30  1588.18  1626.62  1630.63  1653.60
                             1709.89  1714.35  1761.97  1778.09  1812.63
                             1841.49  1888.29  1899.98  1928.31  1953.68
                             1962.14  1966.50  1989.28  1998.00  2069.63
                             2096.12  2159.07  2184.54  2200.45  2218.16
                             2237.11  2328.68  2394.88  2517.62  4276.07
                             4295.07  4386.73  4429.43  4432.31  4451.41
                             4509.04  4559.23  4571.26  4612.57  4928.03
                             5039.66  5180.83  5359.53

 Zero-point correction=                           0.236936 (Hartree/Particle)
 Thermal correction to Energy=                    0.250111
 Thermal correction to Enthalpy=                  0.251055
 Thermal correction to Gibbs Free Energy=         0.196443
 Sum of electronic and zero-point Energies=           -645.343187
 Sum of electronic and thermal Energies=              -645.330012
 Sum of electronic and thermal Enthalpies=            -645.329067
 Sum of electronic and thermal Free Energies=         -645.383680

                     E (Thermal)             CV                S
                      KCal/Mol        Cal/Mol-Kelvin    Cal/Mol-Kelvin
 Total                  156.947             50.255            114.941
 Electronic               0.000              0.000              0.000
 Translational            0.889              2.981             41.695
 Rotational               0.889              2.981             31.984
 Vibrational            155.170             44.293             41.263
 Vibration     1          0.594              1.983              5.553
 Vibration     2          0.595              1.978              4.826
 Vibration     3          0.600              1.960              3.805
 Vibration     4          0.604              1.948              3.418
 Vibration     5          0.615              1.914              2.816
 Vibration     6          0.626              1.877              2.417
 Vibration     7          0.642              1.826              2.047
 Vibration     8          0.659              1.773              1.776
 Vibration     9          0.669              1.745              1.658
 Vibration    10          0.673              1.731              1.604
 Vibration    11          0.712              1.617              1.264
 Vibration    12          0.732              1.560              1.134
 Vibration    13          0.750              1.513              1.039
 Vibration    14          0.798              1.388              0.834
 Vibration    15          0.817              1.341              0.769
 Vibration    16          0.821              1.330              0.755
 Vibration    17          0.833              1.303              0.721
 Vibration    18          0.872              1.212              0.617
 Vibration    19          0.907              1.136              0.541
 Vibration    20          0.951              1.047              0.462

 Optimization completed.
    -- Stationary point found.
 Normal termination of Gaussian 16 at Thu Dec 10 10:10:03 2020.

 ----------------------------------------------------------------------
 # B3LYP/6-311++G(d,p) empiricaldispersion=gd3bj scf=xqc pop=npa geom=c
 heck
 ----------------------------------------------------------------------

 ---------------------------------------
 CID_130948554_JID_4536_Energie_neutraal
 ---------------------------------------
 Structure from the checkpoint file:  "JID_4536.chk"
 Charge =  0 Multiplicity = 1

 SCF Done:  E(RB3LYP) =  -645.775065833     A.U. after   14 cycles
 Normal termination of Gaussian 16 at Thu Dec 10 10:13:03 2020.

 ----------------------------------------------------------------------
 # B3LYP/6-311++G(d,p) empiricaldispersion=gd3bj scf=xqc pop=npa geom=c
 heck
 ----------------------------------------------------------------------

 -------------------------------------
 CID_130948554_JID_4536_Energie_kation
 -------------------------------------
 Structure from the checkpoint file:  "JID_4536.chk"
 Charge =  1 Multiplicity = 2

 SCF Done:  E(UB3LYP) =  -645.483693423     A.U. after   26 cycles
 Normal termination of Gaussian 16 at Thu Dec 10 10:19:18 2020.
 Gaussian 16:  ES64L-G16RevA.03 25-Dec-2016

 ----------------------------------------------------------------------
 # B3LYP/6-311++G(d,p) empiricaldispersion=gd3bj scf=xqc pop=npa geom=c
 heck
 ----------------------------------------------------------------------

 ------------------------------------
 CID_130948554_JID_4536_Energie_anion
 ------------------------------------
 Structure from the checkpoint file:  "JID_4536.chk"
 Charge = -1 Multiplicity = 2

                         Standard orientation:
 ---------------------------------------------------------------------
 Center     Atomic      Atomic             Coordinates (Angstroms)
 Number     Number       Type             X           Y           Z
 ---------------------------------------------------------------------
      1          6           0       -2.747023    0.461673    0.591907
      2          6           0       -3.143827   -1.000242    0.265274
      3          6           0       -2.207200   -0.862674   -0.961779
      4          7           0       -2.307937    0.600642   -0.810037
      5          6           0       -1.188894    1.470410   -1.167757
      6          6           0        0.111574    1.154281   -0.457390
      7          6           0        1.013670    0.245936   -0.993355
      8          6           0        2.172455   -0.088324   -0.259478
      9          7           0        2.440819    0.423295    0.949322
     10          6           0        1.563751    1.306209    1.450632
     11          6           0        0.402315    1.705296    0.804616
     12          7           0        3.104272   -0.962382   -0.793357
     13          7           0        4.118126   -1.518760    0.020450
     14          8           0       -2.903142   -2.009560    1.209552
     15          1           0       -3.521608    1.170863    0.906541
     16          1           0       -1.923729    0.475617    1.326708
     17          1           0       -4.193047   -1.093246   -0.020671
     18          1           0       -1.209773   -1.272672   -0.724879
     19          1           0       -2.533862   -1.251302   -1.933604
     20          1           0       -1.049227    1.394308   -2.252683
     21          1           0       -1.491544    2.501088   -0.948026
     22          1           0        0.843136   -0.191941   -1.974071
     23          1           0        1.815933    1.711868    2.429058
     24          1           0       -0.261591    2.433915    1.259350
     25          1           0        2.753811   -1.626622   -1.470277
     26          1           0        4.869209   -0.829777    0.063972
     27          1           0        3.754844   -1.563287    0.975881
     28          1           0       -1.975305   -1.937291    1.485624
 ---------------------------------------------------------------------

 SCF Done:  E(UB3LYP) =  -645.763084013     A.U. after   33 cycles
 SCF Done:  E(UB3LYP) =  -645.763084013     a.u. after    1 cycles

 The electronic state is 2-A.
 Alpha  occ. eigenvalues --  -19.03730 -14.24732 -14.23378 -14.20628 -14.19164
 Alpha  occ. eigenvalues --  -10.13614 -10.12949 -10.09330 -10.09291 -10.09255
 Alpha  occ. eigenvalues --  -10.09252 -10.07518 -10.06196 -10.06038  -0.94244
 Alpha  occ. eigenvalues --   -0.89875  -0.84250  -0.82383  -0.71117  -0.70704
 Alpha  occ. eigenvalues --   -0.64815  -0.62369  -0.58283  -0.55584  -0.52917
 Alpha  occ. eigenvalues --   -0.50317  -0.47079  -0.42831  -0.41609  -0.40944
 Alpha  occ. eigenvalues --   -0.40192  -0.39544  -0.37919  -0.36770  -0.34299
 Alpha  occ. eigenvalues --   -0.33348  -0.33267  -0.31270  -0.29692  -0.29457
 Alpha  occ. eigenvalues --   -0.29315  -0.28080  -0.26369  -0.24081  -0.22349
 Alpha  occ. eigenvalues --   -0.20895  -0.18418  -0.17928  -0.17443  -0.15924
 Alpha  occ. eigenvalues --   -0.12113  -0.11320   0.04638
 Alpha virt. eigenvalues --    0.06798   0.07154   0.07361   0.08238   0.08606
 Alpha virt. eigenvalues --    0.09184   0.09567   0.09699   0.10925   0.11104
 Alpha virt. eigenvalues --    0.11337   0.12379   0.13059   0.13982   0.14178

  Beta  occ. eigenvalues --  -19.03718 -14.24715 -14.23366 -14.20619 -14.19068
  Beta  occ. eigenvalues --  -10.13628 -10.12944 -10.09268 -10.09251 -10.09243
  Beta  occ. eigenvalues --  -10.09235 -10.07395 -10.06112 -10.06055  -0.94218
  Beta  occ. eigenvalues --   -0.89840  -0.84221  -0.82250  -0.70948  -0.70624
  Beta  occ. eigenvalues --   -0.64749  -0.62247  -0.58238  -0.55493  -0.52830
  Beta  occ. eigenvalues --   -0.50196  -0.47013  -0.42759  -0.41546  -0.40872
  Beta  occ. eigenvalues --   -0.40157  -0.39499  -0.37824  -0.36723  -0.34247
  Beta  occ. eigenvalues --   -0.33272  -0.33159  -0.31191  -0.29666  -0.29325
  Beta  occ. eigenvalues --   -0.29164  -0.28003  -0.26299  -0.24037  -0.22299
  Beta  occ. eigenvalues --   -0.20738  -0.18375  -0.17905  -0.16840  -0.15813
  Beta  occ. eigenvalues --   -0.12070  -0.11086
  Beta virt. eigenvalues --    0.06779   0.07614   0.07807   0.08103   0.08714
  Beta virt. eigenvalues --    0.08958   0.09663   0.09942   0.10106   0.11171
  Beta virt. eigenvalues --    0.11424   0.11560   0.12700   0.13392   0.13987

 Mulliken charges and spin densities:
               1          2
     1  C    0.156697  -0.491061
     2  C   -0.040948  -0.182507
     3  C    0.154938  -0.515411
     4  N    0.022750   0.076755
     5  C    1.664433  -2.532583
     6  C    1.807468  -1.096609
     7  C   -2.147972   2.621057
     8  C    1.270213  -2.100114
     9  N   -0.240328   0.085577
    10  C    1.047281  -1.345758
    11  C   -2.321324   2.118814
    12  N   -0.105495   0.035393
    13  N   -0.322889  -0.027918
    14  O   -0.231383   0.023688
    15  H   -0.265852   0.403295
    16  H    0.285548  -0.171330
    17  H    0.111931   0.072747
    18  H    0.267107  -0.137097
    19  H   -0.301379   0.439081
    20  H   -0.287221   0.479964
    21  H   -0.260272   0.449722
    22  H   -0.957714   1.155492
    23  H   -0.235396   0.394834
    24  H   -0.587124   0.760276
    25  H    0.071513   0.189488
    26  H    0.189522   0.064074
    27  H    0.150406   0.084168
    28  H    0.105488   0.145964
 Sum of Mulliken charges =  -1.00000   1.00000

 Dipole moment (field-independent basis, Debye):
    X=              0.7765    Y=             -1.7235    Z=              2.4873  Tot=              3.1241
 Quadrupole moment (field-independent basis, Debye-Ang):
   XX=           -141.4853   YY=           -125.8615   ZZ=           -123.6382
   XY=              3.3014   XZ=              0.5920   YZ=             -2.1668

 Summary of Natural Population Analysis:

                                       Natural Population
                Natural  -----------------------------------------------
    Atom  No    Charge         Core      Valence    Rydberg      Total
 -----------------------------------------------------------------------
      C    1   -0.09305      0.99962     2.08198    0.01144     3.09305
      C    2    0.06019      0.99955     1.92592    0.01434     2.93981
      C    3   -0.09279      0.99962     2.08158    0.01159     3.09279
      N    4   -0.27506      0.99974     2.76017    0.01515     3.77506
      C    5   -0.09335      0.99957     2.08034    0.01345     3.09335
      C    6    0.01464      0.99951     1.97488    0.01098     2.98536
      C    7   -0.12906      0.99946     2.11965    0.00995     3.12906
      C    8    0.19180      0.99953     1.79360    0.01507     2.80820
      N    9   -0.26687      0.99967     2.75515    0.01205     3.76687
      C   10    0.04780      0.99958     1.93863    0.01400     2.95220
      C   11   -0.15122      0.99950     2.14139    0.01033     3.15122
      N   12   -0.22840      0.99966     2.71481    0.01393     3.72840
      N   13   -0.31930      0.99978     2.80882    0.01070     3.81930
      O   14   -0.36576      0.99989     3.35930    0.00657     4.36576
      H   15    0.09327      0.00000     0.40511    0.00162     0.40673
      H   16    0.08678      0.00000     0.41135    0.00188     0.41322
      H   17    0.08777      0.00000     0.41104    0.00119     0.41223
      H   18    0.08600      0.00000     0.41201    0.00199     0.41400
      H   19    0.09388      0.00000     0.40438    0.00174     0.40612
      H   20    0.10260      0.00000     0.39512    0.00227     0.39740
      H   21    0.10079      0.00000     0.39731    0.00190     0.39921
      H   22    0.10381      0.00000     0.39380    0.00239     0.39619
      H   23    0.08603      0.00000     0.41267    0.00131     0.41397
      H   24    0.10390      0.00000     0.39456    0.00154     0.39610
      H   25    0.18257      0.00000     0.31391    0.00353     0.31743
      H   26    0.17040      0.00000     0.32719    0.00240     0.32960
      H   27    0.17467      0.00000     0.32249    0.00284     0.32533
      H   28    0.22797      0.00000     0.26911    0.00292     0.27203
 =======================================================================
   * Total *    0.00000     13.99466    37.80626    0.19908    52.00000

 Normal termination of Gaussian 16 at Thu Dec 10 10:27:18 2020.
