 Gaussian 16, Revision A.03,

 -----------------------------------------------------------
 # opt freq B3LYP/6-31G(d) empiricaldispersion=gd3bj scf=xqc
 -----------------------------------------------------------

 ------------------------------
 CID_101605582_JID_466_neutraal
 ------------------------------
 Symbolic Z-matrix:
 Charge =  0 Multiplicity = 1

 SCF Done:  E(RB3LYP) =  -822.527320647     A.U. after   14 cycles
 SCF Done:  E(RB3LYP) =  -822.532332980     A.U. after   12 cycles
 SCF Done:  E(RB3LYP) =  -822.532949134     A.U. after   13 cycles
 SCF Done:  E(RB3LYP) =  -822.533013405     A.U. after   12 cycles
 SCF Done:  E(RB3LYP) =  -822.533101709     A.U. after   12 cycles
 SCF Done:  E(RB3LYP) =  -822.533118459     A.U. after   10 cycles
 SCF Done:  E(RB3LYP) =  -822.533122694     A.U. after    9 cycles
 SCF Done:  E(RB3LYP) =  -822.533124607     A.U. after    8 cycles
 SCF Done:  E(RB3LYP) =  -822.533127597     A.U. after    9 cycles
 SCF Done:  E(RB3LYP) =  -822.533129551     A.U. after    8 cycles
 SCF Done:  E(RB3LYP) =  -822.533130479     A.U. after    8 cycles
 SCF Done:  E(RB3LYP) =  -822.533130839     A.U. after    8 cycles
 Optimization completed.
    -- Stationary point found.
 Normal termination of Gaussian 16 at Tue Dec  8 10:38:06 2020.

 --------------------------------------------------------------------
 #N Geom=AllCheck Guess=TCheck SCRF=Check GenChk RB3LYP/6-31G(d) Freq
 --------------------------------------------------------------------

 Structure from the checkpoint file:  "JID_466.chk"
 ------------------------------
 CID_101605582_JID_466_neutraal
 ------------------------------
 Charge =  0 Multiplicity = 1

 SCF Done:  E(RB3LYP) =  -822.533130839     A.U. after    1 cycles

  Exact polarizability: 116.982   7.772  98.118  -2.457   3.583  77.079
 Approx polarizability: 172.556  20.188 146.678  -4.720   0.871 118.120

                      1                      2                      3
                      A                      A                      A
 Frequencies --     65.1090               109.2194               129.0851
 Red. masses --      3.3479                 1.0413                 3.8707
 Frc consts  --      0.0084                 0.0073                 0.0380
 IR Inten    --      0.1762                 0.9337                 1.0005

                      4                      5                      6
                      A                      A                      A
 Frequencies --    161.6415               184.1125               215.6587
 Red. masses --      2.3497                 2.7781                 3.4230
 Frc consts  --      0.0362                 0.0555                 0.0938
 IR Inten    --      0.2249                 4.0168                 2.0342

                      7                      8                      9
                      A                      A                      A
 Frequencies --    242.2775               249.2266               308.2260
 Red. masses --      3.8919                 1.0898                 3.1292
 Frc consts  --      0.1346                 0.0399                 0.1752
 IR Inten    --      1.3519                 0.9231                 3.8448

                     10                     11                     12
                      A                      A                      A
 Frequencies --    315.4160               339.3894               362.2597
 Red. masses --      1.6694                 3.1615                 2.0746
 Frc consts  --      0.0979                 0.2146                 0.1604
 IR Inten    --     74.8153                19.3003                66.9943

                     13                     14                     15
                      A                      A                      A
 Frequencies --    416.7805               430.6626               501.8610
 Red. masses --      4.9204                 8.0563                 3.0295
 Frc consts  --      0.5036                 0.8804                 0.4496
 IR Inten    --      2.4555                 1.1533                 3.0905

                     16                     17                     18
                      A                      A                      A
 Frequencies --    559.4901               597.8140               685.5978
 Red. masses --      3.3027                 4.0192                 3.1130
 Frc consts  --      0.6091                 0.8463                 0.8621
 IR Inten    --      4.6272                 3.8154                 1.6419

                     19                     20                     21
                      A                      A                      A
 Frequencies --    704.6347               779.8072               851.9749
 Red. masses --      4.1136                 2.7414                 1.8784
 Frc consts  --      1.2034                 0.9822                 0.8033
 IR Inten    --      3.4325                25.5032                 8.1262

                     22                     23                     24
                      A                      A                      A
 Frequencies --    869.8391               887.2695               892.4547
 Red. masses --      1.6165                 3.3814                 3.1986
 Frc consts  --      0.7206                 1.5684                 1.5010
 IR Inten    --      6.9168                 7.7282                24.7856

                     25                     26                     27
                      A                      A                      A
 Frequencies --    975.5573              1010.3148              1016.8813
 Red. masses --      1.8427                 1.7732                 1.7930
 Frc consts  --      1.0332                 1.0664                 1.0924
 IR Inten    --      8.1387                 6.4912                 4.5694

                     28                     29                     30
                      A                      A                      A
 Frequencies --   1059.0194              1072.4593              1113.3424
 Red. masses --      2.7056                 1.5279                 1.9704
 Frc consts  --      1.7878                 1.0354                 1.4390
 IR Inten    --      1.9771                 1.1774                23.8474

                     31                     32                     33
                      A                      A                      A
 Frequencies --   1140.9541              1173.7498              1177.5839
 Red. masses --      2.1458                 2.2452                 1.3130
 Frc consts  --      1.6458                 1.8224                 1.0728
 IR Inten    --      9.0585                23.6795                 0.2219

                     34                     35                     36
                      A                      A                      A
 Frequencies --   1225.1704              1262.6582              1315.2854
 Red. masses --      1.3711                 3.4697                 1.2492
 Frc consts  --      1.2126                 3.2592                 1.2733
 IR Inten    --      1.2334                 9.2780                12.5912

                     37                     38                     39
                      A                      A                      A
 Frequencies --   1343.3586              1392.3129              1403.6379
 Red. masses --      1.2984                 1.4765                 1.1082
 Frc consts  --      1.3805                 1.6864                 1.2864
 IR Inten    --      2.5768                 1.3987                42.2100

                     40                     41                     42
                      A                      A                      A
 Frequencies --   1432.3042              1443.6584              1500.9517
 Red. masses --      1.2665                 1.2575                 1.0771
 Frc consts  --      1.5308                 1.5441                 1.4297
 IR Inten    --      9.2196                 3.4196                 2.4045

                     43                     44                     45
                      A                      A                      A
 Frequencies --   1508.0978              1514.4234              1516.3872
 Red. masses --      1.0486                 1.0488                 1.0803
 Frc consts  --      1.4051                 1.4172                 1.4636
 IR Inten    --      2.4988                 4.7474                 6.0506

                     46                     47                     48
                      A                      A                      A
 Frequencies --   1521.1698              1533.3695              1741.3265
 Red. masses --      1.0772                 1.0458                 7.1575
 Frc consts  --      1.4686                 1.4487                12.7871
 IR Inten    --      3.1200                 6.0297                 5.1298

                     49                     50                     51
                      A                      A                      A
 Frequencies --   3038.0244              3046.9208              3078.0536
 Red. masses --      1.0399                 1.0606                 1.0347
 Frc consts  --      5.6550                 5.8014                 5.7756
 IR Inten    --     27.9816                20.0819                 8.4384

                     52                     53                     54
                      A                      A                      A
 Frequencies --   3081.5375              3082.8967              3099.1054
 Red. masses --      1.0992                 1.0987                 1.0628
 Frc consts  --      6.1497                 6.1523                 6.0143
 IR Inten    --     25.6777                 2.9889                29.1404

                     55                     56                     57
                      A                      A                      A
 Frequencies --   3136.6023              3150.8004              3152.8379
 Red. masses --      1.0972                 1.1027                 1.1094
 Frc consts  --      6.3600                 6.4496                 6.4973
 IR Inten    --     12.2832                11.0107                 8.7566

                     58                     59                     60
                      A                      A                      A
 Frequencies --   3162.1018              3176.3664              3637.0848
 Red. masses --      1.1034                 1.0887                 1.0680
 Frc consts  --      6.5005                 6.4717                 8.3238
 IR Inten    --      7.1656                16.1048                11.5183

 - Thermochemistry -
 -------------------
 Temperature   298.150 Kelvin.  Pressure   1.00000 Atm.
 Atom     1 has atomic number  6 and mass  12.00000

 Molecular mass:   160.05580 amu.
 Principal axes and moments of inertia in atomic units:
                           1         2         3
     Eigenvalues --  1293.585271722.655462299.61682
           X            0.99912  -0.04164   0.00589
           Y            0.04113   0.99671   0.06980
           Z           -0.00877  -0.06950   0.99754
 This molecule is an asymmetric top.
 Rotational symmetry number  1.
 Warning -- assumption of classical behavior for rotation
           may cause significant error
 Rotational temperatures (Kelvin)      0.06696     0.05028     0.03766
 Rotational constants (GHZ):           1.39515     1.04765     0.78480
 Zero-point vibrational energy     479081.1 (Joules/Mol)
                                  114.50314 (Kcal/Mol)
 Warning -- explicit consideration of  17 degrees of freedom as
           vibrations may cause significant error
 Vibrational temperatures:     93.68   157.14   185.72   232.57   264.90
          (Kelvin)            310.28   348.58   358.58   443.47   453.81
                              488.31   521.21   599.65   619.63   722.07
                              804.98   860.12   986.42  1013.81  1121.97
                             1225.80  1251.50  1276.58  1284.04  1403.61
                             1453.62  1463.07  1523.69  1543.03  1601.85
                             1641.58  1688.76  1694.28  1762.75  1816.68
                             1892.40  1932.79  2003.23  2019.52  2060.77
                             2077.10  2159.53  2169.82  2178.92  2181.74
                             2188.62  2206.18  2505.38  4371.04  4383.84
                             4428.63  4433.65  4435.60  4458.92  4512.87
                             4533.30  4536.23  4549.56  4570.08  5232.95

 Zero-point correction=                           0.182472 (Hartree/Particle)
 Thermal correction to Energy=                    0.193817
 Thermal correction to Enthalpy=                  0.194761
 Thermal correction to Gibbs Free Energy=         0.145926
 Sum of electronic and zero-point Energies=           -822.350658
 Sum of electronic and thermal Energies=              -822.339314
 Sum of electronic and thermal Enthalpies=            -822.338370
 Sum of electronic and thermal Free Energies=         -822.387205

                     E (Thermal)             CV                S
                      KCal/Mol        Cal/Mol-Kelvin    Cal/Mol-Kelvin
 Total                  121.622             42.287            102.781
 Electronic               0.000              0.000              0.000
 Translational            0.889              2.981             41.120
 Rotational               0.889              2.981             30.017
 Vibrational            119.844             36.326             31.644
 Vibration     1          0.597              1.971              4.296
 Vibration     2          0.606              1.942              3.283
 Vibration     3          0.612              1.924              2.960
 Vibration     4          0.622              1.889              2.530
 Vibration     5          0.631              1.861              2.286
 Vibration     6          0.645              1.817              1.995
 Vibration     7          0.658              1.776              1.786
 Vibration     8          0.662              1.764              1.736
 Vibration     9          0.698              1.658              1.372
 Vibration    10          0.703              1.644              1.334
 Vibration    11          0.719              1.597              1.215
 Vibration    12          0.736              1.550              1.112
 Vibration    13          0.780              1.434              0.903
 Vibration    14          0.792              1.403              0.856
 Vibration    15          0.857              1.246              0.653
 Vibration    16          0.915              1.119              0.525
 Vibration    17          0.956              1.036              0.453

                           ! Non-Optimized Parameters !
 Normal termination of Gaussian 16 at Tue Dec  8 10:42:31 2020.

 ----------------------------------------------------------------------
 # B3LYP/6-311++G(d,p) empiricaldispersion=gd3bj scf=xqc pop=npa geom=c
 heck
 ----------------------------------------------------------------------

 --------------------------------------
 CID_101605582_JID_466_Energie_neutraal
 --------------------------------------
 Structure from the checkpoint file:  "JID_466.chk"
 Charge =  0 Multiplicity = 1

 SCF Done:  E(RB3LYP) =  -822.688531019     A.U. after   16 cycles
 Normal termination of Gaussian 16 at Tue Dec  8 10:45:32 2020.

 ----------------------------------------------------------------------
 # B3LYP/6-311++G(d,p) empiricaldispersion=gd3bj scf=xqc pop=npa geom=c
 heck
 ----------------------------------------------------------------------

 ------------------------------------
 CID_101605582_JID_466_Energie_kation
 ------------------------------------
 Structure from the checkpoint file:  "JID_466.chk"
 Charge =  1 Multiplicity = 2

 SCF Done:  E(UB3LYP) =  -822.374318359     A.U. after   23 cycles
 Normal termination of Gaussian 16 at Tue Dec  8 10:50:19 2020.
 Gaussian 16:  ES64L-G16RevA.03 25-Dec-2016

 ----------------------------------------------------------------------
 # B3LYP/6-311++G(d,p) empiricaldispersion=gd3bj scf=xqc pop=npa geom=c
 heck
 ----------------------------------------------------------------------

 -----------------------------------
 CID_101605582_JID_466_Energie_anion
 -----------------------------------
 Structure from the checkpoint file:  "JID_466.chk"
 Charge = -1 Multiplicity = 2

                         Standard orientation:
 ---------------------------------------------------------------------
 Center     Atomic      Atomic             Coordinates (Angstroms)
 Number     Number       Type             X           Y           Z
 ---------------------------------------------------------------------
      1          6           0        3.215965   -0.657447    0.246302
      2          6           0        1.943069    0.128082    0.379647
      3          6           0        0.706598   -0.330454    0.144267
      4          6           0        0.374182   -1.743302   -0.307816
      5          6           0       -1.112317   -1.801582   -0.682771
      6         16           0       -1.941524   -0.608218    0.438878
      7          6           0       -0.530749    0.548579    0.291375
      8          6           0       -0.528458    1.563330    1.423811
      9          8           0       -0.802384    1.200228   -0.983989
     10          8           0        0.276163    2.137836   -1.267612
     11          1           0        3.048344   -1.667067   -0.137796
     12          1           0        3.717222   -0.746747    1.219499
     13          1           0        3.924507   -0.152289   -0.422935
     14          1           0        2.058406    1.150670    0.733568
     15          1           0        0.998410   -2.064680   -1.149771
     16          1           0        0.565964   -2.439732    0.518122
     17          1           0       -1.546855   -2.792140   -0.532888
     18          1           0       -1.280301   -1.491579   -1.716844
     19          1           0        0.226115    2.329393    1.232272
     20          1           0       -1.502035    2.058484    1.477163
     21          1           0       -0.317231    1.074923    2.378072
     22          1           0        0.971880    1.524491   -1.576602
 ---------------------------------------------------------------------

 SCF Done:  E(UB3LYP) =  -822.675416722     A.U. after   33 cycles
 SCF Done:  E(UB3LYP) =  -822.675416722     a.u. after    1 cycles

 The electronic state is 2-A.
 Alpha  occ. eigenvalues --  -88.74510 -19.07711 -19.06789 -10.16205 -10.09946
 Alpha  occ. eigenvalues --  -10.07883 -10.07438 -10.07128 -10.07107 -10.05438
 Alpha  occ. eigenvalues --   -7.83190  -5.79553  -5.79228  -5.78572  -1.01416
 Alpha  occ. eigenvalues --   -0.81960  -0.73799  -0.68064  -0.65688  -0.60532
 Alpha  occ. eigenvalues --   -0.57838  -0.52074  -0.48039  -0.43613  -0.40528
 Alpha  occ. eigenvalues --   -0.38509  -0.36793  -0.35951  -0.34571  -0.32047
 Alpha  occ. eigenvalues --   -0.30415  -0.30052  -0.29308  -0.28505  -0.27663
 Alpha  occ. eigenvalues --   -0.27217  -0.24869  -0.23878  -0.21842  -0.19767
 Alpha  occ. eigenvalues --   -0.17624  -0.15185  -0.13523   0.04761
 Alpha virt. eigenvalues --    0.06962   0.07975   0.08446   0.09240   0.09835
 Alpha virt. eigenvalues --    0.10033   0.10697   0.11171   0.11559   0.12072
 Alpha virt. eigenvalues --    0.12719   0.13109   0.13673   0.14583   0.15636

  Beta  occ. eigenvalues --  -88.74506 -19.07689 -19.06759 -10.16205 -10.09924
  Beta  occ. eigenvalues --  -10.07884 -10.07391 -10.07118 -10.07099 -10.05367
  Beta  occ. eigenvalues --   -7.83187  -5.79549  -5.79224  -5.78563  -1.01355
  Beta  occ. eigenvalues --   -0.81903  -0.73761  -0.68027  -0.65661  -0.60460
  Beta  occ. eigenvalues --   -0.57793  -0.51987  -0.47991  -0.43550  -0.40487
  Beta  occ. eigenvalues --   -0.38472  -0.36764  -0.35925  -0.34512  -0.31995
  Beta  occ. eigenvalues --   -0.30347  -0.30002  -0.29277  -0.28435  -0.27624
  Beta  occ. eigenvalues --   -0.27171  -0.24830  -0.23838  -0.21814  -0.19729
  Beta  occ. eigenvalues --   -0.17593  -0.15153  -0.13486
  Beta virt. eigenvalues --    0.07470   0.07564   0.08441   0.09019   0.09774
  Beta virt. eigenvalues --    0.10355   0.10574   0.11191   0.11594   0.12028
  Beta virt. eigenvalues --    0.12382   0.13045   0.13538   0.14236   0.14701

 Mulliken charges and spin densities:
               1          2
     1  C    2.474432  -3.225990
     2  C   -0.606833   0.468150
     3  C   -0.982662   1.284870
     4  C    0.957123  -1.564193
     5  C   -0.014449  -0.615279
     6  S   -0.035715  -0.200893
     7  C   -0.480719   0.925942
     8  C    0.384221  -0.822868
     9  O    0.080943   0.030264
    10  O   -0.210034  -0.028079
    11  H   -0.813535   0.981661
    12  H   -0.389144   0.541101
    13  H   -0.763072   0.926740
    14  H   -0.200151   0.374642
    15  H   -0.496531   0.666529
    16  H   -0.004916   0.179595
    17  H   -0.409760   0.604134
    18  H    0.175483   0.050133
    19  H    0.105493   0.063548
    20  H    0.131355   0.031963
    21  H   -0.002537   0.152777
    22  H    0.101007   0.175252
 Sum of Mulliken charges =  -1.00000   1.00000

 Dipole moment (field-independent basis, Debye):
    X=             -7.1466    Y=              2.7173    Z=              2.1518  Tot=              7.9428
 Quadrupole moment (field-independent basis, Debye-Ang):
   XX=           -130.0171   YY=           -110.9970   ZZ=            -99.5946
   XY=              6.6444   XZ=              1.4121   YZ=              2.3059

 Summary of Natural Population Analysis:

                                       Natural Population
                Natural  -----------------------------------------------
    Atom  No    Charge         Core      Valence    Rydberg      Total
 -----------------------------------------------------------------------
      C    1   -0.30205      0.99965     2.29592    0.00648     3.30205
      C    2   -0.07894      0.99945     2.06898    0.01051     3.07894
      C    3   -0.04094      0.99941     2.02609    0.01544     3.04094
      C    4   -0.21051      0.99958     2.19940    0.01153     3.21051
      C    5   -0.24231      0.99961     2.23167    0.01103     3.24231
      S    6    0.10800      4.99953     2.87717    0.01530     7.89200
      C    7    0.06589      0.99949     1.91161    0.02301     2.93411
      C    8   -0.30253      0.99959     2.29509    0.00785     3.30253
      O    9   -0.17605      0.99987     3.16499    0.01119     4.17605
      O   10   -0.22990      0.99991     3.22359    0.00639     4.22990
      H   11    0.10473      0.00000     0.39240    0.00287     0.39527
      H   12    0.10720      0.00000     0.39068    0.00212     0.39280
      H   13    0.10996      0.00000     0.38621    0.00383     0.39004
      H   14    0.09746      0.00000     0.40080    0.00174     0.40254
      H   15    0.11428      0.00000     0.38295    0.00277     0.38572
      H   16    0.10872      0.00000     0.38949    0.00179     0.39128
      H   17    0.10738      0.00000     0.39138    0.00123     0.39262
      H   18    0.10329      0.00000     0.39509    0.00163     0.39671
      H   19    0.11247      0.00000     0.38634    0.00118     0.38753
      H   20    0.10369      0.00000     0.39542    0.00089     0.39631
      H   21    0.10767      0.00000     0.39143    0.00090     0.39233
      H   22    0.23247      0.00000     0.26373    0.00380     0.26753
 =======================================================================
   * Total *   -0.00000     13.99608    28.86044    0.14348    43.00000

 Normal termination of Gaussian 16 at Tue Dec  8 10:56:19 2020.
