 Gaussian 16, Revision A.03,

 -----------------------------------------------------------
 # opt freq B3LYP/6-31G(d) empiricaldispersion=gd3bj scf=xqc
 -----------------------------------------------------------

 --------------------------------
 CID_133459163_JID_10210_neutraal
 --------------------------------
 Symbolic Z-matrix:
 Charge =  0 Multiplicity = 1

 SCF Done:  E(RB3LYP) =  -985.532425283     A.U. after   16 cycles
 SCF Done:  E(RB3LYP) =  -985.540197979     A.U. after   15 cycles
 SCF Done:  E(RB3LYP) =  -985.536524258     A.U. after   17 cycles
 SCF Done:  E(RB3LYP) =  -985.546439411     A.U. after   15 cycles
 SCF Done:  E(RB3LYP) =  -985.549219330     A.U. after   17 cycles
 SCF Done:  E(RB3LYP) =  -985.550526646     A.U. after   16 cycles
 SCF Done:  E(RB3LYP) =  -985.550834652     A.U. after   15 cycles
 SCF Done:  E(RB3LYP) =  -985.550594489     A.U. after   17 cycles
 SCF Done:  E(RB3LYP) =  -985.552076674     A.U. after   15 cycles
 SCF Done:  E(RB3LYP) =  -985.552251248     A.U. after   14 cycles
 SCF Done:  E(RB3LYP) =  -985.552364096     A.U. after   12 cycles
 SCF Done:  E(RB3LYP) =  -985.552369792     A.U. after   10 cycles
 SCF Done:  E(RB3LYP) =  -985.552372606     A.U. after   10 cycles
 SCF Done:  E(RB3LYP) =  -985.552372939     A.U. after    8 cycles
 SCF Done:  E(RB3LYP) =  -985.552372998     A.U. after    8 cycles
 SCF Done:  E(RB3LYP) =  -985.552373027     A.U. after    8 cycles
 Optimization completed.
    -- Stationary point found.
 Normal termination of Gaussian 16 at Sun Dec 13 16:50:40 2020.

 --------------------------------------------------------------------
 #N Geom=AllCheck Guess=TCheck SCRF=Check GenChk RB3LYP/6-31G(d) Freq
 --------------------------------------------------------------------

 Structure from the checkpoint file:  "JID_10210.chk"
 --------------------------------
 CID_133459163_JID_10210_neutraal
 --------------------------------
 Charge =  0 Multiplicity = 1

 SCF Done:  E(RB3LYP) =  -985.552373027     A.U. after    1 cycles

  Exact polarizability: 231.584 -11.681 174.349  15.518   4.953 101.729
 Approx polarizability: 346.846 -35.584 310.158  26.991  20.582 154.666

                      1                      2                      3
                      A                      A                      A
 Frequencies --     17.4540                28.6965                42.4895
 Red. masses --      5.7185                 5.8850                 6.2994
 Frc consts  --      0.0010                 0.0029                 0.0067
 IR Inten    --      0.0690                 0.3870                 0.6926

                      4                      5                      6
                      A                      A                      A
 Frequencies --     54.9990                71.6531               107.2037
 Red. masses --      5.2940                 7.6113                 3.9394
 Frc consts  --      0.0094                 0.0230                 0.0267
 IR Inten    --      0.5114                 0.3640                 2.2475

                      7                      8                      9
                      A                      A                      A
 Frequencies --    131.5477               161.1551               166.6173
 Red. masses --      4.7866                 6.4869                 7.2186
 Frc consts  --      0.0488                 0.0993                 0.1181
 IR Inten    --      5.8782                 9.7004                 6.5286

                     10                     11                     12
                      A                      A                      A
 Frequencies --    191.5135               199.2394               226.8856
 Red. masses --      8.8358                 2.1174                 1.8180
 Frc consts  --      0.1909                 0.0495                 0.0551
 IR Inten    --      2.4050                 1.6863                 2.6579

                     13                     14                     15
                      A                      A                      A
 Frequencies --    232.2426               251.7186               267.9712
 Red. masses --      1.5597                 2.6906                 4.0029
 Frc consts  --      0.0496                 0.1004                 0.1694
 IR Inten    --      0.5240                 6.0199                 4.9568

                     16                     17                     18
                      A                      A                      A
 Frequencies --    294.0794               338.6814               381.9279
 Red. masses --      7.8893                 3.0192                 9.5251
 Frc consts  --      0.4020                 0.2040                 0.8186
 IR Inten    --     10.8276                 2.9161                 4.5272

                     19                     20                     21
                      A                      A                      A
 Frequencies --    398.2220               403.7959               409.3979
 Red. masses --      4.9378                 2.5693                 7.6289
 Frc consts  --      0.4614                 0.2468                 0.7534
 IR Inten    --      9.1880                 5.1278                 1.7366

                     22                     23                     24
                      A                      A                      A
 Frequencies --    440.8314               443.3383               503.6394
 Red. masses --      4.2123                 7.3000                 3.8873
 Frc consts  --      0.4823                 0.8454                 0.5809
 IR Inten    --      2.8689                11.1015                 7.6693

                     25                     26                     27
                      A                      A                      A
 Frequencies --    526.0159               579.9815               617.1699
 Red. masses --      9.8245                 3.3627                 5.2441
 Frc consts  --      1.6016                 0.6665                 1.1769
 IR Inten    --      2.1742                 8.4527                 1.3695

                     28                     29                     30
                      A                      A                      A
 Frequencies --    624.5011               665.7933               666.6036
 Red. masses --      4.6838                 6.1496                 2.3888
 Frc consts  --      1.0763                 1.6061                 0.6254
 IR Inten    --      0.6339                 7.9791                 4.5511

                     31                     32                     33
                      A                      A                      A
 Frequencies --    714.5522               731.8675               758.9515
 Red. masses --      4.0344                 9.0966                 1.5717
 Frc consts  --      1.2137                 2.8707                 0.5334
 IR Inten    --      7.8394                 0.2422                80.6358

                     34                     35                     36
                      A                      A                      A
 Frequencies --    774.7349               790.3385               806.7588
 Red. masses --      4.0762                 5.7700                 4.1569
 Frc consts  --      1.4415                 2.1235                 1.5941
 IR Inten    --      3.5867                 6.3793                 8.7671

                     37                     38                     39
                      A                      A                      A
 Frequencies --    836.4415               838.4837               872.2125
 Red. masses --      2.2475                 1.5200                 9.8459
 Frc consts  --      0.9264                 0.6296                 4.4132
 IR Inten    --     15.2891                20.8339                25.1285

                     40                     41                     42
                      A                      A                      A
 Frequencies --    899.0016               915.8071               928.0157
 Red. masses --      1.8457                 2.1455                 1.9243
 Frc consts  --      0.8789                 1.0602                 0.9764
 IR Inten    --      8.4013                28.4563                 3.8194

                     43                     44                     45
                      A                      A                      A
 Frequencies --    961.3663               988.3624               992.1092
 Red. masses --      2.4243                 1.4131                 1.6760
 Frc consts  --      1.3201                 0.8133                 0.9720
 IR Inten    --     12.4381                 0.1968                 1.2463

                     46                     47                     48
                      A                      A                      A
 Frequencies --   1020.3481              1057.2576              1074.9038
 Red. masses --      2.4850                 2.9477                 4.5125
 Frc consts  --      1.5243                 1.9413                 3.0719
 IR Inten    --      1.2434                16.7227                19.6627

                     49                     50                     51
                      A                      A                      A
 Frequencies --   1082.0831              1092.9423              1120.0609
 Red. masses --      3.2560                 3.9886                 2.8779
 Frc consts  --      2.2462                 2.8071                 2.1272
 IR Inten    --     75.4362                68.5634                37.4108

                     52                     53                     54
                      A                      A                      A
 Frequencies --   1165.7203              1172.0952              1176.8041
 Red. masses --      1.8911                 2.4424                 2.1547
 Frc consts  --      1.5141                 1.9769                 1.7581
 IR Inten    --      6.8717                12.5198                13.5934

                     55                     56                     57
                      A                      A                      A
 Frequencies --   1185.9129              1239.9848              1250.0681
 Red. masses --      3.3656                 1.2116                 1.4890
 Frc consts  --      2.7888                 1.0976                 1.3709
 IR Inten    --    125.6859                 0.8554                32.1367

                     58                     59                     60
                      A                      A                      A
 Frequencies --   1255.6086              1273.8364              1285.4441
 Red. masses --      1.8042                 1.2957                 2.2217
 Frc consts  --      1.6759                 1.2387                 2.1629
 IR Inten    --     13.3649                 4.2854                56.0112

                     61                     62                     63
                      A                      A                      A
 Frequencies --   1309.0417              1310.3744              1333.9646
 Red. masses --      4.2431                 1.6384                 2.0105
 Frc consts  --      4.2839                 1.6575                 2.1079
 IR Inten    --    371.9949                28.7040                26.2518

                     64                     65                     66
                      A                      A                      A
 Frequencies --   1389.5264              1396.7893              1400.0739
 Red. masses --      1.3942                 1.7570                 1.7339
 Frc consts  --      1.5860                 2.0197                 2.0025
 IR Inten    --     25.6664                33.0202                49.6894

                     67                     68                     69
                      A                      A                      A
 Frequencies --   1401.1742              1418.7770              1431.8357
 Red. masses --      1.8389                 1.7114                 1.8773
 Frc consts  --      2.1272                 2.0297                 2.2676
 IR Inten    --     21.9658                16.1258                26.9714

                     70                     71                     72
                      A                      A                      A
 Frequencies --   1436.2090              1495.6815              1502.9044
 Red. masses --      1.3093                 1.1087                 2.7710
 Frc consts  --      1.5912                 1.4613                 3.6877
 IR Inten    --     26.9414                11.4950                70.9245

                     73                     74                     75
                      A                      A                      A
 Frequencies --   1515.8432              1519.2430              1535.3626
 Red. masses --      1.0597                 1.0640                 1.0885
 Frc consts  --      1.4347                 1.4469                 1.5119
 IR Inten    --      5.3344                 1.6620                81.0481

                     76                     77                     78
                      A                      A                      A
 Frequencies --   1545.5287              1557.0928              1573.8931
 Red. masses --      1.0904                 1.0999                 5.4843
 Frc consts  --      1.5346                 1.5712                 8.0042
 IR Inten    --      0.5694                 0.9595               140.3679

                     79                     80                     81
                      A                      A                      A
 Frequencies --   1602.7974              1613.6684              1663.1154
 Red. masses --      6.0080                 4.2230                 8.5921
 Frc consts  --      9.0937                 6.4789                14.0022
 IR Inten    --     92.9103                 9.9272               888.3042

                     82                     83                     84
                      A                      A                      A
 Frequencies --   2349.6732              3032.8429              3060.3383
 Red. masses --     12.6810                 1.0710                 1.0639
 Frc consts  --     41.2495                 5.8039                 5.8709
 IR Inten    --      0.4356                52.3505                50.9316

                     85                     86                     87
                      A                      A                      A
 Frequencies --   3065.2413              3070.7352              3072.7464
 Red. masses --      1.0449                 1.0565                 1.0592
 Frc consts  --      5.7843                 5.8698                 5.8925
 IR Inten    --      3.2709                23.6266                15.5933

                     88                     89                     90
                      A                      A                      A
 Frequencies --   3113.0141              3120.8844              3123.2126
 Red. masses --      1.1013                 1.1015                 1.1003
 Frc consts  --      6.2879                 6.3213                 6.3234
 IR Inten    --     14.1800                21.2102                24.9585

                     91                     92                     93
                      A                      A                      A
 Frequencies --   3137.7398              3144.1575              3144.6185
 Red. masses --      1.0991                 1.1035                 1.1031
 Frc consts  --      6.3756                 6.4275                 6.4269
 IR Inten    --     31.2382                21.4438                19.5676

                     94                     95                     96
                      A                      A                      A
 Frequencies --   3178.7189              3248.7450              3535.9723
 Red. masses --      1.0907                 1.0940                 1.0781
 Frc consts  --      6.4933                 6.8028                 7.9418
 IR Inten    --     25.3134                 0.4149               190.1722

 - Thermochemistry -
 -------------------
 Temperature   298.150 Kelvin.  Pressure   1.00000 Atm.
 Atom     1 has atomic number  6 and mass  12.00000

 Molecular mass:   278.10151 amu.
 Principal axes and moments of inertia in atomic units:
                           1         2         3
     Eigenvalues --  2455.737439189.13864**********
           X            0.99992   0.01208   0.00360
           Y           -0.01200   0.99969  -0.02162
           Z           -0.00386   0.02158   0.99976
 This molecule is an asymmetric top.
 Rotational symmetry number  1.
 Warning -- assumption of classical behavior for rotation
           may cause significant error
 Rotational temperatures (Kelvin)      0.03527     0.00943     0.00819
 Rotational constants (GHZ):           0.73491     0.19640     0.17055
 Zero-point vibrational energy     700168.2 (Joules/Mol)
                                  167.34421 (Kcal/Mol)
 Warning -- explicit consideration of  27 degrees of freedom as
           vibrations may cause significant error
 Vibrational temperatures:     25.11    41.29    61.13    79.13   103.09
          (Kelvin)            154.24   189.27   231.87   239.73   275.55
                              286.66   326.44   334.15   362.17   385.55
                              423.11   487.29   549.51   572.95   580.97
                              589.03   634.26   637.86   724.62   756.82
                              834.46   887.97   898.52   957.93   959.09
                             1028.08  1052.99  1091.96  1114.67  1137.12
                             1160.75  1203.45  1206.39  1254.92  1293.46
                             1317.64  1335.21  1383.19  1422.03  1427.42
                             1468.05  1521.16  1546.55  1556.88  1572.50
                             1611.52  1677.21  1686.38  1693.16  1706.26
                             1784.06  1798.57  1806.54  1832.77  1849.47
                             1883.42  1885.34  1919.28  1999.22  2009.67
                             2014.39  2015.98  2041.30  2060.09  2066.38
                             2151.95  2162.34  2180.96  2185.85  2209.04
                             2223.67  2240.31  2264.48  2306.07  2321.71
                             2392.85  3380.66  4363.58  4403.14  4410.20
                             4418.10  4421.00  4478.93  4490.26  4493.61
                             4514.51  4523.74  4524.40  4573.47  4674.22
                             5087.48

 Zero-point correction=                           0.266680 (Hartree/Particle)
 Thermal correction to Energy=                    0.284693
 Thermal correction to Enthalpy=                  0.285637
 Thermal correction to Gibbs Free Energy=         0.218563
 Sum of electronic and zero-point Energies=           -985.285693
 Sum of electronic and thermal Energies=              -985.267680
 Sum of electronic and thermal Enthalpies=            -985.266736
 Sum of electronic and thermal Free Energies=         -985.333810

                     E (Thermal)             CV                S
                      KCal/Mol        Cal/Mol-Kelvin    Cal/Mol-Kelvin
 Total                  178.648             67.507            141.169
 Electronic               0.000              0.000              0.000
 Translational            0.889              2.981             42.767
 Rotational               0.889              2.981             33.834
 Vibrational            176.870             61.545             64.568
 Vibration     1          0.593              1.986              6.905
 Vibration     2          0.593              1.984              5.918
 Vibration     3          0.595              1.980              5.139
 Vibration     4          0.596              1.976              4.629
 Vibration     5          0.598              1.968              4.107
 Vibration     6          0.606              1.943              3.319
 Vibration     7          0.612              1.922              2.923
 Vibration     8          0.622              1.890              2.536
 Vibration     9          0.624              1.884              2.473
 Vibration    10          0.634              1.852              2.213
 Vibration    11          0.637              1.841              2.140
 Vibration    12          0.651              1.800              1.903
 Vibration    13          0.653              1.792              1.862
 Vibration    14          0.664              1.760              1.719
 Vibration    15          0.673              1.732              1.609
 Vibration    16          0.689              1.685              1.450
 Vibration    17          0.719              1.598              1.218
 Vibration    18          0.751              1.509              1.032
 Vibration    19          0.764              1.474              0.969
 Vibration    20          0.769              1.462              0.949
 Vibration    21          0.774              1.450              0.929
 Vibration    22          0.801              1.381              0.824
 Vibration    23          0.803              1.376              0.816
 Vibration    24          0.859              1.242              0.649
 Vibration    25          0.881              1.192              0.596
 Vibration    26          0.937              1.075              0.485
 Vibration    27          0.977              0.996              0.421

                           ! Non-Optimized Parameters !
 Normal termination of Gaussian 16 at Sun Dec 13 17:09:41 2020.

 ----------------------------------------------------------------------
 # B3LYP/6-311++G(d,p) empiricaldispersion=gd3bj scf=xqc pop=npa geom=c
 heck
 ----------------------------------------------------------------------

 ----------------------------------------
 CID_133459163_JID_10210_Energie_neutraal
 ----------------------------------------
 Structure from the checkpoint file:  "JID_10210.chk"
 Charge =  0 Multiplicity = 1

 SCF Done:  E(RB3LYP) =  -985.826695906     A.U. after   17 cycles
 Normal termination of Gaussian 16 at Sun Dec 13 17:18:13 2020.

 ----------------------------------------------------------------------
 # B3LYP/6-311++G(d,p) empiricaldispersion=gd3bj scf=xqc pop=npa geom=c
 heck
 ----------------------------------------------------------------------

 --------------------------------------
 CID_133459163_JID_10210_Energie_kation
 --------------------------------------
 Structure from the checkpoint file:  "JID_10210.chk"
 Charge =  1 Multiplicity = 2

 SCF Done:  E(UB3LYP) =  -985.514959693     A.U. after   31 cycles
 Normal termination of Gaussian 16 at Sun Dec 13 17:40:21 2020.
 Gaussian 16:  ES64L-G16RevA.03 25-Dec-2016

 ----------------------------------------------------------------------
 # B3LYP/6-311++G(d,p) empiricaldispersion=gd3bj scf=xqc pop=npa geom=c
 heck
 ----------------------------------------------------------------------

 -------------------------------------
 CID_133459163_JID_10210_Energie_anion
 -------------------------------------
 Structure from the checkpoint file:  "JID_10210.chk"
 Charge = -1 Multiplicity = 2

                         Standard orientation:
 ---------------------------------------------------------------------
 Center     Atomic      Atomic             Coordinates (Angstroms)
 Number     Number       Type             X           Y           Z
 ---------------------------------------------------------------------
      1          6           0       -4.677013   -0.246573   -0.985403
      2          6           0       -3.352354    0.112356   -0.316875
      3          8           0       -2.515438   -1.062540   -0.302815
      4          6           0       -2.343649   -1.492097    1.051111
      5          6           0       -3.422407   -0.717532    1.808070
      6          8           0       -3.542489    0.478012    1.043237
      7          6           0       -2.634582    1.257937   -1.036201
      8          6           0       -1.334974    1.719327   -0.381591
      9          7           0       -0.314636    0.676993   -0.453984
     10          6           0        0.974029    0.901687   -0.162945
     11          7           0        1.296865    2.186518    0.141970
     12          6           0        2.552696    2.494642    0.414276
     13          6           0        3.609554    1.579793    0.420961
     14          6           0        3.319042    0.247977    0.127612
     15          6           0        1.989010   -0.117505   -0.165332
     16          7           0        1.685391   -1.498470   -0.447436
     17          8           0        0.497691   -1.819996   -0.630665
     18          8           0        2.612403   -2.307175   -0.488289
     19          6           0        4.428858   -0.661759    0.162671
     20          7           0        5.440162   -1.229548    0.245623
     21          1           0       -4.501629   -0.592410   -2.008337
     22          1           0       -5.172150   -1.051157   -0.434345
     23          1           0       -5.340248    0.623385   -1.010771
     24          1           0       -1.336075   -1.230214    1.395272
     25          1           0       -2.464480   -2.577550    1.097842
     26          1           0       -3.139670   -0.442698    2.826555
     27          1           0       -4.374123   -1.266367    1.834282
     28          1           0       -2.449622    0.948994   -2.071396
     29          1           0       -3.317690    2.113446   -1.071116
     30          1           0       -0.960638    2.614758   -0.883885
     31          1           0       -1.520296    1.990374    0.663773
     32          1           0       -0.610708   -0.277781   -0.632578
     33          1           0        2.743644    3.540495    0.648858
     34          1           0        4.622612    1.882349    0.652769
 ---------------------------------------------------------------------

 SCF Done:  E(UB3LYP) =  -985.888581458     A.U. after   22 cycles

 The electronic state is 2-A.
 Alpha  occ. eigenvalues --  -19.05992 -19.04623 -18.96919 -18.96908 -14.35484
 Alpha  occ. eigenvalues --  -14.20441 -14.16994 -14.15815 -10.20047 -10.15105
 Alpha  occ. eigenvalues --  -10.13706 -10.13060 -10.10036 -10.09294 -10.09006
 Alpha  occ. eigenvalues --  -10.08638 -10.07558 -10.07281 -10.06651 -10.04887
 Alpha  occ. eigenvalues --   -1.04974  -1.01583  -0.91930  -0.87755  -0.85237
 Alpha  occ. eigenvalues --   -0.78711  -0.76095  -0.73047  -0.70188  -0.66726
 Alpha  occ. eigenvalues --   -0.64272  -0.63418  -0.57065  -0.55878  -0.55634
 Alpha  occ. eigenvalues --   -0.51356  -0.49887  -0.48209  -0.44258  -0.42732
 Alpha  occ. eigenvalues --   -0.42116  -0.40714  -0.39434  -0.38931  -0.37357
 Alpha  occ. eigenvalues --   -0.36768  -0.35881  -0.35751  -0.34825  -0.33537
 Alpha  occ. eigenvalues --   -0.33380  -0.32468  -0.32141  -0.31134  -0.29892
 Alpha  occ. eigenvalues --   -0.28816  -0.27874  -0.27397  -0.27097  -0.26685
 Alpha  occ. eigenvalues --   -0.25918  -0.23314  -0.22453  -0.20182  -0.19345
 Alpha  occ. eigenvalues --   -0.18823  -0.18009  -0.15692  -0.15465  -0.15281
 Alpha  occ. eigenvalues --   -0.13650  -0.11975  -0.09636   0.00086
 Alpha virt. eigenvalues --    0.05612   0.06987   0.07965   0.09063   0.09092
 Alpha virt. eigenvalues --    0.09407   0.09817   0.10374   0.10852   0.11542
 Alpha virt. eigenvalues --    0.12173   0.12654   0.12783   0.13504   0.13743

  Beta  occ. eigenvalues --  -19.05992 -19.04623 -18.96544 -18.96478 -14.35011
  Beta  occ. eigenvalues --  -14.20441 -14.16847 -14.15538 -10.20047 -10.15104
  Beta  occ. eigenvalues --  -10.13706 -10.13057 -10.10036 -10.09294 -10.09006
  Beta  occ. eigenvalues --  -10.08609 -10.07183 -10.07030 -10.06732 -10.04975
  Beta  occ. eigenvalues --   -1.04143  -1.01583  -0.91929  -0.87044  -0.85045
  Beta  occ. eigenvalues --   -0.78491  -0.75689  -0.73036  -0.69637  -0.66599
  Beta  occ. eigenvalues --   -0.64263  -0.63091  -0.56403  -0.55794  -0.55506
  Beta  occ. eigenvalues --   -0.51169  -0.49820  -0.47934  -0.44169  -0.42566
  Beta  occ. eigenvalues --   -0.42084  -0.40656  -0.39255  -0.38564  -0.36681
  Beta  occ. eigenvalues --   -0.35854  -0.35729  -0.35201  -0.34448  -0.33378
  Beta  occ. eigenvalues --   -0.33212  -0.32360  -0.32117  -0.30944  -0.29568
  Beta  occ. eigenvalues --   -0.28701  -0.27780  -0.27248  -0.26824  -0.26423
  Beta  occ. eigenvalues --   -0.25896  -0.22335  -0.22032  -0.20173  -0.19177
  Beta  occ. eigenvalues --   -0.18241  -0.17890  -0.14997  -0.14035  -0.13350
  Beta  occ. eigenvalues --   -0.12886  -0.11604  -0.08987
  Beta virt. eigenvalues --    0.05609   0.06561   0.06985   0.07968   0.09055
  Beta virt. eigenvalues --    0.09385   0.09782   0.10344   0.10561   0.10898
  Beta virt. eigenvalues --    0.11541   0.12167   0.12660   0.13393   0.13733

 Mulliken charges and spin densities:
               1          2
     1  C   -0.418343  -0.003010
     2  C   -0.658534   0.002201
     3  O   -0.010045   0.000214
     4  C   -0.023545   0.000630
     5  C   -0.202259   0.001235
     6  O    0.029174   0.000002
     7  C   -0.583665  -0.000051
     8  C    0.069466   0.000454
     9  N   -0.064329   0.004712
    10  C   -0.650051  -0.016454
    11  N   -0.162067   0.057166
    12  C   -0.101943   0.200588
    13  C   -0.285255  -0.050380
    14  C    2.037691   0.335061
    15  C   -0.852163  -0.032630
    16  N   -0.368830   0.160822
    17  O   -0.123327   0.156385
    18  O   -0.118349   0.141754
    19  C   -0.720349  -0.086955
    20  N   -0.334339   0.138054
    21  H    0.166951   0.000280
    22  H    0.121279  -0.000056
    23  H    0.149938  -0.000050
    24  H    0.165378   0.001364
    25  H    0.161671  -0.000521
    26  H    0.159653   0.000065
    27  H    0.129882   0.000202
    28  H    0.188186  -0.000912
    29  H    0.166703  -0.000011
    30  H    0.220305   0.000630
    31  H    0.200158   0.001113
    32  H    0.422907  -0.001821
    33  H    0.140087  -0.015649
    34  H    0.147964   0.005567
 Sum of Mulliken charges =  -1.00000   1.00000

 Dipole moment (field-independent basis, Debye):
    X=            -14.3165    Y=              4.4272    Z=              1.4272  Tot=             15.0532
 Quadrupole moment (field-independent basis, Debye-Ang):
   XX=           -186.4569   YY=           -146.4378   ZZ=           -120.1342
   XY=             23.0516   XZ=             -0.4528   YZ=             -8.3830

 Summary of Natural Population Analysis:

                                       Natural Population
                Natural  -----------------------------------------------
    Atom  No    Charge         Core      Valence    Rydberg      Total
 -----------------------------------------------------------------------
      C    1   -0.30270      0.99959     2.29709    0.00602     3.30270
      C    2    0.30022      0.99958     1.68200    0.01821     2.69978
      O    3   -0.30975      0.99987     3.29975    0.01013     4.30975
      C    4   -0.02505      0.99960     2.01539    0.01006     3.02505
      C    5   -0.02702      0.99960     2.01744    0.00997     3.02702
      O    6   -0.30775      0.99987     3.29792    0.00996     4.30775
      C    7   -0.20872      0.99955     2.20062    0.00855     3.20872
      C    8   -0.08690      0.99962     2.07705    0.01022     3.08690
      N    9   -0.32182      0.99963     2.80975    0.01244     3.82182
      C   10    0.21278      0.99954     1.77423    0.01345     2.78722
      N   11   -0.25557      0.99968     2.74565    0.01024     3.75557
      C   12    0.08713      0.99962     1.89906    0.01419     2.91287
      C   13   -0.14872      0.99954     2.14156    0.00761     3.14872
      C   14    0.00368      0.99939     1.98642    0.01051     2.99632
      C   15    0.01660      0.99939     1.97175    0.01226     2.98340
      N   16    0.29024      0.99970     2.18503    0.02503     3.20976
      O   17   -0.20871      0.99990     3.20042    0.00839     4.20871
      O   18   -0.17940      0.99990     3.17065    0.00885     4.17940
      C   19    0.14218      0.99962     1.83960    0.01861     2.85782
      N   20   -0.14675      0.99978     2.63594    0.01104     3.64675
      H   21    0.10558      0.00000     0.39356    0.00086     0.39442
      H   22    0.10017      0.00000     0.39875    0.00108     0.39983
      H   23    0.09956      0.00000     0.39954    0.00091     0.40044
      H   24    0.09598      0.00000     0.40236    0.00166     0.40402
      H   25    0.09100      0.00000     0.40778    0.00121     0.40900
      H   26    0.09402      0.00000     0.40497    0.00101     0.40598
      H   27    0.07549      0.00000     0.42307    0.00145     0.42451
      H   28    0.10542      0.00000     0.39343    0.00115     0.39458
      H   29    0.10247      0.00000     0.39664    0.00089     0.39753
      H   30    0.10428      0.00000     0.39438    0.00134     0.39572
      H   31    0.09610      0.00000     0.40238    0.00152     0.40390
      H   32    0.22426      0.00000     0.27332    0.00241     0.27574
      H   33    0.07844      0.00000     0.42034    0.00122     0.42156
      H   34    0.10326      0.00000     0.39579    0.00095     0.39674
 =======================================================================
   * Total *   -0.00000     19.99295    52.75366    0.25339    73.00000

 Normal termination of Gaussian 16 at Sun Dec 13 17:56:17 2020.
