 Gaussian 16, Revision A.03,

 -----------------------------------------------------------
 # opt freq B3LYP/6-31G(d) empiricaldispersion=gd3bj scf=xqc
 -----------------------------------------------------------

 ------------------------------
 CID_18736469_JID_1760_neutraal
 ------------------------------
 Symbolic Z-matrix:
 Charge =  0 Multiplicity = 1

 SCF Done:  E(RB3LYP) =  -1215.77976732     A.U. after   16 cycles
 SCF Done:  E(RB3LYP) =  -1215.78437844     A.U. after   13 cycles
 SCF Done:  E(RB3LYP) =  -1215.78485515     A.U. after   12 cycles
 SCF Done:  E(RB3LYP) =  -1215.78511182     A.U. after   12 cycles
 SCF Done:  E(RB3LYP) =  -1215.78527104     A.U. after   12 cycles
 SCF Done:  E(RB3LYP) =  -1215.78538955     A.U. after   12 cycles
 SCF Done:  E(RB3LYP) =  -1215.78549320     A.U. after   11 cycles
 SCF Done:  E(RB3LYP) =  -1215.78559028     A.U. after   11 cycles
 SCF Done:  E(RB3LYP) =  -1215.78560482     A.U. after   10 cycles
 SCF Done:  E(RB3LYP) =  -1215.78561083     A.U. after   10 cycles
 SCF Done:  E(RB3LYP) =  -1215.78561279     A.U. after    8 cycles
 SCF Done:  E(RB3LYP) =  -1215.78561303     A.U. after    8 cycles
 Optimization completed.
    -- Stationary point found.
 Normal termination of Gaussian 16 at Tue Dec  8 21:00:22 2020.

 --------------------------------------------------------------------
 #N Geom=AllCheck Guess=TCheck SCRF=Check GenChk RB3LYP/6-31G(d) Freq
 --------------------------------------------------------------------

 Structure from the checkpoint file:  "JID_1760.chk"
 ------------------------------
 CID_18736469_JID_1760_neutraal
 ------------------------------
 Charge =  0 Multiplicity = 1

 SCF Done:  E(RB3LYP) =  -1215.78561303     A.U. after    1 cycles

  Exact polarizability: 148.809   3.299 109.534  -2.658   5.021  81.224
 Approx polarizability: 261.642   7.576 159.952  -3.595  16.177 124.900

                      1                      2                      3
                      A                      A                      A
 Frequencies --     67.7244                94.6102               110.8001
 Red. masses --      9.8417                 2.6894                 3.7122
 Frc consts  --      0.0266                 0.0142                 0.0269
 IR Inten    --      3.5253                 3.0219                 3.7765

                      4                      5                      6
                      A                      A                      A
 Frequencies --    128.8517               153.2377               180.9394
 Red. masses --      2.8935                 1.3408                 1.2283
 Frc consts  --      0.0283                 0.0186                 0.0237
 IR Inten    --      0.0365                 1.1190                 0.2555

                      7                      8                      9
                      A                      A                      A
 Frequencies --    219.3992               241.7136               259.7779
 Red. masses --      1.1168                 3.0079                 2.9756
 Frc consts  --      0.0317                 0.1035                 0.1183
 IR Inten    --      0.1662                 2.7571                 0.5987

                     10                     11                     12
                      A                      A                      A
 Frequencies --    292.6194               306.0233               357.7954
 Red. masses --      5.7309                 3.6182                 4.8209
 Frc consts  --      0.2891                 0.1996                 0.3636
 IR Inten    --      3.4079                 9.1268                 6.5007

                     13                     14                     15
                      A                      A                      A
 Frequencies --    393.5257               402.8674               449.9612
 Red. masses --      4.1009                 4.8577                 6.3787
 Frc consts  --      0.3742                 0.4645                 0.7609
 IR Inten    --      0.8590                 4.4232                 2.5952

                     16                     17                     18
                      A                      A                      A
 Frequencies --    468.0714               551.0247               559.4031
 Red. masses --      8.2613                 6.8422                 9.6615
 Frc consts  --      1.0664                 1.2240                 1.7813
 IR Inten    --     12.5998                 2.4392                12.7335

                     19                     20                     21
                      A                      A                      A
 Frequencies --    645.0984               681.7003               745.1958
 Red. masses --      5.1410                 4.0874                 5.3282
 Frc consts  --      1.2605                 1.1191                 1.7433
 IR Inten    --     10.8748                 5.3571                 3.2748

                     22                     23                     24
                      A                      A                      A
 Frequencies --    779.7271               933.3570               970.6001
 Red. masses --      3.6202                 3.0382                 2.7104
 Frc consts  --      1.2968                 1.5594                 1.5044
 IR Inten    --      0.8625                 1.3036                 0.1863

                     25                     26                     27
                      A                      A                      A
 Frequencies --   1023.4071              1071.6773              1095.5808
 Red. masses --      2.2397                 1.7474                 2.3166
 Frc consts  --      1.3821                 1.1824                 1.6383
 IR Inten    --     77.0658                69.6849                14.4560

                     28                     29                     30
                      A                      A                      A
 Frequencies --   1136.9961              1148.8760              1162.5152
 Red. masses --      1.8167                 1.3448                 1.6066
 Frc consts  --      1.3837                 1.0458                 1.2793
 IR Inten    --     66.2616                16.7600                14.6074

                     31                     32                     33
                      A                      A                      A
 Frequencies --   1173.2742              1189.6199              1259.4416
 Red. masses --      3.0528                 1.8937                 1.4319
 Frc consts  --      2.4760                 1.5790                 1.3382
 IR Inten    --     48.0402                 4.6869                18.3352

                     34                     35                     36
                      A                      A                      A
 Frequencies --   1273.8290              1334.4212              1381.5399
 Red. masses --      5.5209                 1.3458                 4.0896
 Frc consts  --      5.2782                 1.4119                 4.5989
 IR Inten    --    106.6595                 3.2864               156.0189

                     37                     38                     39
                      A                      A                      A
 Frequencies --   1415.8591              1437.1481              1457.6554
 Red. masses --      2.8006                 1.2359                 1.2742
 Frc consts  --      3.3078                 1.5039                 1.5952
 IR Inten    --     60.6027                 5.8676                18.8851

                     40                     41                     42
                      A                      A                      A
 Frequencies --   1479.0588              1506.2704              1520.1324
 Red. masses --      1.2475                 1.0805                 1.0428
 Frc consts  --      1.6079                 1.4444                 1.4198
 IR Inten    --     21.1060                 7.5653                 8.4060

                     43                     44                     45
                      A                      A                      A
 Frequencies --   1524.3011              1526.9108              1536.4722
 Red. masses --      1.0538                 1.0486                 1.0976
 Frc consts  --      1.4426                 1.4405                 1.5267
 IR Inten    --     26.7317                 7.4005                23.8087

                     46                     47                     48
                      A                      A                      A
 Frequencies --   1541.5296              1793.4517              3061.9994
 Red. masses --      1.0875                10.9090                 1.0371
 Frc consts  --      1.5226                20.6736                 5.7291
 IR Inten    --      6.9357               330.2151                18.7124

                     49                     50                     51
                      A                      A                      A
 Frequencies --   3065.8499              3070.1036              3128.1828
 Red. masses --      1.0372                 1.0367                 1.0881
 Frc consts  --      5.7441                 5.7570                 6.2735
 IR Inten    --     17.1782                33.5310                 0.1058

                     52                     53                     54
                      A                      A                      A
 Frequencies --   3130.8134              3137.7048              3144.1947
 Red. masses --      1.1038                 1.0993                 1.1005
 Frc consts  --      6.3745                 6.3768                 6.4101
 IR Inten    --     22.1860                 9.3575                10.3104

                     55                     56                     57
                      A                      A                      A
 Frequencies --   3159.3875              3181.2068              3196.0510
 Red. masses --      1.1021                 1.1053                 1.1000
 Frc consts  --      6.4816                 6.5906                 6.6204
 IR Inten    --     10.8949                 3.4054                 0.0578

 - Thermochemistry -
 -------------------
 Temperature   298.150 Kelvin.  Pressure   1.00000 Atm.
 Atom     1 has atomic number  6 and mass  12.00000

 Molecular mass:   190.02346 amu.
 Principal axes and moments of inertia in atomic units:
                           1         2         3
     Eigenvalues --  1512.793912372.544393083.59224
           X            0.99972   0.02334   0.00432
           Y           -0.02316   0.99900  -0.03829
           Z           -0.00521   0.03818   0.99926
 This molecule is an asymmetric top.
 Rotational symmetry number  1.
 Warning -- assumption of classical behavior for rotation
           may cause significant error
 Rotational temperatures (Kelvin)      0.05725     0.03651     0.02809
 Rotational constants (GHZ):           1.19299     0.76068     0.58527
 Zero-point vibrational energy     432207.7 (Joules/Mol)
                                  103.30012 (Kcal/Mol)
 Warning -- explicit consideration of  18 degrees of freedom as
           vibrations may cause significant error
 Vibrational temperatures:     97.44   136.12   159.42   185.39   220.47
          (Kelvin)            260.33   315.67   347.77   373.76   421.01
                              440.30   514.79   566.20   579.64   647.39
                              673.45   792.80   804.86   928.15   980.81
                             1072.17  1121.85  1342.89  1396.48  1472.45
                             1541.90  1576.30  1635.88  1652.98  1672.60
                             1688.08  1711.60  1812.06  1832.76  1919.93
                             1987.73  2037.11  2067.74  2097.24  2128.04
                             2167.19  2187.13  2193.13  2196.88  2210.64
                             2217.92  2580.38  4405.53  4411.07  4417.19
                             4500.76  4504.54  4514.46  4523.79  4545.65
                             4577.05  4598.40

 Zero-point correction=                           0.164619 (Hartree/Particle)
 Thermal correction to Energy=                    0.176630
 Thermal correction to Enthalpy=                  0.177574
 Thermal correction to Gibbs Free Energy=         0.126542
 Sum of electronic and zero-point Energies=          -1215.620994
 Sum of electronic and thermal Energies=             -1215.608983
 Sum of electronic and thermal Enthalpies=           -1215.608039
 Sum of electronic and thermal Free Energies=        -1215.659071

                     E (Thermal)             CV                S
                      KCal/Mol        Cal/Mol-Kelvin    Cal/Mol-Kelvin
 Total                  110.837             43.214            107.408
 Electronic               0.000              0.000              0.000
 Translational            0.889              2.981             41.632
 Rotational               0.889              2.981             30.782
 Vibrational            109.060             37.252             34.994
 Vibration     1          0.598              1.970              4.218
 Vibration     2          0.603              1.953              3.562
 Vibration     3          0.607              1.941              3.255
 Vibration     4          0.611              1.924              2.963
 Vibration     5          0.619              1.899              2.632
 Vibration     6          0.630              1.866              2.319
 Vibration     7          0.647              1.812              1.964
 Vibration     8          0.658              1.776              1.790
 Vibration     9          0.668              1.746              1.663
 Vibration    10          0.688              1.687              1.459
 Vibration    11          0.696              1.662              1.384
 Vibration    12          0.733              1.559              1.132
 Vibration    13          0.761              1.484              0.987
 Vibration    14          0.768              1.464              0.952
 Vibration    15          0.809              1.361              0.796
 Vibration    16          0.825              1.321              0.743
 Vibration    17          0.906              1.137              0.542
 Vibration    18          0.915              1.119              0.525

                           ! Non-Optimized Parameters !
 Normal termination of Gaussian 16 at Tue Dec  8 21:05:41 2020.

 ----------------------------------------------------------------------
 # B3LYP/6-311++G(d,p) empiricaldispersion=gd3bj scf=xqc pop=npa geom=c
 heck
 ----------------------------------------------------------------------

 --------------------------------------
 CID_18736469_JID_1760_Energie_neutraal
 --------------------------------------
 Structure from the checkpoint file:  "JID_1760.chk"
 Charge =  0 Multiplicity = 1

 SCF Done:  E(RB3LYP) =  -1215.95758335     A.U. after   15 cycles
 Normal termination of Gaussian 16 at Tue Dec  8 21:07:23 2020.

 ----------------------------------------------------------------------
 # B3LYP/6-311++G(d,p) empiricaldispersion=gd3bj scf=xqc pop=npa geom=c
 heck
 ----------------------------------------------------------------------

 ------------------------------------
 CID_18736469_JID_1760_Energie_kation
 ------------------------------------
 Structure from the checkpoint file:  "JID_1760.chk"
 Charge =  1 Multiplicity = 2

 SCF Done:  E(UB3LYP) =  -1215.66079155     A.U. after   25 cycles
 Normal termination of Gaussian 16 at Tue Dec  8 21:12:16 2020.
 Gaussian 16:  ES64L-G16RevA.03 25-Dec-2016

 ----------------------------------------------------------------------
 # B3LYP/6-311++G(d,p) empiricaldispersion=gd3bj scf=xqc pop=npa geom=c
 heck
 ----------------------------------------------------------------------

 -----------------------------------
 CID_18736469_JID_1760_Energie_anion
 -----------------------------------
 Structure from the checkpoint file:  "JID_1760.chk"
 Charge = -1 Multiplicity = 2

                         Standard orientation:
 ---------------------------------------------------------------------
 Center     Atomic      Atomic             Coordinates (Angstroms)
 Number     Number       Type             X           Y           Z
 ---------------------------------------------------------------------
      1          6           0       -0.956822   -1.658389    1.679899
      2          6           0       -1.208202   -1.390351    0.193958
      3          6           0       -1.812303   -0.031778   -0.115803
      4          8           0       -2.965030    0.115378   -0.485100
      5          7           0       -0.932262    1.030880   -0.019465
      6          7           0        0.411653    0.826805    0.336730
      7          6           0        1.193733   -0.140263   -0.229403
      8         16           0        2.852192   -0.095593   -0.254951
      9         16           0        0.311094   -1.542703   -0.851953
     10          6           0        0.980398    1.866080    1.192476
     11          6           0       -1.214605    2.274903   -0.733261
     12          1           0       -1.896373   -1.548755    2.233018
     13          1           0       -0.224398   -0.964993    2.099771
     14          1           0       -0.586266   -2.677112    1.820590
     15          1           0       -1.909736   -2.123301   -0.209334
     16          1           0        1.402545    2.689320    0.606714
     17          1           0        0.182042    2.233859    1.839918
     18          1           0        1.780463    1.426996    1.788754
     19          1           0       -2.257936    2.226556   -1.042126
     20          1           0       -1.068186    3.141860   -0.083646
     21          1           0       -0.563418    2.360284   -1.610450
 ---------------------------------------------------------------------

 SCF Done:  E(UB3LYP) =  -1215.95961510     A.U. after   32 cycles

 The electronic state is 2-A.
 Alpha  occ. eigenvalues --  -88.71737 -88.63087 -18.98218 -14.25799 -14.23579
 Alpha  occ. eigenvalues --  -10.16346 -10.09529 -10.08947 -10.08311 -10.07920
 Alpha  occ. eigenvalues --  -10.06335  -7.80322  -7.71825  -5.76721  -5.76303
 Alpha  occ. eigenvalues --   -5.75743  -5.68187  -5.67726  -5.67411  -0.94287
 Alpha  occ. eigenvalues --   -0.89245  -0.74853  -0.70627  -0.63498  -0.60937
 Alpha  occ. eigenvalues --   -0.57192  -0.55303  -0.51152  -0.48293  -0.40804
 Alpha  occ. eigenvalues --   -0.38581  -0.36251  -0.35567  -0.33215  -0.32429
 Alpha  occ. eigenvalues --   -0.32040  -0.31055  -0.29972  -0.28998  -0.28050
 Alpha  occ. eigenvalues --   -0.26104  -0.25685  -0.22689  -0.20844  -0.20157
 Alpha  occ. eigenvalues --   -0.15653  -0.14892  -0.11122  -0.08088  -0.05499
 Alpha  occ. eigenvalues --    0.05248
 Alpha virt. eigenvalues --    0.07436   0.08520   0.09650   0.10954   0.11119
 Alpha virt. eigenvalues --    0.11546   0.12206   0.12490   0.13577   0.14558
 Alpha virt. eigenvalues --    0.14834   0.15297   0.15751   0.16007   0.16744

  Beta  occ. eigenvalues --  -88.71726 -88.63011 -18.98215 -14.25776 -14.23384
  Beta  occ. eigenvalues --  -10.16339 -10.09484 -10.08895 -10.08319 -10.07044
  Beta  occ. eigenvalues --  -10.06329  -7.80309  -7.71758  -5.76728  -5.76307
  Beta  occ. eigenvalues --   -5.75687  -5.68175  -5.67459  -5.67370  -0.94212
  Beta  occ. eigenvalues --   -0.88950  -0.74428  -0.70454  -0.62897  -0.60795
  Beta  occ. eigenvalues --   -0.57060  -0.54990  -0.51049  -0.47960  -0.40678
  Beta  occ. eigenvalues --   -0.38221  -0.36105  -0.35239  -0.33139  -0.32249
  Beta  occ. eigenvalues --   -0.31918  -0.30958  -0.29862  -0.28851  -0.27862
  Beta  occ. eigenvalues --   -0.26053  -0.25440  -0.21363  -0.20223  -0.19581
  Beta  occ. eigenvalues --   -0.15223  -0.14312  -0.10551  -0.06745  -0.05208
  Beta virt. eigenvalues --    0.07679   0.08443   0.09643   0.10909   0.10986
  Beta virt. eigenvalues --    0.11520   0.12218   0.12433   0.13199   0.13619
  Beta virt. eigenvalues --    0.14588   0.14837   0.15318   0.15700   0.16114

 Mulliken charges and spin densities:
               1          2
     1  C   -0.629298  -0.035930
     2  C    0.520181  -0.097611
     3  C   -0.395756   0.065204
     4  O   -0.344928  -0.011430
     5  N   -0.052849   0.048814
     6  N    0.255817   0.098901
     7  C   -0.233166   0.335571
     8  S   -0.888548   0.278085
     9  S    0.045890   0.088399
    10  C   -0.307593  -0.102999
    11  C    0.176658  -0.452593
    12  H    0.120289   0.009138
    13  H    0.183176   0.004679
    14  H    0.081723   0.046336
    15  H    0.265906   0.018034
    16  H    0.148064   0.018480
    17  H    0.063267   0.072940
    18  H    0.123985  -0.002190
    19  H   -0.094731   0.265516
    20  H   -0.098691   0.242733
    21  H    0.060601   0.109924
 Sum of Mulliken charges =  -1.00000   1.00000

 Dipole moment (field-independent basis, Debye):
    X=             -3.8449    Y=              0.1694    Z=              3.2156  Tot=              5.0152
 Quadrupole moment (field-independent basis, Debye-Ang):
   XX=           -133.2796   YY=            -98.1141   ZZ=            -93.6888
   XY=              8.1852   XZ=             -0.7666   YZ=              0.3976

 Summary of Natural Population Analysis:

                                       Natural Population
                Natural  -----------------------------------------------
    Atom  No    Charge         Core      Valence    Rydberg      Total
 -----------------------------------------------------------------------
      C    1   -0.28699      0.99963     2.28139    0.00597     3.28699
      C    2   -0.20114      0.99954     2.18797    0.01363     3.20114
      C    3    0.34094      0.99958     1.63372    0.02576     2.65906
      O    4   -0.32706      0.99987     3.32134    0.00585     4.32706
      N    5   -0.15807      0.99962     2.64650    0.01196     3.65807
      N    6   -0.15189      0.99958     2.63795    0.01436     3.65189
      C    7    0.09131      0.99964     1.89002    0.01903     2.90869
      S    8   -0.09799      4.99951     3.08268    0.01580     8.09799
      S    9    0.13706      4.99948     2.84442    0.01904     7.86294
      C   10   -0.18179      0.99965     2.17283    0.00931     3.18179
      C   11   -0.18159      0.99964     2.17389    0.00806     3.18159
      H   12    0.09624      0.00000     0.40292    0.00084     0.40376
      H   13    0.10824      0.00000     0.39098    0.00078     0.39176
      H   14    0.10080      0.00000     0.39801    0.00119     0.39920
      H   15    0.11153      0.00000     0.38736    0.00110     0.38847
      H   16    0.09353      0.00000     0.40538    0.00110     0.40647
      H   17    0.09172      0.00000     0.40730    0.00098     0.40828
      H   18    0.11195      0.00000     0.38702    0.00103     0.38805
      H   19    0.11375      0.00000     0.38449    0.00177     0.38625
      H   20    0.09221      0.00000     0.40687    0.00093     0.40779
      H   21    0.09723      0.00000     0.40175    0.00102     0.40277
 =======================================================================
   * Total *   -0.00000     18.99575    30.84476    0.15949    50.00000

 Normal termination of Gaussian 16 at Tue Dec  8 21:18:08 2020.
