 Gaussian 16, Revision A.03,

 -----------------------------------------------------------
 # opt freq B3LYP/6-31G(d) empiricaldispersion=gd3bj scf=xqc
 -----------------------------------------------------------

 -----------------------------
 CID_8975230_JID_9123_neutraal
 -----------------------------
 Symbolic Z-matrix:
 Charge =  0 Multiplicity = 1

 SCF Done:  E(RB3LYP) =  -1294.25162974     A.U. after   15 cycles
 SCF Done:  E(RB3LYP) =  -1294.26015800     A.U. after   14 cycles
 SCF Done:  E(RB3LYP) =  -1294.25997913     A.U. after   13 cycles
 SCF Done:  E(RB3LYP) =  -1294.26062535     A.U. after   13 cycles
 SCF Done:  E(RB3LYP) =  -1294.26119703     A.U. after   12 cycles
 SCF Done:  E(RB3LYP) =  -1294.26132237     A.U. after   12 cycles
 SCF Done:  E(RB3LYP) =  -1294.26143749     A.U. after   12 cycles
 SCF Done:  E(RB3LYP) =  -1294.26147046     A.U. after   11 cycles
 SCF Done:  E(RB3LYP) =  -1294.26151796     A.U. after   10 cycles
 SCF Done:  E(RB3LYP) =  -1294.26157542     A.U. after   11 cycles
 SCF Done:  E(RB3LYP) =  -1294.26376329     A.U. after    9 cycles
 SCF Done:  E(RB3LYP) =  -1294.26376478     A.U. after    9 cycles
 SCF Done:  E(RB3LYP) =  -1294.26376542     A.U. after    9 cycles
 SCF Done:  E(RB3LYP) =  -1294.26376551     A.U. after    7 cycles
 SCF Done:  E(RB3LYP) =  -1294.26376553     A.U. after    7 cycles
 Optimization completed.
    -- Stationary point found.
 Normal termination of Gaussian 16 at Sat Dec 12 09:42:20 2020.

 --------------------------------------------------------------------
 #N Geom=AllCheck Guess=TCheck SCRF=Check GenChk RB3LYP/6-31G(d) Freq
 --------------------------------------------------------------------

 Structure from the checkpoint file:  "JID_9123.chk"
 -----------------------------
 CID_8975230_JID_9123_neutraal
 -----------------------------
 Charge =  0 Multiplicity = 1

 SCF Done:  E(RB3LYP) =  -1294.26376553     A.U. after    1 cycles

  Exact polarizability: 177.383 -23.997 154.991 -11.394 -12.993 134.380
 Approx polarizability: 255.723 -45.979 249.903 -24.026 -36.896 218.701

                      1                      2                      3
                      A                      A                      A
 Frequencies --     16.0277                22.2074                46.7771
 Red. masses --      6.0298                 4.4538                 5.2833
 Frc consts  --      0.0009                 0.0013                 0.0068
 IR Inten    --      0.2494                 1.1764                 2.2978

                      4                      5                      6
                      A                      A                      A
 Frequencies --     56.5075                82.5032                96.1572
 Red. masses --      4.3599                 1.3935                 3.9438
 Frc consts  --      0.0082                 0.0056                 0.0215
 IR Inten    --      4.5132                 0.2835                 0.8710

                      7                      8                      9
                      A                      A                      A
 Frequencies --    106.4710               113.2289               134.5769
 Red. masses --      4.7243                 1.2032                 4.9787
 Frc consts  --      0.0316                 0.0091                 0.0531
 IR Inten    --      3.9350                 0.4066                 0.5291

                     10                     11                     12
                      A                      A                      A
 Frequencies --    148.3699               154.9980               189.5012
 Red. masses --      4.1290                 3.1127                 3.6771
 Frc consts  --      0.0536                 0.0441                 0.0778
 IR Inten    --      1.1385                 2.6542                 4.9400

                     13                     14                     15
                      A                      A                      A
 Frequencies --    211.1577               220.0821               250.3821
 Red. masses --      5.5550                 3.1032                 3.0867
 Frc consts  --      0.1459                 0.0886                 0.1140
 IR Inten    --      3.2153                 1.1900                 3.5095

                     16                     17                     18
                      A                      A                      A
 Frequencies --    270.2965               286.5925               310.4996
 Red. masses --      5.0490                 4.4215                 4.2403
 Frc consts  --      0.2173                 0.2140                 0.2409
 IR Inten    --      9.5749                 5.5508                 2.8513

                     19                     20                     21
                      A                      A                      A
 Frequencies --    324.2490               367.8456               401.4015
 Red. masses --      3.4084                 6.3710                 8.8040
 Frc consts  --      0.2111                 0.5079                 0.8358
 IR Inten    --     10.5894                 2.8094                 0.3942

                     22                     23                     24
                      A                      A                      A
 Frequencies --    457.4771               490.3244               505.8702
 Red. masses --      6.0526                 6.0140                 4.5445
 Frc consts  --      0.7463                 0.8519                 0.6852
 IR Inten    --      1.8784                15.9486                 8.0676

                     25                     26                     27
                      A                      A                      A
 Frequencies --    509.0343               583.6985               600.3921
 Red. masses --      4.9769                 5.1551                 4.7467
 Frc consts  --      0.7598                 1.0348                 1.0081
 IR Inten    --      4.1369                17.8882                 5.5640

                     28                     29                     30
                      A                      A                      A
 Frequencies --    622.2171               679.7219               686.6012
 Red. masses --      5.5673                 5.8139                 5.6865
 Frc consts  --      1.2699                 1.5826                 1.5794
 IR Inten    --     13.8813                 3.0680                18.2518

                     31                     32                     33
                      A                      A                      A
 Frequencies --    694.0762               719.3973               750.0998
 Red. masses --      3.2006                 4.5893                 9.7142
 Frc consts  --      0.9084                 1.3994                 3.2203
 IR Inten    --      8.9897                 2.6789                32.1667

                     34                     35                     36
                      A                      A                      A
 Frequencies --    760.6297               769.2775               791.6802
 Red. masses --      6.1611                 6.1073                 6.2464
 Frc consts  --      2.1002                 2.1294                 2.3066
 IR Inten    --      2.9546                15.9393                22.5318

                     37                     38                     39
                      A                      A                      A
 Frequencies --    871.0551               875.4802               897.9775
 Red. masses --      1.7844                 2.4261                 1.7226
 Frc consts  --      0.7977                 1.0956                 0.8184
 IR Inten    --     13.5071                21.5770                 1.6297

                     40                     41                     42
                      A                      A                      A
 Frequencies --    980.2302              1009.2370              1022.6064
 Red. masses --      2.7172                 2.4094                 1.6618
 Frc consts  --      1.5383                 1.4459                 1.0239
 IR Inten    --      6.9667                 0.3951                 1.6968

                     43                     44                     45
                      A                      A                      A
 Frequencies --   1031.5220              1045.4714              1054.6935
 Red. masses --      2.5647                 3.4998                 1.4013
 Frc consts  --      1.6079                 2.2538                 0.9184
 IR Inten    --      4.9379                53.1891                 1.3274

                     46                     47                     48
                      A                      A                      A
 Frequencies --   1075.6848              1076.5850              1111.2824
 Red. masses --      1.4663                 4.9491                 3.7595
 Frc consts  --      0.9996                 3.3797                 2.7355
 IR Inten    --      9.6606                60.2618                71.3505

                     49                     50                     51
                      A                      A                      A
 Frequencies --   1144.5204              1156.5002              1168.0986
 Red. masses --      2.6679                 2.2285                 2.6769
 Frc consts  --      2.0590                 1.7561                 2.1520
 IR Inten    --     56.4496                24.1103                62.0272

                     52                     53                     54
                      A                      A                      A
 Frequencies --   1197.0510              1211.3580              1224.5226
 Red. masses --      4.3215                 2.1790                 2.0538
 Frc consts  --      3.6485                 1.8839                 1.8145
 IR Inten    --     21.6471               100.2291               135.8201

                     55                     56                     57
                      A                      A                      A
 Frequencies --   1246.0326              1274.2268              1279.7623
 Red. masses --      1.3214                 1.7180                 2.2988
 Frc consts  --      1.2088                 1.6435                 2.2183
 IR Inten    --     32.4666               148.0262               202.1106

                     58                     59                     60
                      A                      A                      A
 Frequencies --   1297.9491              1369.5452              1395.4806
 Red. masses --      1.3082                 3.2155                 1.7983
 Frc consts  --      1.2985                 3.5534                 2.0633
 IR Inten    --     92.6646               158.8554                24.6444

                     61                     62                     63
                      A                      A                      A
 Frequencies --   1400.7499              1412.6211              1422.2616
 Red. masses --      1.7739                 2.5376                 1.7318
 Frc consts  --      2.0507                 2.9835                 2.0640
 IR Inten    --     53.2960                68.2231               153.7676

                     64                     65                     66
                      A                      A                      A
 Frequencies --   1444.4232              1446.5728              1486.1555
 Red. masses --      1.2384                 1.2434                 1.1052
 Frc consts  --      1.5223                 1.5330                 1.4382
 IR Inten    --      2.2367                 1.4909                23.3969

                     67                     68                     69
                      A                      A                      A
 Frequencies --   1501.7128              1508.2773              1509.2966
 Red. masses --      1.0518                 1.0426                 1.0755
 Frc consts  --      1.3975                 1.3974                 1.4435
 IR Inten    --      9.2341                 8.7011                11.3611

                     70                     71                     72
                      A                      A                      A
 Frequencies --   1520.1204              1541.3364              1551.2248
 Red. masses --      1.1529                 1.0916                 1.1000
 Frc consts  --      1.5696                 1.5280                 1.5595
 IR Inten    --     14.1044                10.9845                 1.0699

                     73                     74                     75
                      A                      A                      A
 Frequencies --   1555.8246              1624.2674              1782.1954
 Red. masses --      5.5635                 6.1645                11.7890
 Frc consts  --      7.9344                 9.5822                22.0617
 IR Inten    --    102.6980                28.7122               122.4360

                     76                     77                     78
                      A                      A                      A
 Frequencies --   1812.0963              1887.9154              3046.2886
 Red. masses --     12.0745                12.7030                 1.0368
 Frc consts  --     23.3606                26.6760                 5.6685
 IR Inten    --    301.2433               397.2312                36.3060

                     79                     80                     81
                      A                      A                      A
 Frequencies --   3062.0376              3075.7022              3083.2471
 Red. masses --      1.0359                 1.0698                 1.0639
 Frc consts  --      5.7226                 5.9626                 5.9588
 IR Inten    --     14.0391                21.8785                29.4851

                     82                     83                     84
                      A                      A                      A
 Frequencies --   3098.0657              3112.8146              3122.6064
 Red. masses --      1.1019                 1.0563                 1.0999
 Frc consts  --      6.2310                 6.0306                 6.3191
 IR Inten    --     15.9252                12.4124                 9.0113

                     85                     86                     87
                      A                      A                      A
 Frequencies --   3134.1060              3143.3581              3150.5890
 Red. masses --      1.1006                 1.1038                 1.0988
 Frc consts  --      6.3696                 6.4258                 6.4261
 IR Inten    --      9.4838                10.7909                 6.7711

                     88                     89                     90
                      A                      A                      A
 Frequencies --   3162.5422              3173.7519              3243.5720
 Red. masses --      1.1053                 1.1098                 1.0937
 Frc consts  --      6.5132                 6.5863                 6.7795
 IR Inten    --     22.8233                 3.0439                 1.5803

 - Thermochemistry -
 -------------------
 Temperature   298.150 Kelvin.  Pressure   1.00000 Atm.
 Atom     1 has atomic number  6 and mass  12.00000

 Molecular mass:   283.05144 amu.
 Principal axes and moments of inertia in atomic units:
                           1         2         3
     Eigenvalues --  3271.387367717.228038719.73305
           X            0.99991  -0.00809   0.01079
           Y            0.00836   0.99967  -0.02444
           Z           -0.01059   0.02453   0.99964
 This molecule is an asymmetric top.
 Rotational symmetry number  1.
 Warning -- assumption of classical behavior for rotation
           may cause significant error
 Rotational temperatures (Kelvin)      0.02648     0.01122     0.00993
 Rotational constants (GHZ):           0.55167     0.23386     0.20697
 Zero-point vibrational energy     642771.1 (Joules/Mol)
                                  153.62598 (Kcal/Mol)
 Warning -- explicit consideration of  27 degrees of freedom as
           vibrations may cause significant error
 Vibrational temperatures:     23.06    31.95    67.30    81.30   118.70
          (Kelvin)            138.35   153.19   162.91   193.63   213.47
                              223.01   272.65   303.81   316.65   360.24
                              388.90   412.34   446.74   466.52   529.25
                              577.53   658.21   705.47   727.83   732.39
                              839.81   863.83   895.23   977.97   987.87
                              998.62  1035.05  1079.23  1094.38  1106.82
                             1139.05  1253.25  1259.62  1291.99  1410.33
                             1452.07  1471.30  1484.13  1504.20  1517.47
                             1547.67  1548.97  1598.89  1646.71  1663.95
                             1680.63  1722.29  1742.87  1761.81  1792.76
                             1833.33  1841.29  1867.46  1970.47  2007.79
                             2015.37  2032.45  2046.32  2078.20  2081.30
                             2138.25  2160.63  2170.07  2171.54  2187.11
                             2217.64  2231.87  2238.48  2336.96  2564.18
                             2607.20  2716.29  4382.93  4405.59  4425.25
                             4436.10  4457.43  4478.65  4492.73  4509.28
                             4522.59  4532.99  4550.19  4566.32  4666.78

 Zero-point correction=                           0.244819 (Hartree/Particle)
 Thermal correction to Energy=                    0.263412
 Thermal correction to Enthalpy=                  0.264356
 Thermal correction to Gibbs Free Energy=         0.195242
 Sum of electronic and zero-point Energies=          -1294.018947
 Sum of electronic and thermal Energies=             -1294.000354
 Sum of electronic and thermal Enthalpies=           -1293.999409
 Sum of electronic and thermal Free Energies=        -1294.068523

                     E (Thermal)             CV                S
                      KCal/Mol        Cal/Mol-Kelvin    Cal/Mol-Kelvin
 Total                  165.293             66.607            145.462
 Electronic               0.000              0.000              0.000
 Translational            0.889              2.981             42.819
 Rotational               0.889              2.981             33.753
 Vibrational            163.516             60.645             68.889
 Vibration     1          0.593              1.986              7.074
 Vibration     2          0.593              1.985              6.426
 Vibration     3          0.595              1.979              4.949
 Vibration     4          0.596              1.975              4.576
 Vibration     5          0.600              1.961              3.830
 Vibration     6          0.603              1.952              3.531
 Vibration     7          0.605              1.944              3.332
 Vibration     8          0.607              1.938              3.213
 Vibration     9          0.613              1.919              2.880
 Vibration    10          0.618              1.904              2.693
 Vibration    11          0.620              1.897              2.610
 Vibration    12          0.633              1.854              2.233
 Vibration    13          0.643              1.824              2.034
 Vibration    14          0.647              1.810              1.958
 Vibration    15          0.663              1.762              1.728
 Vibration    16          0.674              1.728              1.594
 Vibration    17          0.684              1.699              1.494
 Vibration    18          0.699              1.654              1.360
 Vibration    19          0.709              1.627              1.289
 Vibration    20          0.740              1.538              1.089
 Vibration    21          0.767              1.467              0.958
 Vibration    22          0.816              1.344              0.773
 Vibration    23          0.846              1.271              0.683
 Vibration    24          0.861              1.237              0.644
 Vibration    25          0.864              1.230              0.636
 Vibration    26          0.941              1.067              0.479
 Vibration    27          0.959              1.031              0.449

 Optimization completed.
    -- Stationary point found.
 Normal termination of Gaussian 16 at Sat Dec 12 09:56:54 2020.

 ----------------------------------------------------------------------
 # B3LYP/6-311++G(d,p) empiricaldispersion=gd3bj scf=xqc pop=npa geom=c
 heck
 ----------------------------------------------------------------------

 -------------------------------------
 CID_8975230_JID_9123_Energie_neutraal
 -------------------------------------
 Structure from the checkpoint file:  "JID_9123.chk"
 Charge =  0 Multiplicity = 1

 SCF Done:  E(RB3LYP) =  -1294.54389620     A.U. after   15 cycles
 Normal termination of Gaussian 16 at Sat Dec 12 10:02:39 2020.

 ----------------------------------------------------------------------
 # B3LYP/6-311++G(d,p) empiricaldispersion=gd3bj scf=xqc pop=npa geom=c
 heck
 ----------------------------------------------------------------------

 -----------------------------------
 CID_8975230_JID_9123_Energie_kation
 -----------------------------------
 Structure from the checkpoint file:  "JID_9123.chk"
 Charge =  1 Multiplicity = 2

 SCF Done:  E(UB3LYP) =  -1294.23890194     A.U. after   27 cycles
 Normal termination of Gaussian 16 at Sat Dec 12 10:16:31 2020.
 Gaussian 16:  ES64L-G16RevA.03 25-Dec-2016

 ----------------------------------------------------------------------
 # B3LYP/6-311++G(d,p) empiricaldispersion=gd3bj scf=xqc pop=npa geom=c
 heck
 ----------------------------------------------------------------------

 ----------------------------------
 CID_8975230_JID_9123_Energie_anion
 ----------------------------------
 Structure from the checkpoint file:  "JID_9123.chk"
 Charge = -1 Multiplicity = 2

                         Standard orientation:
 ---------------------------------------------------------------------
 Center     Atomic      Atomic             Coordinates (Angstroms)
 Number     Number       Type             X           Y           Z
 ---------------------------------------------------------------------
      1          6           0       -3.833882    2.336468   -0.793900
      2          6           0       -3.091904    1.088200   -0.428810
      3          6           0       -1.866518    0.669680   -0.853244
      4          6           0       -1.459653   -0.585185   -0.282336
      5          6           0       -2.388867   -1.123407    0.586289
      6         16           0       -3.775097   -0.080859    0.690329
      7          6           0       -2.319156   -2.392709    1.378551
      8          6           0       -0.171731   -1.232454   -0.552602
      9          8           0        0.304505   -2.175840    0.054333
     10          8           0        0.477342   -0.617763   -1.578507
     11          6           0        1.816842   -1.049279   -1.812596
     12          6           0        2.719366   -0.900832   -0.592145
     13          8           0        3.558540   -1.725275   -0.293901
     14          7           0        2.518111    0.223389    0.213222
     15          6           0        3.124918    0.297048    1.538343
     16          6           0        2.426498    1.549749    2.076451
     17          8           0        2.081411    2.305231    0.896644
     18          6           0        2.055915    1.486894   -0.188947
     19          8           0        1.723975    1.842721   -1.289161
     20          1           0       -4.792534    2.115603   -1.278549
     21          1           0       -4.043751    2.959535    0.083722
     22          1           0       -3.232042    2.927600   -1.490395
     23          1           0       -1.240784    1.233668   -1.534336
     24          1           0       -1.556218   -2.319124    2.161159
     25          1           0       -3.279992   -2.621224    1.848322
     26          1           0       -2.027330   -3.230675    0.739305
     27          1           0        1.850966   -2.103110   -2.095078
     28          1           0        2.175003   -0.418046   -2.627342
     29          1           0        2.906581   -0.606147    2.110170
     30          1           0        4.211708    0.413480    1.463930
     31          1           0        1.503385    1.305512    2.612330
     32          1           0        3.062633    2.175308    2.703378
 ---------------------------------------------------------------------

 SCF Done:  E(UB3LYP) =  -1294.54707360     A.U. after   33 cycles
 SCF Done:  E(UB3LYP) =  -1294.54707360     a.u. after    1 cycles

 The electronic state is 2-A.
 Alpha  occ. eigenvalues --  -88.74325 -19.07035 -19.03233 -19.00121 -18.98941
 Alpha  occ. eigenvalues --  -18.96401 -14.25831 -10.22183 -10.16579 -10.15071
 Alpha  occ. eigenvalues --  -10.14569 -10.12478 -10.11958 -10.07767 -10.07542
 Alpha  occ. eigenvalues --  -10.06442 -10.05428 -10.04905 -10.04347  -7.82990
 Alpha  occ. eigenvalues --   -5.79278  -5.78921  -5.78598  -1.02253  -0.97550
 Alpha  occ. eigenvalues --   -0.94184  -0.93104  -0.88102  -0.83822  -0.75791
 Alpha  occ. eigenvalues --   -0.67813  -0.66431  -0.64699  -0.61460  -0.60060
 Alpha  occ. eigenvalues --   -0.57269  -0.54760  -0.54241  -0.48646  -0.45109
 Alpha  occ. eigenvalues --   -0.43127  -0.42820  -0.41656  -0.39643  -0.38446
 Alpha  occ. eigenvalues --   -0.38056  -0.35598  -0.34420  -0.33847  -0.33379
 Alpha  occ. eigenvalues --   -0.33158  -0.32536  -0.32433  -0.32199  -0.31332
 Alpha  occ. eigenvalues --   -0.30761  -0.30420  -0.28832  -0.28576  -0.27079
 Alpha  occ. eigenvalues --   -0.26184  -0.25756  -0.24400  -0.23862  -0.23008
 Alpha  occ. eigenvalues --   -0.21540  -0.20878  -0.19633  -0.18064  -0.17102
 Alpha  occ. eigenvalues --   -0.15594  -0.14397  -0.13096  -0.10623   0.04303
 Alpha virt. eigenvalues --    0.06155   0.07567   0.07871   0.08764   0.09243
 Alpha virt. eigenvalues --    0.09918   0.10120   0.10516   0.11203   0.11571
 Alpha virt. eigenvalues --    0.12096   0.12635   0.12873   0.13107   0.13801

  Beta  occ. eigenvalues --  -88.74298 -19.07020 -19.03169 -19.00090 -18.98749
  Beta  occ. eigenvalues --  -18.96236 -14.25873 -10.22107 -10.16395 -10.14866
  Beta  occ. eigenvalues --  -10.14546 -10.12467 -10.11964 -10.07733 -10.07543
  Beta  occ. eigenvalues --  -10.05939 -10.05464 -10.04922 -10.04379  -7.82966
  Beta  occ. eigenvalues --   -5.79271  -5.78916  -5.78495  -1.02189  -0.97334
  Beta  occ. eigenvalues --   -0.93864  -0.93043  -0.87835  -0.83768  -0.75532
  Beta  occ. eigenvalues --   -0.67722  -0.66164  -0.64449  -0.61341  -0.59920
  Beta  occ. eigenvalues --   -0.57167  -0.54644  -0.54111  -0.48294  -0.44964
  Beta  occ. eigenvalues --   -0.43025  -0.42659  -0.41452  -0.39548  -0.38244
  Beta  occ. eigenvalues --   -0.37926  -0.35278  -0.34219  -0.33674  -0.33201
  Beta  occ. eigenvalues --   -0.33020  -0.32410  -0.32331  -0.32058  -0.31204
  Beta  occ. eigenvalues --   -0.30384  -0.30156  -0.28519  -0.28307  -0.26887
  Beta  occ. eigenvalues --   -0.25719  -0.25384  -0.24244  -0.23744  -0.22557
  Beta  occ. eigenvalues --   -0.21314  -0.20699  -0.19507  -0.17707  -0.16829
  Beta  occ. eigenvalues --   -0.15385  -0.14233  -0.12655  -0.09350
  Beta virt. eigenvalues --    0.06803   0.07536   0.08747   0.08847   0.09291
  Beta virt. eigenvalues --    0.09668   0.09959   0.10258   0.11072   0.11191
  Beta virt. eigenvalues --    0.11595   0.12063   0.12627   0.12892   0.13399

 Mulliken charges and spin densities:
               1          2
     1  C   -0.191197  -0.024291
     2  C    0.290173   0.022289
     3  C   -0.715485  -0.026861
     4  C   -0.698087  -0.011941
     5  C    1.519172   0.313729
     6  S   -0.771842   0.079032
     7  C   -0.473385  -0.014982
     8  C   -0.524194   0.099562
     9  O   -0.213084   0.049477
    10  O    0.080190   0.007348
    11  C   -0.352519  -0.004453
    12  C    0.091246   0.195420
    13  O   -0.299598   0.064183
    14  N    0.000878   0.035060
    15  C    0.108063  -0.202780
    16  C    0.159669  -0.464277
    17  O   -0.090359   0.028662
    18  C    0.067375  -0.057920
    19  O   -0.297270   0.019042
    20  H    0.138506   0.002218
    21  H    0.106614   0.037714
    22  H    0.146296   0.000718
    23  H    0.179360  -0.000455
    24  H    0.131087   0.053959
    25  H    0.102994  -0.000778
    26  H    0.170860   0.009430
    27  H    0.196032   0.001776
    28  H    0.194572   0.002241
    29  H    0.123839   0.077638
    30  H    0.088782   0.088927
    31  H    0.069588   0.100484
    32  H   -0.338276   0.519830
 Sum of Mulliken charges =  -1.00000   1.00000

 Dipole moment (field-independent basis, Debye):
    X=             -1.4988    Y=              1.1819    Z=             -0.3318  Tot=              1.9374
 Quadrupole moment (field-independent basis, Debye-Ang):
   XX=           -166.7579   YY=           -150.8931   ZZ=           -132.2022
   XY=              0.4070   XZ=              0.2104   YZ=             -0.3600

 Summary of Natural Population Analysis:

                                       Natural Population
                Natural  -----------------------------------------------
    Atom  No    Charge         Core      Valence    Rydberg      Total
 -----------------------------------------------------------------------
      C    1   -0.29406      0.99962     2.28916    0.00528     3.29406
      C    2   -0.11050      0.99951     2.09934    0.01166     3.11050
      C    3   -0.11250      0.99944     2.10300    0.01006     3.11250
      C    4   -0.12461      0.99937     2.11305    0.01219     3.12461
      C    5    0.02953      0.99949     1.95945    0.01153     2.97047
      S    6    0.19270      4.99938     2.78744    0.02047     7.80730
      C    7   -0.30315      0.99962     2.29823    0.00529     3.30315
      C    8    0.42188      0.99960     1.55151    0.02701     2.57812
      O    9   -0.30702      0.99988     3.30207    0.00507     4.30702
      O   10   -0.27716      0.99987     3.26831    0.00898     4.27716
      C   11   -0.05389      0.99953     2.04373    0.01063     3.05389
      C   12    0.37123      0.99969     1.60600    0.02309     2.62877
      O   13   -0.28185      0.99987     3.27651    0.00547     4.28185
      N   14   -0.28342      0.99960     2.77474    0.00908     3.78342
      C   15   -0.09417      0.99965     2.08325    0.01128     3.09417
      C   16   -0.01574      0.99960     2.00431    0.01184     3.01574
      O   17   -0.27455      0.99987     3.26739    0.00729     4.27455
      C   18    0.47794      0.99970     1.49456    0.02780     2.52206
      O   19   -0.29789      0.99986     3.29241    0.00561     4.29789
      H   20    0.09798      0.00000     0.40092    0.00110     0.40202
      H   21    0.09996      0.00000     0.39896    0.00108     0.40004
      H   22    0.10487      0.00000     0.39430    0.00083     0.39513
      H   23    0.11447      0.00000     0.38453    0.00100     0.38553
      H   24    0.11338      0.00000     0.38516    0.00146     0.38662
      H   25    0.09430      0.00000     0.40490    0.00080     0.40570
      H   26    0.11426      0.00000     0.38482    0.00092     0.38574
      H   27    0.10044      0.00000     0.39834    0.00122     0.39956
      H   28    0.10604      0.00000     0.39308    0.00088     0.39396
      H   29    0.11051      0.00000     0.38847    0.00102     0.38949
      H   30    0.09591      0.00000     0.40291    0.00117     0.40409
      H   31    0.09136      0.00000     0.40729    0.00135     0.40864
      H   32    0.09374      0.00000     0.40427    0.00199     0.40626
 =======================================================================
   * Total *   -0.00000     22.99314    50.76241    0.24445    74.00000

 Normal termination of Gaussian 16 at Sat Dec 12 10:32:13 2020.
