 Gaussian 16, Revision A.03,

 -----------------------------------------------------------
 # opt freq B3LYP/6-31G(d) empiricaldispersion=gd3bj scf=xqc
 -----------------------------------------------------------

 -------------------------------
 CID_131274183_JID_6776_neutraal
 -------------------------------
 Symbolic Z-matrix:
 Charge =  0 Multiplicity = 1

 SCF Done:  E(RB3LYP) =  -709.650112811     A.U. after   14 cycles
 SCF Done:  E(RB3LYP) =  -709.652735976     A.U. after   12 cycles
 SCF Done:  E(RB3LYP) =  -709.653235801     A.U. after   12 cycles
 SCF Done:  E(RB3LYP) =  -709.653461009     A.U. after   12 cycles
 SCF Done:  E(RB3LYP) =  -709.653510752     A.U. after   11 cycles
 SCF Done:  E(RB3LYP) =  -709.653534742     A.U. after   10 cycles
 SCF Done:  E(RB3LYP) =  -709.653537839     A.U. after    9 cycles
 SCF Done:  E(RB3LYP) =  -709.653538491     A.U. after    8 cycles
 SCF Done:  E(RB3LYP) =  -709.653538783     A.U. after    8 cycles
 SCF Done:  E(RB3LYP) =  -709.653538884     A.U. after    8 cycles
 Optimization completed.
    -- Stationary point found.
 Normal termination of Gaussian 16 at Fri Dec 11 00:25:27 2020.

 --------------------------------------------------------------------
 #N Geom=AllCheck Guess=TCheck SCRF=Check GenChk RB3LYP/6-31G(d) Freq
 --------------------------------------------------------------------

 Structure from the checkpoint file:  "JID_6776.chk"
 -------------------------------
 CID_131274183_JID_6776_neutraal
 -------------------------------
 Charge =  0 Multiplicity = 1

 SCF Done:  E(RB3LYP) =  -709.653538884     A.U. after    1 cycles

  Exact polarizability: 201.735  26.281 109.969 -14.143  10.949 118.775
 Approx polarizability: 275.419  49.397 171.540 -29.782  27.910 203.418

                      1                      2                      3
                      A                      A                      A
 Frequencies --     29.4017                39.6091                67.2428
 Red. masses --      3.6888                 6.9990                 4.7991
 Frc consts  --      0.0019                 0.0065                 0.0128
 IR Inten    --      0.0926                 1.2911                 1.0141

                      4                      5                      6
                      A                      A                      A
 Frequencies --    119.8238               135.8502               169.7670
 Red. masses --      6.4578                 5.8390                 4.4453
 Frc consts  --      0.0546                 0.0635                 0.0755
 IR Inten    --      2.2608                 1.8548                 5.8300

                      7                      8                      9
                      A                      A                      A
 Frequencies --    205.0702               238.0717               260.5768
 Red. masses --      3.5182                 2.4882                 6.4783
 Frc consts  --      0.0872                 0.0831                 0.2592
 IR Inten    --      1.5795                 2.3310                 1.3319

                     10                     11                     12
                      A                      A                      A
 Frequencies --    291.2438               338.8593               346.2147
 Red. masses --      3.9145                 2.9121                 1.1931
 Frc consts  --      0.1956                 0.1970                 0.0843
 IR Inten    --      2.4887                14.3652               130.3452

                     13                     14                     15
                      A                      A                      A
 Frequencies --    373.1144               411.9621               413.6651
 Red. masses --      2.1455                 2.4095                 2.9852
 Frc consts  --      0.1760                 0.2409                 0.3010
 IR Inten    --      3.8914                 0.8555                 0.0387

                     16                     17                     18
                      A                      A                      A
 Frequencies --    438.4823               448.5610               474.5886
 Red. masses --      1.9937                 4.0116                 4.3927
 Frc consts  --      0.2258                 0.4756                 0.5829
 IR Inten    --      2.3781                 0.8566                 9.0649

                     19                     20                     21
                      A                      A                      A
 Frequencies --    513.6410               545.5724               560.5190
 Red. masses --      3.2295                 4.2198                 7.4669
 Frc consts  --      0.5020                 0.7400                 1.3822
 IR Inten    --      4.4126                 7.8906                 0.1842

                     22                     23                     24
                      A                      A                      A
 Frequencies --    576.5066               650.9929               666.4144
 Red. masses --      3.1097                 2.6419                 5.3126
 Frc consts  --      0.6090                 0.6596                 1.3901
 IR Inten    --     29.3304                 2.2407                 0.8768

                     25                     26                     27
                      A                      A                      A
 Frequencies --    716.0173               741.7707               765.8949
 Red. masses --      3.8315                 4.0389                 3.4101
 Frc consts  --      1.1573                 1.3094                 1.1786
 IR Inten    --      1.6504                 0.8393                 5.1021

                     28                     29                     30
                      A                      A                      A
 Frequencies --    820.6237               842.3665               851.5304
 Red. masses --      1.5954                 3.1304                 1.2717
 Frc consts  --      0.6330                 1.3087                 0.5433
 IR Inten    --      2.4400                 8.1863                 0.8110

                     31                     32                     33
                      A                      A                      A
 Frequencies --    863.2873               872.8534               906.6437
 Red. masses --      2.1566                 3.3840                 2.3521
 Frc consts  --      0.9469                 1.5190                 1.1392
 IR Inten    --     18.1162                18.8463                 8.5043

                     34                     35                     36
                      A                      A                      A
 Frequencies --    949.0523               967.2111               973.2262
 Red. masses --      2.1585                 1.3612                 1.3499
 Frc consts  --      1.1454                 0.7503                 0.7533
 IR Inten    --      4.3027                 0.9956                 1.2239

                     37                     38                     39
                      A                      A                      A
 Frequencies --    995.1719              1003.7512              1030.0507
 Red. masses --      2.2560                 2.0173                 2.4057
 Frc consts  --      1.3164                 1.1975                 1.5039
 IR Inten    --     13.1950                13.1794                16.2002

                     40                     41                     42
                      A                      A                      A
 Frequencies --   1045.5981              1053.4664              1104.0859
 Red. masses --      2.8744                 1.6060                 2.3067
 Frc consts  --      1.8515                 1.0501                 1.6567
 IR Inten    --      3.8801                12.9428                26.5207

                     43                     44                     45
                      A                      A                      A
 Frequencies --   1114.5119              1148.0617              1158.7318
 Red. masses --      2.4844                 1.4825                 3.4782
 Frc consts  --      1.8182                 1.1513                 2.7515
 IR Inten    --      9.7531                14.6483                82.3876

                     46                     47                     48
                      A                      A                      A
 Frequencies --   1183.8404              1215.1212              1221.1379
 Red. masses --      1.8795                 1.4078                 1.2198
 Frc consts  --      1.5519                 1.2247                 1.0717
 IR Inten    --     19.9397                 3.8347                18.6374

                     49                     50                     51
                      A                      A                      A
 Frequencies --   1226.0826              1238.0428              1243.7996
 Red. masses --      1.3895                 3.2065                 2.0890
 Frc consts  --      1.2307                 2.8957                 1.9041
 IR Inten    --     17.1873                 1.5278                 1.8891

                     52                     53                     54
                      A                      A                      A
 Frequencies --   1280.3800              1303.4950              1338.4663
 Red. masses --      1.2907                 1.3793                 1.8885
 Frc consts  --      1.2466                 1.3808                 1.9933
 IR Inten    --     28.6738                20.4198                 3.8997

                     55                     56                     57
                      A                      A                      A
 Frequencies --   1343.1557              1349.0277              1367.4787
 Red. masses --      1.7521                 1.3994                 1.4155
 Frc consts  --      1.8624                 1.5005                 1.5596
 IR Inten    --      6.3028                 9.8065                 1.7091

                     58                     59                     60
                      A                      A                      A
 Frequencies --   1379.8732              1399.0830              1405.1051
 Red. masses --      1.7449                 1.3840                 1.3841
 Frc consts  --      1.9575                 1.5961                 1.6100
 IR Inten    --      7.5758                 5.5528                16.5223

                     61                     62                     63
                      A                      A                      A
 Frequencies --   1429.7684              1446.5881              1461.2371
 Red. masses --      1.7545                 1.3502                 2.5430
 Frc consts  --      2.1131                 1.6647                 3.1991
 IR Inten    --     24.3014                12.7558                 5.2017

                     64                     65                     66
                      A                      A                      A
 Frequencies --   1493.0234              1504.9235              1515.8017
 Red. masses --      1.0925                 1.1036                 1.1086
 Frc consts  --      1.4348                 1.4727                 1.5008
 IR Inten    --      2.3294                 0.2512                 4.8816

                     67                     68                     69
                      A                      A                      A
 Frequencies --   1519.6436              1535.6212              1558.8279
 Red. masses --      1.0817                 1.1041                 2.4359
 Frc consts  --      1.4718                 1.5340                 3.4875
 IR Inten    --      0.1256                 3.3032                13.9407

                     70                     71                     72
                      A                      A                      A
 Frequencies --   1617.8788              1671.4071              2350.0537
 Red. masses --      6.1759                 5.7268                12.6797
 Frc consts  --      9.5245                 9.4260                41.2586
 IR Inten    --      0.0568                19.7290                44.0339

                     73                     74                     75
                      A                      A                      A
 Frequencies --   3005.1873              3023.7252              3025.8027
 Red. masses --      1.0700                 1.0671                 1.0682
 Frc consts  --      5.6934                 5.7484                 5.7623
 IR Inten    --     42.4568                29.3169                30.6300

                     76                     77                     78
                      A                      A                      A
 Frequencies --   3031.6132              3062.4500              3082.3895
 Red. masses --      1.0659                 1.0627                 1.0965
 Frc consts  --      5.7720                 5.8719                 6.1383
 IR Inten    --     58.0084                13.4931                 5.9374

                     79                     80                     81
                      A                      A                      A
 Frequencies --   3092.7724              3111.6769              3114.6184
 Red. masses --      1.0953                 1.0953                 1.0968
 Frc consts  --      6.1726                 6.2487                 6.2691
 IR Inten    --     35.1761                49.5181                18.2431

                     82                     83                     84
                      A                      A                      A
 Frequencies --   3118.2817              3190.9559              3214.6176
 Red. masses --      1.1022                 1.0890                 1.0892
 Frc consts  --      6.3143                 6.5329                 6.6317
 IR Inten    --     39.2183                10.6823                 3.1546

                     85                     86                     87
                      A                      A                      A
 Frequencies --   3220.6366              3234.4018              3723.2076
 Red. masses --      1.0939                 1.0937                 1.0659
 Frc consts  --      6.6854                 6.7415                 8.7061
 IR Inten    --      6.1688                 6.1396                10.6310

 - Thermochemistry -
 -------------------
 Temperature   298.150 Kelvin.  Pressure   1.00000 Atm.
 Atom     1 has atomic number  6 and mass  12.00000

 Molecular mass:   217.11028 amu.
 Principal axes and moments of inertia in atomic units:
                           1         2         3
     Eigenvalues --  1214.432497710.354187892.56286
           X            1.00000   0.00121   0.00190
           Y           -0.00127   0.99955   0.02997
           Z           -0.00186  -0.02997   0.99955
 This molecule is an asymmetric top.
 Rotational symmetry number  1.
 Warning -- assumption of classical behavior for rotation
           may cause significant error
 Rotational temperatures (Kelvin)      0.07132     0.01123     0.01097
 Rotational constants (GHZ):           1.48608     0.23407     0.22866
 Zero-point vibrational energy     682414.9 (Joules/Mol)
                                  163.10107 (Kcal/Mol)
 Warning -- explicit consideration of  22 degrees of freedom as
           vibrations may cause significant error
 Vibrational temperatures:     42.30    56.99    96.75   172.40   195.46
          (Kelvin)            244.26   295.05   342.53   374.91   419.03
                              487.54   498.13   536.83   592.72   595.17
                              630.88   645.38   682.83   739.01   784.96
                              806.46   829.46   936.63   958.82  1030.19
                             1067.24  1101.95  1180.69  1211.98  1225.16
                             1242.08  1255.84  1304.46  1365.47  1391.60
                             1400.26  1431.83  1444.17  1482.01  1504.38
                             1515.70  1588.53  1603.53  1651.80  1667.16
                             1703.28  1748.29  1756.95  1764.06  1781.27
                             1789.55  1842.18  1875.44  1925.75  1932.50
                             1940.95  1967.50  1985.33  2012.97  2021.63
                             2057.12  2081.32  2102.39  2148.13  2165.25
                             2180.90  2186.43  2209.42  2242.81  2327.77
                             2404.78  3381.20  4323.79  4350.47  4353.46
                             4361.82  4406.18  4434.87  4449.81  4477.01
                             4481.24  4486.51  4591.07  4625.12  4633.78
                             4653.58  5356.87

 Zero-point correction=                           0.259918 (Hartree/Particle)
 Thermal correction to Energy=                    0.273977
 Thermal correction to Enthalpy=                  0.274921
 Thermal correction to Gibbs Free Energy=         0.218203
 Sum of electronic and zero-point Energies=           -709.393621
 Sum of electronic and thermal Energies=              -709.379562
 Sum of electronic and thermal Enthalpies=            -709.378618
 Sum of electronic and thermal Free Energies=         -709.435335

                     E (Thermal)             CV                S
                      KCal/Mol        Cal/Mol-Kelvin    Cal/Mol-Kelvin
 Total                  171.923             55.421            119.373
 Electronic               0.000              0.000              0.000
 Translational            0.889              2.981             42.029
 Rotational               0.889              2.981             32.669
 Vibrational            170.146             49.459             44.675
 Vibration     1          0.593              1.984              5.869
 Vibration     2          0.594              1.981              5.279
 Vibration     3          0.598              1.970              4.232
 Vibration     4          0.609              1.933              3.103
 Vibration     5          0.614              1.918              2.862
 Vibration     6          0.625              1.880              2.438
 Vibration     7          0.640              1.833              2.087
 Vibration     8          0.656              1.782              1.817
 Vibration     9          0.669              1.745              1.658
 Vibration    10          0.687              1.690              1.467
 Vibration    11          0.719              1.598              1.218
 Vibration    12          0.724              1.583              1.183
 Vibration    13          0.745              1.527              1.067
 Vibration    14          0.776              1.444              0.920
 Vibration    15          0.777              1.441              0.914
 Vibration    16          0.799              1.386              0.831
 Vibration    17          0.808              1.364              0.800
 Vibration    18          0.831              1.306              0.725
 Vibration    19          0.869              1.220              0.625
 Vibration    20          0.901              1.149              0.553
 Vibration    21          0.916              1.117              0.523
 Vibration    22          0.933              1.082              0.492

                           ! Non-Optimized Parameters !
 Normal termination of Gaussian 16 at Fri Dec 11 00:34:52 2020.

 ----------------------------------------------------------------------
 # B3LYP/6-311++G(d,p) empiricaldispersion=gd3bj scf=xqc pop=npa geom=c
 heck
 ----------------------------------------------------------------------

 ---------------------------------------
 CID_131274183_JID_6776_Energie_neutraal
 ---------------------------------------
 Structure from the checkpoint file:  "JID_6776.chk"
 Charge =  0 Multiplicity = 1

 SCF Done:  E(RB3LYP) =  -709.853828689     A.U. after   15 cycles
 Normal termination of Gaussian 16 at Fri Dec 11 00:38:49 2020.

 ----------------------------------------------------------------------
 # B3LYP/6-311++G(d,p) empiricaldispersion=gd3bj scf=xqc pop=npa geom=c
 heck
 ----------------------------------------------------------------------

 -------------------------------------
 CID_131274183_JID_6776_Energie_kation
 -------------------------------------
 Structure from the checkpoint file:  "JID_6776.chk"
 Charge =  1 Multiplicity = 2

 SCF Done:  E(UB3LYP) =  -709.534414921     A.U. after   26 cycles
 Normal termination of Gaussian 16 at Fri Dec 11 00:48:56 2020.
 Gaussian 16:  ES64L-G16RevA.03 25-Dec-2016

 ----------------------------------------------------------------------
 # B3LYP/6-311++G(d,p) empiricaldispersion=gd3bj scf=xqc pop=npa geom=c
 heck
 ----------------------------------------------------------------------

 ------------------------------------
 CID_131274183_JID_6776_Energie_anion
 ------------------------------------
 Structure from the checkpoint file:  "JID_6776.chk"
 Charge = -1 Multiplicity = 2

                         Standard orientation:
 ---------------------------------------------------------------------
 Center     Atomic      Atomic             Coordinates (Angstroms)
 Number     Number       Type             X           Y           Z
 ---------------------------------------------------------------------
      1          6           0       -1.553695    1.042530    0.082436
      2          6           0       -2.745854    1.714452   -0.599505
      3          8           0       -3.980832    1.309491   -0.018126
      4          6           0       -4.180829   -0.088515   -0.151490
      5          6           0       -3.087409   -0.872303    0.577174
      6          6           0       -1.690589   -0.485353    0.056889
      7          6           0       -0.594189   -1.184502    0.898028
      8          6           0        0.813748   -0.750532    0.574264
      9          6           0        1.527502    0.060536    1.466004
     10          6           0        2.816819    0.493055    1.175138
     11          6           0        3.420085    0.114430   -0.033451
     12          6           0        2.715372   -0.697558   -0.937266
     13          6           0        1.428709   -1.122213   -0.630392
     14          6           0        4.748390    0.551153   -0.342705
     15          7           0        5.827417    0.905997   -0.593847
     16          8           0       -1.562732   -0.859273   -1.324971
     17          1           0       -1.495729    1.374423    1.126013
     18          1           0       -0.622379    1.333124   -0.414241
     19          1           0       -2.739638    1.478436   -1.673890
     20          1           0       -2.698529    2.800610   -0.482245
     21          1           0       -4.197234   -0.370247   -1.216290
     22          1           0       -5.164445   -0.301553    0.276878
     23          1           0       -3.246386   -1.954419    0.456278
     24          1           0       -3.147920   -0.654518    1.649959
     25          1           0       -0.797676   -0.998381    1.958579
     26          1           0       -0.700156   -2.267916    0.745142
     27          1           0        1.065190    0.356627    2.403741
     28          1           0        3.361208    1.119124    1.874160
     29          1           0        3.183611   -0.988442   -1.871710
     30          1           0        0.882389   -1.733331   -1.339230
     31          1           0       -1.834065   -1.788350   -1.402185
 ---------------------------------------------------------------------

 SCF Done:  E(UB3LYP) =  -709.862432766     A.U. after   29 cycles

 The electronic state is 2-A.
 Alpha  occ. eigenvalues --  -19.03121 -19.02078 -14.17297 -10.13019 -10.12229
 Alpha  occ. eigenvalues --  -10.12027 -10.07466 -10.07240 -10.06860 -10.06763
 Alpha  occ. eigenvalues --  -10.06315 -10.05869 -10.05838 -10.05544 -10.05046
 Alpha  occ. eigenvalues --  -10.04985  -0.94731  -0.92452  -0.77649  -0.74315
 Alpha  occ. eigenvalues --   -0.70471  -0.67283  -0.66106  -0.63157  -0.59871
 Alpha  occ. eigenvalues --   -0.55149  -0.53104  -0.49502  -0.48720  -0.46954
 Alpha  occ. eigenvalues --   -0.42736  -0.40587  -0.38920  -0.38288  -0.36382
 Alpha  occ. eigenvalues --   -0.36218  -0.35016  -0.34395  -0.31815  -0.31260
 Alpha  occ. eigenvalues --   -0.30594  -0.30109  -0.29319  -0.27925  -0.26817
 Alpha  occ. eigenvalues --   -0.26482  -0.25807  -0.24759  -0.23348  -0.23299
 Alpha  occ. eigenvalues --   -0.22208  -0.21537  -0.20984  -0.20274  -0.18514
 Alpha  occ. eigenvalues --   -0.15975  -0.14372  -0.13045   0.03648
 Alpha virt. eigenvalues --    0.06032   0.07680   0.07994   0.08333   0.09585
 Alpha virt. eigenvalues --    0.09814   0.10170   0.10269   0.10938   0.11412
 Alpha virt. eigenvalues --    0.12231   0.12597   0.13178   0.13701   0.14146

  Beta  occ. eigenvalues --  -19.03116 -19.02047 -14.17081 -10.12989 -10.12221
  Beta  occ. eigenvalues --  -10.12027 -10.07463 -10.07209 -10.06756 -10.06641
  Beta  occ. eigenvalues --  -10.06328 -10.05762 -10.05757 -10.05578 -10.05015
  Beta  occ. eigenvalues --  -10.04700  -0.94718  -0.92384  -0.77314  -0.73987
  Beta  occ. eigenvalues --   -0.70349  -0.67250  -0.65713  -0.62920  -0.59681
  Beta  occ. eigenvalues --   -0.55109  -0.52884  -0.49419  -0.48355  -0.46893
  Beta  occ. eigenvalues --   -0.42582  -0.40533  -0.38838  -0.38220  -0.36284
  Beta  occ. eigenvalues --   -0.36161  -0.34862  -0.34222  -0.31676  -0.31170
  Beta  occ. eigenvalues --   -0.30519  -0.30060  -0.29271  -0.27705  -0.26517
  Beta  occ. eigenvalues --   -0.25948  -0.25739  -0.24561  -0.23171  -0.23074
  Beta  occ. eigenvalues --   -0.21825  -0.21493  -0.20455  -0.20150  -0.18444
  Beta  occ. eigenvalues --   -0.15893  -0.13710  -0.11656
  Beta virt. eigenvalues --    0.06434   0.07936   0.08069   0.08369   0.08810
  Beta virt. eigenvalues --    0.09652   0.09925   0.10193   0.10549   0.11008
  Beta virt. eigenvalues --    0.11575   0.12233   0.12602   0.13245   0.13751

 Mulliken charges and spin densities:
               1          2
     1  C   -0.268857  -0.162438
     2  C   -0.576089  -0.059465
     3  O   -0.153734   0.017845
     4  C    0.089105  -0.478622
     5  C   -0.125492  -0.036408
     6  C    0.442481  -0.307493
     7  C    0.018558  -0.460161
     8  C    0.742169   0.253856
     9  C   -0.054523  -0.293123
    10  C   -0.587370   0.110368
    11  C    1.733402   0.073267
    12  C   -0.432638   0.151798
    13  C   -0.549548   0.354216
    14  C   -1.467548  -0.141545
    15  N   -0.301018   0.116620
    16  O   -0.150735  -0.012199
    17  H    0.109943   0.057798
    18  H    0.219024  -0.038105
    19  H    0.155453   0.019619
    20  H    0.166700   0.001930
    21  H    0.098493   0.033914
    22  H   -0.027903   0.219599
    23  H   -0.443563   0.595091
    24  H    0.129046   0.024248
    25  H    0.030741   0.142223
    26  H   -0.167359   0.359336
    27  H    0.056738   0.049044
    28  H    0.150768   0.008175
    29  H    0.153642   0.011125
    30  H   -0.079392   0.216150
    31  H    0.089507   0.173337
 Sum of Mulliken charges =  -1.00000   1.00000

 Dipole moment (field-independent basis, Debye):
    X=             -6.8305    Y=              1.5299    Z=              1.0398  Tot=              7.0765
 Quadrupole moment (field-independent basis, Debye-Ang):
   XX=           -202.7411   YY=           -121.3774   ZZ=           -109.3136
   XY=            -10.8554   XZ=              6.6233   YZ=              2.5243

 Summary of Natural Population Analysis:

                                       Natural Population
                Natural  -----------------------------------------------
    Atom  No    Charge         Core      Valence    Rydberg      Total
 -----------------------------------------------------------------------
      C    1   -0.21325      0.99957     2.20539    0.00829     3.21325
      C    2   -0.00888      0.99958     1.99787    0.01143     3.00888
      O    3   -0.30255      0.99989     3.29416    0.00850     4.30255
      C    4   -0.01103      0.99958     1.99726    0.01418     3.01103
      C    5   -0.21505      0.99957     2.20499    0.01049     3.21505
      C    6    0.14257      0.99951     1.84184    0.01609     2.85743
      C    7   -0.20864      0.99956     2.19740    0.01168     3.20864
      C    8    0.04255      0.99951     1.94787    0.01007     2.95745
      C    9   -0.11505      0.99952     2.10614    0.00939     3.11505
      C   10   -0.05939      0.99954     2.05071    0.00913     3.05939
      C   11   -0.06890      0.99942     2.06005    0.00943     3.06890
      C   12   -0.06256      0.99954     2.05390    0.00912     3.06256
      C   13   -0.10423      0.99951     2.09508    0.00964     3.10423
      C   14    0.15184      0.99964     1.83056    0.01796     2.84816
      N   15   -0.17559      0.99979     2.66498    0.01082     3.67559
      O   16   -0.38110      0.99989     3.37429    0.00692     4.38110
      H   17    0.10034      0.00000     0.39870    0.00095     0.39966
      H   18    0.11448      0.00000     0.38457    0.00094     0.38552
      H   19    0.08319      0.00000     0.41560    0.00121     0.41681
      H   20    0.08695      0.00000     0.41207    0.00097     0.41305
      H   21    0.08038      0.00000     0.41831    0.00130     0.41962
      H   22    0.08865      0.00000     0.41018    0.00117     0.41135
      H   23    0.10277      0.00000     0.39499    0.00224     0.39723
      H   24    0.10161      0.00000     0.39717    0.00122     0.39839
      H   25    0.10118      0.00000     0.39772    0.00111     0.39882
      H   26    0.10733      0.00000     0.39062    0.00205     0.39267
      H   27    0.09435      0.00000     0.40472    0.00093     0.40565
      H   28    0.09727      0.00000     0.40196    0.00077     0.40273
      H   29    0.09818      0.00000     0.40098    0.00084     0.40182
      H   30    0.10319      0.00000     0.39578    0.00103     0.39681
      H   31    0.22938      0.00000     0.26710    0.00352     0.27062
 =======================================================================
   * Total *   -0.00000     15.99362    41.81298    0.19340    58.00000

 Normal termination of Gaussian 16 at Fri Dec 11 00:58:46 2020.
