 Gaussian 16, Revision A.03,

 -----------------------------------------------------------
 # opt freq B3LYP/6-31G(d) empiricaldispersion=gd3bj scf=xqc
 -----------------------------------------------------------

 ------------------------------
 CID_80861069_JID_4021_neutraal
 ------------------------------
 Symbolic Z-matrix:
 Charge =  0 Multiplicity = 1

 SCF Done:  E(RB3LYP) =  -629.605180276     A.U. after   14 cycles
 SCF Done:  E(RB3LYP) =  -629.611373212     A.U. after   12 cycles
 SCF Done:  E(RB3LYP) =  -629.611569475     A.U. after   12 cycles
 SCF Done:  E(RB3LYP) =  -629.613148386     A.U. after   12 cycles
 SCF Done:  E(RB3LYP) =  -629.613685946     A.U. after   11 cycles
 SCF Done:  E(RB3LYP) =  -629.613954964     A.U. after   11 cycles
 SCF Done:  E(RB3LYP) =  -629.614042525     A.U. after   11 cycles
 SCF Done:  E(RB3LYP) =  -629.614088617     A.U. after   10 cycles
 SCF Done:  E(RB3LYP) =  -629.614097555     A.U. after    9 cycles
 SCF Done:  E(RB3LYP) =  -629.614102352     A.U. after    9 cycles
 SCF Done:  E(RB3LYP) =  -629.614641461     A.U. after    9 cycles
 SCF Done:  E(RB3LYP) =  -629.614644764     A.U. after   10 cycles
 SCF Done:  E(RB3LYP) =  -629.614645743     A.U. after    9 cycles
 SCF Done:  E(RB3LYP) =  -629.614645501     A.U. after    9 cycles
 SCF Done:  E(RB3LYP) =  -629.614646062     A.U. after    9 cycles
 Optimization completed.
    -- Stationary point found.
 Normal termination of Gaussian 16 at Thu Dec 10 09:32:39 2020.

 --------------------------------------------------------------------
 #N Geom=AllCheck Guess=TCheck SCRF=Check GenChk RB3LYP/6-31G(d) Freq
 --------------------------------------------------------------------

 Structure from the checkpoint file:  "JID_4021.chk"
 ------------------------------
 CID_80861069_JID_4021_neutraal
 ------------------------------
 Charge =  0 Multiplicity = 1

 SCF Done:  E(RB3LYP) =  -629.614646062     A.U. after    1 cycles

  Exact polarizability: 175.126  -7.040 134.369  15.622   0.154  80.365
 Approx polarizability: 232.006 -10.896 214.129  26.183  -4.464 117.038

                      1                      2                      3
                      A                      A                      A
 Frequencies --     29.7833                50.7811                67.6618
 Red. masses --      4.2382                 3.7092                 1.6888
 Frc consts  --      0.0022                 0.0056                 0.0046
 IR Inten    --      0.4069                 0.8024                 4.0348

                      4                      5                      6
                      A                      A                      A
 Frequencies --     70.2423                80.8425               102.0529
 Red. masses --      1.2308                 1.6715                 1.9201
 Frc consts  --      0.0036                 0.0064                 0.0118
 IR Inten    --      1.1226                 1.3240                 7.6308

                      7                      8                      9
                      A                      A                      A
 Frequencies --    118.2706               176.4125               191.8553
 Red. masses --      3.1767                 3.2139                 3.0994
 Frc consts  --      0.0262                 0.0589                 0.0672
 IR Inten    --      0.4452                 2.3629                 1.3284

                     10                     11                     12
                      A                      A                      A
 Frequencies --    205.2010               215.5058               232.7262
 Red. masses --      4.0352                 3.9688                 4.1288
 Frc consts  --      0.1001                 0.1086                 0.1318
 IR Inten    --      1.1071                 3.8393                 4.2978

                     13                     14                     15
                      A                      A                      A
 Frequencies --    298.0170               334.6498               382.9512
 Red. masses --      2.4306                 3.4219                 2.5895
 Frc consts  --      0.1272                 0.2258                 0.2237
 IR Inten    --      2.0483                 0.2466                17.6222

                     16                     17                     18
                      A                      A                      A
 Frequencies --    425.8433               453.9250               480.8240
 Red. masses --      2.2157                 1.2052                 2.0970
 Frc consts  --      0.2367                 0.1463                 0.2856
 IR Inten    --      0.0569                97.5908                 1.2127

                     19                     20                     21
                      A                      A                      A
 Frequencies --    549.0281               554.2851               598.3172
 Red. masses --      4.6435                 5.6033                 3.9077
 Frc consts  --      0.8247                 1.0143                 0.8242
 IR Inten    --      1.4450                 4.9904                 3.0827

                     22                     23                     24
                      A                      A                      A
 Frequencies --    614.8716               679.3518               680.7938
 Red. masses --      4.1127                 2.6991                 1.9344
 Frc consts  --      0.9161                 0.7339                 0.5282
 IR Inten    --     15.8025                 7.7583                16.6332

                     25                     26                     27
                      A                      A                      A
 Frequencies --    711.4011               797.7425               804.1727
 Red. masses --      4.2269                 2.2940                 2.5676
 Frc consts  --      1.2604                 0.8601                 0.9783
 IR Inten    --      1.9423                 0.2630                54.2104

                     28                     29                     30
                      A                      A                      A
 Frequencies --    845.5311               865.3577               941.7660
 Red. masses --      2.1705                 2.0966                 1.3510
 Frc consts  --      0.9143                 0.9250                 0.7060
 IR Inten    --      2.6244                 0.5473                38.7846

                     31                     32                     33
                      A                      A                      A
 Frequencies --    954.6584               984.0441              1012.5192
 Red. masses --      2.3659                 3.8950                 2.5448
 Frc consts  --      1.2704                 2.2222                 1.5371
 IR Inten    --      3.7063                 4.1766                 1.2795

                     34                     35                     36
                      A                      A                      A
 Frequencies --   1017.0245              1040.2951              1051.1671
 Red. masses --      3.3801                 1.0904                 1.5999
 Frc consts  --      2.0599                 0.6952                 1.0416
 IR Inten    --     15.4389                12.2093                 6.4512

                     37                     38                     39
                      A                      A                      A
 Frequencies --   1073.0148              1084.3092              1114.7026
 Red. masses --      1.6023                 2.0653                 3.5111
 Frc consts  --      1.0869                 1.4307                 2.5705
 IR Inten    --      6.1337                53.6872                42.0925

                     40                     41                     42
                      A                      A                      A
 Frequencies --   1155.2911              1163.8723              1168.0880
 Red. masses --      1.8396                 1.8629                 1.4619
 Frc consts  --      1.4466                 1.4868                 1.1752
 IR Inten    --      0.6754                 5.7999                21.0254

                     43                     44                     45
                      A                      A                      A
 Frequencies --   1210.6051              1232.6789              1271.9911
 Red. masses --      2.7428                 1.5417                 1.3316
 Frc consts  --      2.3684                 1.3802                 1.2694
 IR Inten    --    104.8095               105.2454                 3.5558

                     46                     47                     48
                      A                      A                      A
 Frequencies --   1304.5211              1332.0149              1340.0154
 Red. masses --      1.5069                 2.6386                 1.4062
 Frc consts  --      1.5109                 2.7583                 1.4877
 IR Inten    --      3.6599                69.7132                16.7039

                     49                     50                     51
                      A                      A                      A
 Frequencies --   1380.0968              1386.4816              1399.5286
 Red. masses --      1.9758                 1.5924                 1.7325
 Frc consts  --      2.2172                 1.8035                 1.9994
 IR Inten    --    203.7412               210.7183                 4.5081

                     52                     53                     54
                      A                      A                      A
 Frequencies --   1429.9139              1446.0087              1465.9400
 Red. masses --      1.2586                 1.8259                 1.5262
 Frc consts  --      1.5162                 2.2494                 1.9324
 IR Inten    --      3.8378                82.1657                53.2410

                     55                     56                     57
                      A                      A                      A
 Frequencies --   1475.9391              1503.3305              1504.2711
 Red. masses --      1.1646                 1.1410                 1.0619
 Frc consts  --      1.4947                 1.5193                 1.4158
 IR Inten    --      1.3635                 6.1424                 7.3676

                     58                     59                     60
                      A                      A                      A
 Frequencies --   1506.2841              1510.9514              1525.6295
 Red. masses --      1.1611                 1.2117                 1.6564
 Frc consts  --      1.5522                 1.6299                 2.2715
 IR Inten    --     19.3332                40.3221               111.7061

                     61                     62                     63
                      A                      A                      A
 Frequencies --   1542.7810              1544.0014              1603.9509
 Red. masses --      1.1090                 1.0943                 3.7160
 Frc consts  --      1.5552                 1.5371                 5.6326
 IR Inten    --      2.0456                24.2401               151.0326

                     64                     65                     66
                      A                      A                      A
 Frequencies --   1621.2844              1647.1032              1732.7440
 Red. masses --      5.0635                 6.6929                 4.4397
 Frc consts  --      7.8419                10.6980                 7.8536
 IR Inten    --    262.0409               867.7664                 6.1604

                     67                     68                     69
                      A                      A                      A
 Frequencies --   3032.7535              3037.1015              3058.1398
 Red. masses --      1.0488                 1.0598                 1.0360
 Frc consts  --      5.6833                 5.7599                 5.7085
 IR Inten    --     76.0071                20.9962                13.8086

                     70                     71                     72
                      A                      A                      A
 Frequencies --   3070.8102              3084.0915              3111.4127
 Red. masses --      1.0722                 1.0873                 1.0860
 Frc consts  --      5.9571                 6.0931                 6.1944
 IR Inten    --     15.2520                48.1661                35.4046

                     73                     74                     75
                      A                      A                      A
 Frequencies --   3118.5605              3122.5556              3142.5424
 Red. masses --      1.1003                 1.1094                 1.1035
 Frc consts  --      6.3046                 6.3734                 6.4205
 IR Inten    --     11.7774                29.0032                19.0959

                     76                     77                     78
                      A                      A                      A
 Frequencies --   3152.6045              3154.1832              3173.4566
 Red. masses --      1.1051                 1.0592                 1.0916
 Frc consts  --      6.4712                 6.2085                 6.4769
 IR Inten    --     18.3191                13.2640                 8.7314

                     79                     80                     81
                      A                      A                      A
 Frequencies --   3236.7384              3261.3886              3649.0225
 Red. masses --      1.1151                 1.0912                 1.0770
 Frc consts  --      6.8833                 6.8383                 8.4491
 IR Inten    --     18.6996                 2.4172                49.8499

 - Thermochemistry -
 -------------------
 Temperature   298.150 Kelvin.  Pressure   1.00000 Atm.
 Atom     1 has atomic number  6 and mass  12.00000

 Molecular mass:   193.12151 amu.
 Principal axes and moments of inertia in atomic units:
                           1         2         3
     Eigenvalues --  1501.804234671.161755592.20918
           X            0.99998  -0.00101   0.00576
           Y            0.00105   0.99997  -0.00742
           Z           -0.00576   0.00743   0.99996
 This molecule is an asymmetric top.
 Rotational symmetry number  1.
 Warning -- assumption of classical behavior for rotation
           may cause significant error
 Rotational temperatures (Kelvin)      0.05767     0.01854     0.01549
 Rotational constants (GHZ):           1.20172     0.38636     0.32272
 Zero-point vibrational energy     644204.5 (Joules/Mol)
                                  153.96857 (Kcal/Mol)
 Warning -- explicit consideration of  22 degrees of freedom as
           vibrations may cause significant error
 Vibrational temperatures:     42.85    73.06    97.35   101.06   116.31
          (Kelvin)            146.83   170.17   253.82   276.04   295.24
                              310.06   334.84   428.78   481.49   550.98
                              612.69   653.10   691.80   789.93   797.49
                              860.85   884.66   977.44   979.51  1023.55
                             1147.77  1157.03  1216.53  1245.06  1354.99
                             1373.54  1415.82  1456.79  1463.27  1496.75
                             1512.40  1543.83  1560.08  1603.81  1662.21
                             1674.55  1680.62  1741.79  1773.55  1830.11
                             1876.91  1916.47  1927.98  1985.65  1994.84
                             2013.61  2057.33  2080.48  2109.16  2123.55
                             2162.96  2164.31  2167.21  2173.92  2195.04
                             2219.72  2221.47  2307.73  2332.67  2369.81
                             2493.03  4363.46  4369.71  4399.98  4418.21
                             4437.32  4476.63  4486.91  4492.66  4521.42
                             4535.89  4538.17  4565.90  4656.94  4692.41
                             5250.13

 Zero-point correction=                           0.245365 (Hartree/Particle)
 Thermal correction to Energy=                    0.260271
 Thermal correction to Enthalpy=                  0.261216
 Thermal correction to Gibbs Free Energy=         0.201938
 Sum of electronic and zero-point Energies=           -629.369282
 Sum of electronic and thermal Energies=              -629.354375
 Sum of electronic and thermal Enthalpies=            -629.353430
 Sum of electronic and thermal Free Energies=         -629.412708

                     E (Thermal)             CV                S
                      KCal/Mol        Cal/Mol-Kelvin    Cal/Mol-Kelvin
 Total                  163.323             53.508            124.760
 Electronic               0.000              0.000              0.000
 Translational            0.889              2.981             41.680
 Rotational               0.889              2.981             32.040
 Vibrational            161.545             47.547             51.041
 Vibration     1          0.594              1.984              5.844
 Vibration     2          0.595              1.977              4.787
 Vibration     3          0.598              1.970              4.220
 Vibration     4          0.598              1.968              4.147
 Vibration     5          0.600              1.962              3.870
 Vibration     6          0.604              1.948              3.415
 Vibration     7          0.608              1.934              3.128
 Vibration     8          0.628              1.871              2.366
 Vibration     9          0.634              1.851              2.210
 Vibration    10          0.640              1.832              2.086
 Vibration    11          0.645              1.817              1.997
 Vibration    12          0.653              1.791              1.858
 Vibration    13          0.691              1.677              1.428
 Vibration    14          0.716              1.606              1.238
 Vibration    15          0.752              1.507              1.027
 Vibration    16          0.788              1.414              0.872
 Vibration    17          0.812              1.352              0.784
 Vibration    18          0.837              1.293              0.708
 Vibration    19          0.904              1.142              0.546
 Vibration    20          0.910              1.130              0.535
 Vibration    21          0.956              1.035              0.453
 Vibration    22          0.974              1.000              0.425

 Optimization completed.
    -- Stationary point found.
 Normal termination of Gaussian 16 at Thu Dec 10 09:39:45 2020.

 ----------------------------------------------------------------------
 # B3LYP/6-311++G(d,p) empiricaldispersion=gd3bj scf=xqc pop=npa geom=c
 heck
 ----------------------------------------------------------------------

 --------------------------------------
 CID_80861069_JID_4021_Energie_neutraal
 --------------------------------------
 Structure from the checkpoint file:  "JID_4021.chk"
 Charge =  0 Multiplicity = 1

 SCF Done:  E(RB3LYP) =  -629.791475796     A.U. after   14 cycles
 Normal termination of Gaussian 16 at Thu Dec 10 09:42:26 2020.

 ----------------------------------------------------------------------
 # B3LYP/6-311++G(d,p) empiricaldispersion=gd3bj scf=xqc pop=npa geom=c
 heck
 ----------------------------------------------------------------------

 ------------------------------------
 CID_80861069_JID_4021_Energie_kation
 ------------------------------------
 Structure from the checkpoint file:  "JID_4021.chk"
 Charge =  1 Multiplicity = 2

 SCF Done:  E(UB3LYP) =  -629.506754930     A.U. after   22 cycles
 Normal termination of Gaussian 16 at Thu Dec 10 09:48:16 2020.
 Gaussian 16:  ES64L-G16RevA.03 25-Dec-2016

 ----------------------------------------------------------------------
 # B3LYP/6-311++G(d,p) empiricaldispersion=gd3bj scf=xqc pop=npa geom=c
 heck
 ----------------------------------------------------------------------

 -----------------------------------
 CID_80861069_JID_4021_Energie_anion
 -----------------------------------
 Structure from the checkpoint file:  "JID_4021.chk"
 Charge = -1 Multiplicity = 2

                         Standard orientation:
 ---------------------------------------------------------------------
 Center     Atomic      Atomic             Coordinates (Angstroms)
 Number     Number       Type             X           Y           Z
 ---------------------------------------------------------------------
      1          6           0        0.885365    2.878489   -0.644680
      2          6           0        0.889681    1.387065   -0.442357
      3          6           0       -0.274890    0.636451   -0.590770
      4          6           0       -0.155423   -0.747131   -0.365244
      5          7           0        0.993237   -1.317378   -0.031443
      6          6           0        2.055439   -0.493240    0.077090
      7          7           0        2.067380    0.838858   -0.108887
      8          7           0        3.235240   -1.092408    0.395965
      9          6           0        4.438183   -0.352188    0.713880
     10          8           0       -1.175714   -1.631968   -0.454011
     11          6           0       -2.458491   -1.233312   -0.945469
     12          6           0       -3.445005   -0.929421    0.188794
     13          6           0       -3.098161    0.277695    1.014429
     14          6           0       -3.835791    1.386731    1.077510
     15          1           0       -0.117793    3.257134   -0.859326
     16          1           0        1.273048    3.379246    0.248903
     17          1           0        1.549155    3.146269   -1.474491
     18          1           0       -1.215099    1.118729   -0.813982
     19          1           0        3.160744   -2.065040    0.653109
     20          1           0        5.268438   -1.057793    0.799740
     21          1           0        4.658028    0.362960   -0.082539
     22          1           0        4.349160    0.210726    1.653471
     23          1           0       -2.367253   -0.388123   -1.634402
     24          1           0       -2.817409   -2.095732   -1.515123
     25          1           0       -4.438622   -0.801844   -0.260460
     26          1           0       -3.490311   -1.819930    0.830279
     27          1           0       -2.173550    0.217835    1.586162
     28          1           0       -3.541610    2.235666    1.688376
     29          1           0       -4.767650    1.485311    0.523822
 ---------------------------------------------------------------------

 SCF Done:  E(UB3LYP) =  -629.776833073     A.U. after   33 cycles
 SCF Done:  E(UB3LYP) =  -629.776833073     a.u. after    1 cycles

 The electronic state is 2-A.
 Alpha  occ. eigenvalues --  -19.06286 -14.23285 -14.19922 -14.19523 -10.17511
 Alpha  occ. eigenvalues --  -10.17032 -10.13635 -10.12388 -10.10280 -10.08659
 Alpha  occ. eigenvalues --  -10.08581 -10.07367 -10.07287 -10.06929  -0.98610
 Alpha  occ. eigenvalues --   -0.89892  -0.81836  -0.78832  -0.71504  -0.68703
 Alpha  occ. eigenvalues --   -0.65004  -0.62622  -0.60703  -0.56794  -0.52843
 Alpha  occ. eigenvalues --   -0.50409  -0.46845  -0.44643  -0.43998  -0.40779
 Alpha  occ. eigenvalues --   -0.39037  -0.37886  -0.36525  -0.36061  -0.35238
 Alpha  occ. eigenvalues --   -0.34224  -0.33116  -0.31829  -0.31180  -0.30452
 Alpha  occ. eigenvalues --   -0.30044  -0.29243  -0.28747  -0.26103  -0.25435
 Alpha  occ. eigenvalues --   -0.23950  -0.21282  -0.20315  -0.18099  -0.16255
 Alpha  occ. eigenvalues --   -0.15631  -0.12350   0.04269
 Alpha virt. eigenvalues --    0.05603   0.06516   0.06903   0.07824   0.08151
 Alpha virt. eigenvalues --    0.08548   0.09011   0.09586   0.09792   0.10040
 Alpha virt. eigenvalues --    0.10626   0.10896   0.11433   0.12363   0.12483

  Beta  occ. eigenvalues --  -19.06288 -14.23276 -14.19899 -14.19494 -10.17481
  Beta  occ. eigenvalues --  -10.17035 -10.13610 -10.12339 -10.10248 -10.08658
  Beta  occ. eigenvalues --  -10.08556 -10.07338 -10.07271 -10.06933  -0.98594
  Beta  occ. eigenvalues --   -0.89858  -0.81803  -0.78770  -0.71476  -0.68654
  Beta  occ. eigenvalues --   -0.64964  -0.62580  -0.60661  -0.56739  -0.52797
  Beta  occ. eigenvalues --   -0.50348  -0.46785  -0.44604  -0.43951  -0.40748
  Beta  occ. eigenvalues --   -0.39000  -0.37837  -0.36475  -0.36022  -0.35186
  Beta  occ. eigenvalues --   -0.34185  -0.33043  -0.31780  -0.31133  -0.30413
  Beta  occ. eigenvalues --   -0.29985  -0.29206  -0.28712  -0.26044  -0.25392
  Beta  occ. eigenvalues --   -0.23920  -0.21237  -0.20198  -0.18049  -0.16195
  Beta  occ. eigenvalues --   -0.15591  -0.12297
  Beta virt. eigenvalues --    0.06349   0.06867   0.07027   0.07339   0.08265
  Beta virt. eigenvalues --    0.08647   0.08959   0.09255   0.09862   0.10093
  Beta virt. eigenvalues --    0.10339   0.10741   0.11277   0.11832   0.12642

 Mulliken charges and spin densities:
               1          2
     1  C    0.254926  -0.983320
     2  C   -0.038437  -0.188415
     3  C    0.989385  -0.231820
     4  C   -0.762316   0.233371
     5  N   -0.373755   0.087455
     6  C   -0.474387   0.340421
     7  N   -0.133932   0.056284
     8  N   -0.295062   0.106729
     9  C    0.775712  -1.050606
    10  O    0.021756   0.005606
    11  C    0.374366  -0.550092
    12  C    1.704159  -2.372023
    13  C   -2.021655   2.555867
    14  C    1.206953  -1.788465
    15  H   -0.212960   0.360965
    16  H    0.024728   0.129978
    17  H   -0.101078   0.261717
    18  H    0.154357   0.046836
    19  H    0.095558   0.202880
    20  H   -0.472014   0.606594
    21  H   -0.075620   0.251893
    22  H   -0.059082   0.220244
    23  H   -0.212951   0.356225
    24  H   -0.407296   0.603422
    25  H   -0.452716   0.619643
    26  H    0.118884   0.047486
    27  H   -0.155257   0.345575
    28  H    0.053068   0.059450
    29  H   -0.525330   0.666101
 Sum of Mulliken charges =  -1.00000   1.00000

 Dipole moment (field-independent basis, Debye):
    X=              1.4005    Y=              0.0169    Z=              1.2963  Tot=              1.9085
 Quadrupole moment (field-independent basis, Debye-Ang):
   XX=           -186.2360   YY=           -126.2450   ZZ=           -113.2266
   XY=              4.1623   XZ=             -9.3321   YZ=              0.8801

 Summary of Natural Population Analysis:

                                       Natural Population
                Natural  -----------------------------------------------
    Atom  No    Charge         Core      Valence    Rydberg      Total
 -----------------------------------------------------------------------
      C    1   -0.29854      0.99963     2.29331    0.00559     3.29854
      C    2    0.14556      0.99957     1.84246    0.01241     2.85444
      C    3   -0.21104      0.99945     2.20406    0.00754     3.21104
      C    4    0.29697      0.99944     1.68734    0.01625     2.70303
      N    5   -0.28038      0.99962     2.77122    0.00953     3.78038
      C    6    0.30584      0.99960     1.67695    0.01761     2.69416
      N    7   -0.29182      0.99964     2.78201    0.01017     3.79182
      N    8   -0.30514      0.99967     2.79513    0.01035     3.80514
      C    9   -0.17828      0.99965     2.17019    0.00844     3.17828
      O   10   -0.27008      0.99985     3.26085    0.00938     4.27008
      C   11   -0.00711      0.99955     1.99478    0.01277     3.00711
      C   12   -0.22067      0.99960     2.21060    0.01047     3.22067
      C   13   -0.08947      0.99956     2.07903    0.01088     3.08947
      C   14   -0.18914      0.99956     2.18219    0.00739     3.18914
      H   15    0.10185      0.00000     0.39708    0.00108     0.39815
      H   16    0.10752      0.00000     0.39112    0.00135     0.39248
      H   17    0.10918      0.00000     0.38925    0.00157     0.39082
      H   18    0.11377      0.00000     0.38417    0.00206     0.38623
      H   19    0.19481      0.00000     0.30235    0.00284     0.30519
      H   20    0.09614      0.00000     0.40233    0.00154     0.40386
      H   21    0.10270      0.00000     0.39574    0.00156     0.39730
      H   22    0.09036      0.00000     0.40823    0.00141     0.40964
      H   23    0.08892      0.00000     0.40902    0.00207     0.41108
      H   24    0.09455      0.00000     0.40389    0.00156     0.40545
      H   25    0.10605      0.00000     0.39138    0.00257     0.39395
      H   26    0.10402      0.00000     0.39470    0.00129     0.39598
      H   27    0.09691      0.00000     0.40168    0.00141     0.40309
      H   28    0.09384      0.00000     0.40521    0.00095     0.40616
      H   29    0.09270      0.00000     0.40562    0.00168     0.40730
 =======================================================================
   * Total *    0.00000     13.99439    37.83190    0.17371    52.00000

 Normal termination of Gaussian 16 at Thu Dec 10 09:56:47 2020.
