 Gaussian 16, Revision A.03,

 -----------------------------------------------------------
 # opt freq B3LYP/6-31G(d) empiricaldispersion=gd3bj scf=xqc
 -----------------------------------------------------------

 -------------------------------
 CID_116796323_JID_6590_neutraal
 -------------------------------
 Symbolic Z-matrix:
 Charge =  0 Multiplicity = 1

 SCF Done:  E(RB3LYP) =  -684.796533538     A.U. after   14 cycles
 SCF Done:  E(RB3LYP) =  -684.801556464     A.U. after   12 cycles
 SCF Done:  E(RB3LYP) =  -684.803132313     A.U. after   12 cycles
 SCF Done:  E(RB3LYP) =  -684.804179680     A.U. after   12 cycles
 SCF Done:  E(RB3LYP) =  -684.804550504     A.U. after   11 cycles
 SCF Done:  E(RB3LYP) =  -684.804602239     A.U. after   10 cycles
 SCF Done:  E(RB3LYP) =  -684.804631594     A.U. after    9 cycles
 SCF Done:  E(RB3LYP) =  -684.804640211     A.U. after    9 cycles
 SCF Done:  E(RB3LYP) =  -684.804641078     A.U. after    7 cycles
 SCF Done:  E(RB3LYP) =  -684.804641433     A.U. after    7 cycles
 SCF Done:  E(RB3LYP) =  -684.804641646     A.U. after    7 cycles
 SCF Done:  E(RB3LYP) =  -684.804641821     A.U. after    7 cycles
 SCF Done:  E(RB3LYP) =  -684.804641972     A.U. after    7 cycles
 SCF Done:  E(RB3LYP) =  -684.804642047     A.U. after    7 cycles
 SCF Done:  E(RB3LYP) =  -684.804642066     A.U. after    6 cycles
 Optimization completed.
    -- Stationary point found.
 Normal termination of Gaussian 16 at Thu Dec 10 23:45:36 2020.

 --------------------------------------------------------------------
 #N Geom=AllCheck Guess=TCheck SCRF=Check GenChk RB3LYP/6-31G(d) Freq
 --------------------------------------------------------------------

 Structure from the checkpoint file:  "JID_6590.chk"
 -------------------------------
 CID_116796323_JID_6590_neutraal
 -------------------------------
 Charge =  0 Multiplicity = 1

 SCF Done:  E(RB3LYP) =  -684.804642066     A.U. after    1 cycles

  Exact polarizability: 250.260  -8.843 165.091  -5.057  -9.249  66.279
 Approx polarizability: 349.087  -9.641 270.387  -9.467 -20.943 100.834

                      1                      2                      3
                      A                      A                      A
 Frequencies --     25.0829                32.1159                45.4310
 Red. masses --      2.7678                 4.3781                 4.8267
 Frc consts  --      0.0010                 0.0027                 0.0059
 IR Inten    --      0.0132                 1.1668                 1.8625

                      4                      5                      6
                      A                      A                      A
 Frequencies --    102.4527               130.9280               174.0265
 Red. masses --      3.5884                 3.4788                 5.0912
 Frc consts  --      0.0222                 0.0351                 0.0908
 IR Inten    --      0.8957                 0.1718                 1.8987

                      7                      8                      9
                      A                      A                      A
 Frequencies --    206.2582               209.0407               250.1033
 Red. masses --      4.9534                 1.8494                 1.7680
 Frc consts  --      0.1242                 0.0476                 0.0652
 IR Inten    --      2.3190                 1.4593                 1.3704

                     10                     11                     12
                      A                      A                      A
 Frequencies --    263.7090               301.8068               319.5030
 Red. masses --      5.4731                 4.2857                 3.5372
 Frc consts  --      0.2242                 0.2300                 0.2127
 IR Inten    --      1.1684                 0.3243                 0.6175

                     13                     14                     15
                      A                      A                      A
 Frequencies --    386.7818               402.5962               436.4299
 Red. masses --      2.1613                 1.3063                 2.5881
 Frc consts  --      0.1905                 0.1248                 0.2904
 IR Inten    --     15.1468               197.7193                52.9855

                     16                     17                     18
                      A                      A                      A
 Frequencies --    445.2990               464.9706               503.3919
 Red. masses --      2.4996                 3.2197                 1.4180
 Frc consts  --      0.2920                 0.4101                 0.2117
 IR Inten    --     22.5351                10.2120               122.7511

                     19                     20                     21
                      A                      A                      A
 Frequencies --    531.9454               568.8686               603.8424
 Red. masses --      4.2711                 5.6921                 1.1719
 Frc consts  --      0.7121                 1.0853                 0.2518
 IR Inten    --      0.9029                16.1507                75.5300

                     22                     23                     24
                      A                      A                      A
 Frequencies --    626.8387               633.5115               697.0898
 Red. masses --      6.5826                 3.5685                 7.2098
 Frc consts  --      1.5239                 0.8438                 2.0642
 IR Inten    --      5.5094                 2.1515                 9.7667

                     25                     26                     27
                      A                      A                      A
 Frequencies --    708.9134               714.8523               757.0347
 Red. masses --      4.1605                 2.1425                 4.5451
 Frc consts  --      1.2319                 0.6451                 1.5347
 IR Inten    --      2.3549                16.1702                 6.4016

                     28                     29                     30
                      A                      A                      A
 Frequencies --    785.8939               792.2308               800.3102
 Red. masses --      1.5762                 1.5275                 5.9245
 Frc consts  --      0.5736                 0.5648                 2.2357
 IR Inten    --      0.8260                40.6120                49.5514

                     31                     32                     33
                      A                      A                      A
 Frequencies --    803.3701               846.7605               877.4264
 Red. masses --      1.2522                 5.9096                 1.3823
 Frc consts  --      0.4762                 2.4965                 0.6270
 IR Inten    --      4.0667                 1.0183                 0.0629

                     34                     35                     36
                      A                      A                      A
 Frequencies --    931.8817               933.8633               956.5819
 Red. masses --      2.1576                 1.6521                 1.2557
 Frc consts  --      1.1039                 0.8489                 0.6770
 IR Inten    --      9.5122                 9.0320                 0.4265

                     37                     38                     39
                      A                      A                      A
 Frequencies --    989.3512               990.2126              1002.7071
 Red. masses --      3.2880                 1.4575                 3.7831
 Frc consts  --      1.8962                 0.8420                 2.2410
 IR Inten    --      2.3198                 0.3195                 0.0178

                     40                     41                     42
                      A                      A                      A
 Frequencies --   1018.2572              1027.9409              1091.0059
 Red. masses --      5.8187                 2.2753                 1.6692
 Frc consts  --      3.5546                 1.4165                 1.1706
 IR Inten    --      1.4012                 7.2837                 5.4316

                     43                     44                     45
                      A                      A                      A
 Frequencies --   1096.6886              1130.9254              1134.1452
 Red. masses --      1.7256                 1.9150                 1.4527
 Frc consts  --      1.2228                 1.4431                 1.1010
 IR Inten    --      5.5551                 9.0590                 3.1855

                     46                     47                     48
                      A                      A                      A
 Frequencies --   1144.5712              1203.9018              1207.0155
 Red. masses --      1.4215                 1.5822                 1.2183
 Frc consts  --      1.0972                 1.3511                 1.0457
 IR Inten    --      5.3885                16.7246                 0.7305

                     49                     50                     51
                      A                      A                      A
 Frequencies --   1280.7323              1288.6944              1315.1168
 Red. masses --      2.0988                 1.4371                 4.2844
 Frc consts  --      2.0283                 1.4062                 4.3659
 IR Inten    --     17.6476                 6.8302                16.6113

                     52                     53                     54
                      A                      A                      A
 Frequencies --   1344.4293              1362.4134              1370.8767
 Red. masses --      1.4322                 2.0547                 1.6685
 Frc consts  --      1.5252                 2.2471                 1.8475
 IR Inten    --      5.0611                49.3507                 2.2025

                     55                     56                     57
                      A                      A                      A
 Frequencies --   1380.5157              1402.5268              1433.9118
 Red. masses --      2.9826                 3.1248                 1.2800
 Frc consts  --      3.3491                 3.6215                 1.5506
 IR Inten    --     38.6345               147.7755                 1.3955

                     58                     59                     60
                      A                      A                      A
 Frequencies --   1436.3299              1496.5012              1518.2892
 Red. masses --      2.2928                 3.5258                 1.2051
 Frc consts  --      2.7869                 4.6523                 1.6367
 IR Inten    --     12.7823               656.9319                63.0411

                     61                     62                     63
                      A                      A                      A
 Frequencies --   1521.0464              1525.6696              1535.4380
 Red. masses --      2.3313                 1.0445                 2.0074
 Frc consts  --      3.1779                 1.4325                 2.7884
 IR Inten    --     53.1755                 3.1550               105.7891

                     64                     65                     66
                      A                      A                      A
 Frequencies --   1539.8670              1603.8359              1629.8966
 Red. masses --      1.1703                 2.6915                 4.8764
 Frc consts  --      1.6350                 4.0791                 7.6325
 IR Inten    --     12.5155               530.7466               144.9606

                     67                     68                     69
                      A                      A                      A
 Frequencies --   1645.5272              1656.1707              1670.5913
 Red. masses --      3.5992                 4.2052                 5.0424
 Frc consts  --      5.7421                 6.7959                 8.2914
 IR Inten    --    481.5739               214.0462                35.3837

                     70                     71                     72
                      A                      A                      A
 Frequencies --   1679.1307              3045.8911              3047.3462
 Red. masses --      1.6876                 1.0598                 1.0345
 Frc consts  --      2.8035                 5.7928                 5.6603
 IR Inten    --    294.6268                33.0213                36.1900

                     73                     74                     75
                      A                      A                      A
 Frequencies --   3080.7226              3116.4750              3123.6924
 Red. masses --      1.1039                 1.1026                 1.1035
 Frc consts  --      6.1731                 6.3095                 6.3438
 IR Inten    --     11.0698                49.6724                37.2744

                     76                     77                     78
                      A                      A                      A
 Frequencies --   3168.9271              3172.9775              3181.5386
 Red. masses --      1.0871                 1.0901                 1.0890
 Frc consts  --      6.4318                 6.4660                 6.4947
 IR Inten    --      9.1159                27.5516                21.1290

                     79                     80                     81
                      A                      A                      A
 Frequencies --   3200.7535              3220.9016              3257.7412
 Red. masses --      1.0962                 1.0943                 1.0904
 Frc consts  --      6.6166                 6.6887                 6.8182
 IR Inten    --     33.6831                11.6704                10.1916

                     82                     83                     84
                      A                      A                      A
 Frequencies --   3583.8383              3613.5782              3700.3420
 Red. masses --      1.0464                 1.0755                 1.1017
 Frc consts  --      7.9187                 8.2740                 8.8879
 IR Inten    --     49.2054                29.3090                26.2776

 - Thermochemistry -
 -------------------
 Temperature   298.150 Kelvin.  Pressure   1.00000 Atm.
 Atom     1 has atomic number  6 and mass  12.00000

 Molecular mass:   214.12185 amu.
 Principal axes and moments of inertia in atomic units:
                           1         2         3
     Eigenvalues --  1558.526536865.718068252.62592
           X            0.99993   0.01194   0.00101
           Y           -0.01194   0.99993   0.00143
           Z           -0.00099  -0.00144   1.00000
 This molecule is an asymmetric top.
 Rotational symmetry number  1.
 Warning -- assumption of classical behavior for rotation
           may cause significant error
 Rotational temperatures (Kelvin)      0.05557     0.01262     0.01050
 Rotational constants (GHZ):           1.15798     0.26286     0.21869
 Zero-point vibrational energy     654716.8 (Joules/Mol)
                                  156.48107 (Kcal/Mol)
 Warning -- explicit consideration of  21 degrees of freedom as
           vibrations may cause significant error
 Vibrational temperatures:     36.09    46.21    65.37   147.41   188.38
          (Kelvin)            250.39   296.76   300.76   359.84   379.42
                              434.23   459.69   556.49   579.25   627.93
                              640.69   668.99   724.27   765.35   818.48
                              868.79   901.88   911.48  1002.96  1019.97
                             1028.51  1089.20  1130.73  1139.84  1151.47
                             1155.87  1218.30  1262.42  1340.77  1343.62
                             1376.31  1423.46  1424.70  1442.67  1465.05
                             1478.98  1569.71  1577.89  1627.15  1631.78
                             1646.78  1732.15  1736.63  1842.69  1854.14
                             1892.16  1934.33  1960.21  1972.39  1986.25
                             2017.92  2063.08  2066.56  2153.13  2184.48
                             2188.45  2195.10  2209.15  2215.53  2307.56
                             2345.06  2367.55  2382.86  2403.61  2415.89
                             4382.36  4384.45  4432.47  4483.91  4494.30
                             4559.38  4565.21  4577.52  4605.17  4634.16
                             4687.16  5156.34  5199.13  5323.97

 Zero-point correction=                           0.249368 (Hartree/Particle)
 Thermal correction to Energy=                    0.263618
 Thermal correction to Enthalpy=                  0.264562
 Thermal correction to Gibbs Free Energy=         0.206679
 Sum of electronic and zero-point Energies=           -684.555274
 Sum of electronic and thermal Energies=              -684.541024
 Sum of electronic and thermal Enthalpies=            -684.540080
 Sum of electronic and thermal Free Energies=         -684.597963

                     E (Thermal)             CV                S
                      KCal/Mol        Cal/Mol-Kelvin    Cal/Mol-Kelvin
 Total                  165.423             55.394            121.825
 Electronic               0.000              0.000              0.000
 Translational            0.889              2.981             41.988
 Rotational               0.889              2.981             32.846
 Vibrational            163.645             49.433             46.992
 Vibration     1          0.593              1.985              6.185
 Vibration     2          0.594              1.983              5.694
 Vibration     3          0.595              1.979              5.007
 Vibration     4          0.605              1.947              3.407
 Vibration     5          0.612              1.922              2.932
 Vibration     6          0.627              1.874              2.392
 Vibration     7          0.641              1.831              2.077
 Vibration     8          0.642              1.827              2.052
 Vibration     9          0.663              1.763              1.730
 Vibration    10          0.670              1.739              1.637
 Vibration    11          0.694              1.670              1.407
 Vibration    12          0.705              1.636              1.313
 Vibration    13          0.755              1.498              1.013
 Vibration    14          0.768              1.465              0.953
 Vibration    15          0.797              1.391              0.838
 Vibration    16          0.805              1.371              0.810
 Vibration    17          0.822              1.328              0.752
 Vibration    18          0.859              1.242              0.650
 Vibration    19          0.887              1.179              0.583
 Vibration    20          0.925              1.099              0.506
 Vibration    21          0.962              1.024              0.443

                           ! Non-Optimized Parameters !
 Normal termination of Gaussian 16 at Thu Dec 10 23:54:12 2020.

 ----------------------------------------------------------------------
 # B3LYP/6-311++G(d,p) empiricaldispersion=gd3bj scf=xqc pop=npa geom=c
 heck
 ----------------------------------------------------------------------

 ---------------------------------------
 CID_116796323_JID_6590_Energie_neutraal
 ---------------------------------------
 Structure from the checkpoint file:  "JID_6590.chk"
 Charge =  0 Multiplicity = 1

 SCF Done:  E(RB3LYP) =  -684.992789847     A.U. after   15 cycles
 Normal termination of Gaussian 16 at Thu Dec 10 23:57:47 2020.

 ----------------------------------------------------------------------
 # B3LYP/6-311++G(d,p) empiricaldispersion=gd3bj scf=xqc pop=npa geom=c
 heck
 ----------------------------------------------------------------------

 -------------------------------------
 CID_116796323_JID_6590_Energie_kation
 -------------------------------------
 Structure from the checkpoint file:  "JID_6590.chk"
 Charge =  1 Multiplicity = 2

 SCF Done:  E(UB3LYP) =  -684.728624226     A.U. after   21 cycles
 Normal termination of Gaussian 16 at Fri Dec 11 00:04:59 2020.
 Gaussian 16:  ES64L-G16RevA.03 25-Dec-2016

 ----------------------------------------------------------------------
 # B3LYP/6-311++G(d,p) empiricaldispersion=gd3bj scf=xqc pop=npa geom=c
 heck
 ----------------------------------------------------------------------

 ------------------------------------
 CID_116796323_JID_6590_Energie_anion
 ------------------------------------
 Structure from the checkpoint file:  "JID_6590.chk"
 Charge = -1 Multiplicity = 2

                         Standard orientation:
 ---------------------------------------------------------------------
 Center     Atomic      Atomic             Coordinates (Angstroms)
 Number     Number       Type             X           Y           Z
 ---------------------------------------------------------------------
      1          6           0        3.792615    2.280361    0.874354
      2          6           0        3.606177    1.555714   -0.468631
      3          6           0        2.912455    0.221962   -0.303282
      4          6           0        1.515825    0.177953   -0.234774
      5          6           0        0.853641   -1.040055   -0.029468
      6          6           0        1.609574   -2.218155    0.104300
      7          6           0        2.996286   -2.170644    0.034319
      8          6           0        3.652831   -0.956301   -0.168260
      9          7           0       -0.539370   -1.177700    0.048694
     10          6           0       -1.564303   -0.266747   -0.013277
     11          7           0       -1.298616    1.035588   -0.189952
     12          6           0       -2.377176    1.832898   -0.237224
     13          6           0       -3.677782    1.383924   -0.118857
     14          6           0       -3.833539   -0.008589    0.066808
     15          7           0       -2.783496   -0.830246    0.125655
     16          7           0       -5.073341   -0.587648    0.157069
     17          1           0        2.824125    2.462168    1.352929
     18          1           0        4.294617    3.245096    0.737324
     19          1           0        4.394066    1.674877    1.561530
     20          1           0        3.022949    2.192779   -1.144819
     21          1           0        4.585018    1.406072   -0.940601
     22          1           0        0.930730    1.080959   -0.339360
     23          1           0        1.102164   -3.167882    0.259557
     24          1           0        3.567648   -3.089375    0.135499
     25          1           0        4.737832   -0.923081   -0.224113
     26          1           0       -0.882457   -2.118972    0.185058
     27          1           0       -2.172402    2.892758   -0.379106
     28          1           0       -4.527026    2.055634   -0.172617
     29          1           0       -5.083223   -1.537403    0.503576
     30          1           0       -5.849909   -0.007502    0.438847
 ---------------------------------------------------------------------

 SCF Done:  E(UB3LYP) =  -684.982711151     A.U. after   33 cycles
 SCF Done:  E(UB3LYP) =  -684.982711151     a.u. after    1 cycles

 The electronic state is 2-A.
 Alpha  occ. eigenvalues --  -14.25583 -14.22590 -14.20664 -14.20307 -10.18151
 Alpha  occ. eigenvalues --  -10.15874 -10.13236 -10.11980 -10.08977 -10.08846
 Alpha  occ. eigenvalues --  -10.08511 -10.08400 -10.07689 -10.07624 -10.07411
 Alpha  occ. eigenvalues --  -10.07082  -0.91507  -0.85648  -0.82295  -0.77397
 Alpha  occ. eigenvalues --   -0.75955  -0.70170  -0.67725  -0.64995  -0.63605
 Alpha  occ. eigenvalues --   -0.56826  -0.55906  -0.54720  -0.51076  -0.49732
 Alpha  occ. eigenvalues --   -0.46247  -0.45045  -0.42211  -0.40526  -0.39242
 Alpha  occ. eigenvalues --   -0.37552  -0.37113  -0.36047  -0.35585  -0.34997
 Alpha  occ. eigenvalues --   -0.33672  -0.33046  -0.31350  -0.31165  -0.29902
 Alpha  occ. eigenvalues --   -0.28687  -0.27576  -0.26028  -0.25626  -0.24644
 Alpha  occ. eigenvalues --   -0.23416  -0.21571  -0.18848  -0.16010  -0.15992
 Alpha  occ. eigenvalues --   -0.14460  -0.11616   0.04026
 Alpha virt. eigenvalues --    0.05198   0.06224   0.06407   0.07165   0.07452
 Alpha virt. eigenvalues --    0.07626   0.07875   0.08317   0.09199   0.09288
 Alpha virt. eigenvalues --    0.10535   0.11198   0.11560   0.11717   0.12180

  Beta  occ. eigenvalues --  -14.25582 -14.22505 -14.20649 -14.20290 -10.18150
  Beta  occ. eigenvalues --  -10.15836 -10.13235 -10.11959 -10.08960 -10.08842
  Beta  occ. eigenvalues --  -10.08503 -10.08376 -10.07677 -10.07604 -10.07395
  Beta  occ. eigenvalues --  -10.07076  -0.91482  -0.85599  -0.82238  -0.77348
  Beta  occ. eigenvalues --   -0.75910  -0.70132  -0.67677  -0.64968  -0.63568
  Beta  occ. eigenvalues --   -0.56798  -0.55826  -0.54670  -0.51034  -0.49680
  Beta  occ. eigenvalues --   -0.46200  -0.44988  -0.42172  -0.40471  -0.39200
  Beta  occ. eigenvalues --   -0.37493  -0.37063  -0.35983  -0.35535  -0.34953
  Beta  occ. eigenvalues --   -0.33647  -0.33025  -0.31309  -0.31123  -0.29842
  Beta  occ. eigenvalues --   -0.28647  -0.27556  -0.25932  -0.25605  -0.24621
  Beta  occ. eigenvalues --   -0.23346  -0.21534  -0.18788  -0.15971  -0.15911
  Beta  occ. eigenvalues --   -0.14361  -0.11564
  Beta virt. eigenvalues --    0.05652   0.06408   0.06479   0.07154   0.07377
  Beta virt. eigenvalues --    0.07842   0.07994   0.08241   0.08469   0.09551
  Beta virt. eigenvalues --    0.09959   0.10914   0.11270   0.11780   0.11971

 Mulliken charges and spin densities:
               1          2
     1  C    0.118186  -0.760697
     2  C   -0.142436  -0.149624
     3  C    0.453416   0.715104
     4  C   -0.008021  -0.225541
     5  C    0.755378  -1.092675
     6  C   -0.101195  -0.006524
     7  C    0.054441  -0.503986
     8  C   -1.082348   0.491210
     9  N   -0.035155  -0.108807
    10  C    0.086176  -0.569338
    11  N   -0.139251   0.018213
    12  C    0.067529  -0.048220
    13  C    0.399174  -0.532660
    14  C    0.359275  -0.280687
    15  N   -0.114667  -0.029160
    16  N   -0.372325   0.099420
    17  H    0.050640   0.088884
    18  H   -0.137925   0.258220
    19  H    0.029771   0.103325
    20  H   -0.005590   0.144775
    21  H   -0.168301   0.319731
    22  H    0.350081   0.027756
    23  H   -0.081362   0.196951
    24  H    0.019306   0.140121
    25  H   -0.085800   0.221170
    26  H    0.335998  -0.016452
    27  H   -0.006958   0.163844
    28  H   -0.703794   0.898851
    29  H   -0.169780   0.432953
    30  H   -0.724463   1.003843
 Sum of Mulliken charges =  -1.00000   1.00000

 Dipole moment (field-independent basis, Debye):
    X=              8.7861    Y=             -2.0811    Z=             -1.1028  Tot=              9.0963
 Quadrupole moment (field-independent basis, Debye-Ang):
   XX=           -237.8317   YY=           -127.9693   ZZ=           -119.0355
   XY=             -1.4012   XZ=              8.7185   YZ=             -0.9047

 Summary of Natural Population Analysis:

                                       Natural Population
                Natural  -----------------------------------------------
    Atom  No    Charge         Core      Valence    Rydberg      Total
 -----------------------------------------------------------------------
      C    1   -0.27950      0.99966     2.27562    0.00422     3.27950
      C    2   -0.19759      0.99961     2.18892    0.00906     3.19759
      C    3   -0.00265      0.99952     1.99269    0.01044     3.00265
      C    4   -0.12266      0.99947     2.11549    0.00770     3.12266
      C    5    0.08954      0.99948     1.90097    0.01001     2.91046
      C    6   -0.12057      0.99953     2.11220    0.00884     3.12057
      C    7   -0.09563      0.99957     2.08620    0.00986     3.09563
      C    8   -0.12127      0.99951     2.11162    0.01014     3.12127
      N    9   -0.28834      0.99962     2.78037    0.00834     3.78834
      C   10    0.30719      0.99960     1.67569    0.01752     2.69281
      N   11   -0.29316      0.99967     2.78259    0.01089     3.79316
      C   12    0.05546      0.99959     1.93092    0.01404     2.94454
      C   13   -0.17977      0.99951     2.17044    0.00982     3.17977
      C   14    0.22296      0.99956     1.76203    0.01545     2.77704
      N   15   -0.29359      0.99964     2.78415    0.00980     3.79359
      N   16   -0.38175      0.99970     2.87195    0.01009     3.88175
      H   17    0.09931      0.00000     0.39949    0.00120     0.40069
      H   18    0.09645      0.00000     0.40227    0.00127     0.40355
      H   19    0.09613      0.00000     0.40264    0.00122     0.40387
      H   20    0.10047      0.00000     0.39841    0.00112     0.39953
      H   21    0.09801      0.00000     0.40074    0.00125     0.40199
      H   22    0.12368      0.00000     0.37476    0.00155     0.37632
      H   23    0.09745      0.00000     0.40159    0.00095     0.40255
      H   24    0.09862      0.00000     0.40057    0.00081     0.40138
      H   25    0.09873      0.00000     0.40030    0.00097     0.40127
      H   26    0.19727      0.00000     0.30016    0.00257     0.30273
      H   27    0.08981      0.00000     0.40915    0.00104     0.41019
      H   28    0.11131      0.00000     0.38703    0.00166     0.38869
      H   29    0.19467      0.00000     0.30123    0.00410     0.30533
      H   30    0.19942      0.00000     0.27582    0.02476     0.30058
 =======================================================================
   * Total *    0.00000     15.99326    40.79604    0.21070    57.00000

 Normal termination of Gaussian 16 at Fri Dec 11 00:15:36 2020.
