 Gaussian 16, Revision A.03,

 -----------------------------------------------------------
 # opt freq B3LYP/6-31G(d) empiricaldispersion=gd3bj scf=xqc
 -----------------------------------------------------------

 ----------------------------
 CID_11263531_JID_71_neutraal
 ----------------------------
 Symbolic Z-matrix:
 Charge =  0 Multiplicity = 1

 SCF Done:  E(RB3LYP) =  -462.504547695     A.U. after   15 cycles
 SCF Done:  E(RB3LYP) =  -462.508357435     A.U. after   12 cycles
 SCF Done:  E(RB3LYP) =  -462.508445725     A.U. after   12 cycles
 SCF Done:  E(RB3LYP) =  -462.508914131     A.U. after   11 cycles
 SCF Done:  E(RB3LYP) =  -462.508985879     A.U. after   10 cycles
 SCF Done:  E(RB3LYP) =  -462.509010325     A.U. after   11 cycles
 SCF Done:  E(RB3LYP) =  -462.509019175     A.U. after   10 cycles
 SCF Done:  E(RB3LYP) =  -462.509028365     A.U. after   11 cycles
 SCF Done:  E(RB3LYP) =  -462.509035779     A.U. after   11 cycles
 SCF Done:  E(RB3LYP) =  -462.509039188     A.U. after   10 cycles
 SCF Done:  E(RB3LYP) =  -462.509042710     A.U. after   10 cycles
 SCF Done:  E(RB3LYP) =  -462.509043780     A.U. after    9 cycles
 SCF Done:  E(RB3LYP) =  -462.509044137     A.U. after    8 cycles
 Optimization completed.
    -- Stationary point found.

 1\1\GINC-NODE314\FOpt\RB3LYP\6-31G(d)\C8H12O2\VSC10255\08-Dec-2020\0\\
 # opt freq B3LYP/6-31G(d) empiricaldispersion=gd3bj scf=xqc\\CID_11263
 531_JID_71_neutraal\\0,1\C,-1.9304977169,0.4475349451,0.5278284219\C,-
 0.7511974653,1.3196888717,1.01723774\C,0.0846357417,1.853636668,-0.115
 0186905\C,1.2332355872,1.3233064183,-0.5431171251\C,1.92765669,0.13785
 88926,0.0733819631\O,2.9110809919,0.3050635705,0.7736741343\C,1.424259
 2602,-1.2718413747,-0.2209935541\C,0.3153413199,-1.7832982417,0.744702
 4517\O,-0.9923255838,-1.8544310701,0.2063554933\C,-1.5572103401,-0.704

 Normal termination of Gaussian 16 at Tue Dec  8 10:16:59 2020.

 --------------------------------------------------------------------
 #N Geom=AllCheck Guess=TCheck SCRF=Check GenChk RB3LYP/6-31G(d) Freq
 --------------------------------------------------------------------

 Structure from the checkpoint file:  "JID_71.chk"
 ----------------------------
 CID_11263531_JID_71_neutraal
 ----------------------------
 Charge =  0 Multiplicity = 1

 SCF Done:  E(RB3LYP) =  -462.509044137     A.U. after    1 cycles

  Exact polarizability:  96.454   7.872  86.984  -1.241   2.426  69.913
 Approx polarizability: 141.652  13.434 118.935   1.445   2.817 108.843

                      1                      2                      3
                      A                      A                      A
 Frequencies --     38.1859               109.0855               161.0556
 Red. masses --      5.7414                 3.4021                 3.1409
 Frc consts  --      0.0049                 0.0239                 0.0480
 IR Inten    --      4.6896                 4.8708                 3.7199

                      4                      5                      6
                      A                      A                      A
 Frequencies --    209.0357               221.6649               274.6003
 Red. masses --      3.2030                 3.4431                 2.6635
 Frc consts  --      0.0825                 0.0997                 0.1183
 IR Inten    --      0.3592                 2.4997                 0.2037

                      7                      8                      9
                      A                      A                      A
 Frequencies --    318.3951               367.2129               427.8968
 Red. masses --      2.3365                 1.9653                 3.7365
 Frc consts  --      0.1396                 0.1561                 0.4031
 IR Inten    --      0.9315                 2.1342                 8.5029

                     10                     11                     12
                      A                      A                      A
 Frequencies --    473.7929               486.5037               537.7022
 Red. masses --      2.5160                 2.1828                 2.5565
 Frc consts  --      0.3328                 0.3044                 0.4355
 IR Inten    --      4.6309                 9.1680                 2.2774

                     13                     14                     15
                      A                      A                      A
 Frequencies --    586.2357               654.6942               737.2254
 Red. masses --      2.4262                 3.2498                 1.8921
 Frc consts  --      0.4913                 0.8207                 0.6059
 IR Inten    --      0.4849                 2.7842                19.4374

                     16                     17                     18
                      A                      A                      A
 Frequencies --    786.2660               814.1460               858.2021
 Red. masses --      2.1220                 2.7731                 2.3168
 Frc consts  --      0.7729                 1.0830                 1.0054
 IR Inten    --      7.1897                16.4309                 4.9215

                     19                     20                     21
                      A                      A                      A
 Frequencies --    874.2279               934.1886               975.9147
 Red. masses --      2.7047                 2.0332                 2.0204
 Frc consts  --      1.2179                 1.0455                 1.1337
 IR Inten    --      2.3205                 3.7125                15.8429

                     22                     23                     24
                      A                      A                      A
 Frequencies --    987.5838               989.8184              1040.2811
 Red. masses --      3.1913                 1.3334                 2.1235
 Frc consts  --      1.8339                 0.7697                 1.3540
 IR Inten    --     15.6258                 1.9275                25.9319

                     25                     26                     27
                      A                      A                      A
 Frequencies --   1059.7621              1077.6024              1104.7020
 Red. masses --      2.1362                 1.8604                 2.5608
 Frc consts  --      1.4135                 1.2729                 1.8413
 IR Inten    --     12.6384                 1.4853                 4.8013

                     28                     29                     30
                      A                      A                      A
 Frequencies --   1121.8535              1177.6668              1207.5262
 Red. masses --      2.0770                 2.0378                 1.4529
 Frc consts  --      1.5401                 1.6652                 1.2482
 IR Inten    --     10.2589                95.5682                40.3870

                     31                     32                     33
                      A                      A                      A
 Frequencies --   1257.6249              1262.3011              1281.0926
 Red. masses --      1.4311                 1.3198                 1.2776
 Frc consts  --      1.3336                 1.2390                 1.2354
 IR Inten    --     38.4736                12.7702                11.1257

                     34                     35                     36
                      A                      A                      A
 Frequencies --   1319.7075              1342.4364              1360.5044
 Red. masses --      1.2267                 1.3360                 1.1579
 Frc consts  --      1.2587                 1.4186                 1.2628
 IR Inten    --     12.3255                17.2089                 3.1126

                     37                     38                     39
                      A                      A                      A
 Frequencies --   1366.0439              1399.8251              1421.3112
 Red. masses --      1.2767                 1.3638                 1.2491
 Frc consts  --      1.4036                 1.5745                 1.4868
 IR Inten    --      9.0656                 4.6182                19.4721

                     40                     41                     42
                      A                      A                      A
 Frequencies --   1432.4395              1447.3214              1495.3632
 Red. masses --      1.4687                 1.2925                 1.0959
 Frc consts  --      1.7755                 1.5952                 1.4438
 IR Inten    --      7.8929                 9.3042                15.8517

                     43                     44                     45
                      A                      A                      A
 Frequencies --   1500.8985              1526.3716              1532.2540
 Red. masses --      1.0890                 1.0969                 1.0890
 Frc consts  --      1.4454                 1.5057                 1.5064
 IR Inten    --      1.9171                 1.7113                 8.1848

                     46                     47                     48
                      A                      A                      A
 Frequencies --   1555.3565              1723.6929              1787.6661
 Red. masses --      1.0855                 7.2858                11.3805
 Frc consts  --      1.5472                12.7540                21.4282
 IR Inten    --      5.8565                 4.7766               161.6653

                     49                     50                     51
                      A                      A                      A
 Frequencies --   3030.6397              3034.0357              3037.8397
 Red. masses --      1.0657                 1.0687                 1.0675
 Frc consts  --      5.7669                 5.7965                 5.8043
 IR Inten    --     52.4130                30.9386                 8.7195

                     52                     53                     54
                      A                      A                      A
 Frequencies --   3057.8989              3071.8823              3087.2132
 Red. masses --      1.0690                 1.0594                 1.0977
 Frc consts  --      5.8892                 5.8901                 6.1639
 IR Inten    --     31.6040                 7.6408                25.0767

                     55                     56                     57
                      A                      A                      A
 Frequencies --   3101.8049              3106.9231              3117.5033
 Red. masses --      1.0971                 1.0958                 1.0941
 Frc consts  --      6.2191                 6.2323                 6.2649
 IR Inten    --     45.3224                34.2592                17.5916

                     58                     59                     60
                      A                      A                      A
 Frequencies --   3125.9029              3148.0902              3169.8779
 Red. masses --      1.1032                 1.0842                 1.0947
 Frc consts  --      6.3511                 6.3310                 6.4810
 IR Inten    --     18.7351                17.7394                16.0114

 - Thermochemistry -
 -------------------
 Temperature   298.150 Kelvin.  Pressure   1.00000 Atm.
 Atom     1 has atomic number  6 and mass  12.00000

 Molecular mass:   140.08373 amu.
 Principal axes and moments of inertia in atomic units:
                           1         2         3
     Eigenvalues --  1010.504901422.740562077.75268
           X            0.99752   0.06931  -0.01266
           Y           -0.06930   0.99760   0.00092
           Z            0.01269  -0.00004   0.99992
 This molecule is an asymmetric top.
 Rotational symmetry number  1.
 Warning -- assumption of classical behavior for rotation
           may cause significant error
 Rotational temperatures (Kelvin)      0.08571     0.06088     0.04169
 Rotational constants (GHZ):           1.78598     1.26850     0.86860
 Zero-point vibrational energy     500726.0 (Joules/Mol)
                                  119.67639 (Kcal/Mol)
 Warning -- explicit consideration of  13 degrees of freedom as
           vibrations may cause significant error
 Vibrational temperatures:     54.94   156.95   231.72   300.76   318.93
          (Kelvin)            395.09   458.10   528.34   615.65   681.68
                              699.97   773.63   843.46   941.96  1060.70
                             1131.26  1171.37  1234.76  1257.82  1344.09
                             1404.12  1420.91  1424.13  1496.73  1524.76
                             1550.43  1589.42  1614.10  1694.40  1737.36
                             1809.44  1816.17  1843.21  1898.76  1931.47
                             1957.46  1965.43  2014.04  2044.95  2060.96
                             2082.37  2151.49  2159.46  2196.11  2204.57
                             2237.81  2480.01  2572.05  4360.41  4365.30
                             4370.77  4399.63  4419.75  4441.81  4462.81
                             4470.17  4485.39  4497.48  4529.40  4560.75

 Zero-point correction=                           0.190716 (Hartree/Particle)
 Thermal correction to Energy=                    0.200118
 Thermal correction to Enthalpy=                  0.201063
 Thermal correction to Gibbs Free Energy=         0.155830
 Sum of electronic and zero-point Energies=           -462.318328
 Sum of electronic and thermal Energies=              -462.308926
 Sum of electronic and thermal Enthalpies=            -462.307982
 Sum of electronic and thermal Free Energies=         -462.353215

                     E (Thermal)             CV                S
                      KCal/Mol        Cal/Mol-Kelvin    Cal/Mol-Kelvin
 Total                  125.576             35.958             95.201
 Electronic               0.000              0.000              0.000
 Translational            0.889              2.981             40.723
 Rotational               0.889              2.981             29.481
 Vibrational            123.799             29.996             24.997
 Vibration     1          0.594              1.982              5.351
 Vibration     2          0.606              1.942              3.285
 Vibration     3          0.622              1.890              2.537
 Vibration     4          0.642              1.827              2.052
 Vibration     5          0.648              1.808              1.945
 Vibration     6          0.677              1.720              1.567
 Vibration     7          0.705              1.638              1.318
 Vibration     8          0.740              1.540              1.091
 Vibration     9          0.789              1.410              0.866
 Vibration    10          0.831              1.308              0.727
 Vibration    11          0.843              1.280              0.693
 Vibration    12          0.893              1.167              0.570
 Vibration    13          0.943              1.061              0.474

                           ! Non-Optimized Parameters !

 1\1\GINC-NODE314\Freq\RB3LYP\6-31G(d)\C8H12O2\VSC10255\08-Dec-2020\0\\
 #N Geom=AllCheck Guess=TCheck SCRF=Check GenChk RB3LYP/6-31G(d) Freq\\
 CID_11263531_JID_71_neutraal\\0,1\C,-1.9304977169,0.4475349451,0.52782
 84219\C,-0.7511974653,1.3196888717,1.01723774\C,0.0846357417,1.8536366
 68,-0.1150186905\C,1.2332355872,1.3233064183,-0.5431171251\C,1.9276566
 9,0.1378588926,0.0733819631\O,2.9110809919,0.3050635705,0.7736741343\C
 ,1.4242592602,-1.2718413747,-0.2209935541\C,0.3153413199,-1.7832982417
 ,0.7447024517\O,-0.9923255838,-1.8544310701,0.2063554933\C,-1.55721034

 Normal termination of Gaussian 16 at Tue Dec  8 10:21:02 2020.

 ----------------------------------------------------------------------
 # B3LYP/6-311++G(d,p) empiricaldispersion=gd3bj scf=xqc pop=npa geom=c
 heck
 ----------------------------------------------------------------------

 ------------------------------------
 CID_11263531_JID_71_Energie_neutraal
 ------------------------------------
 Structure from the checkpoint file:  "JID_71.chk"
 Charge =  0 Multiplicity = 1

 SCF Done:  E(RB3LYP) =  -462.644946059     A.U. after   14 cycles
 Normal termination of Gaussian 16 at Tue Dec  8 10:22:23 2020.

 ----------------------------------------------------------------------
 # B3LYP/6-311++G(d,p) empiricaldispersion=gd3bj scf=xqc pop=npa geom=c
 heck
 ----------------------------------------------------------------------

 ----------------------------------
 CID_11263531_JID_71_Energie_kation
 ----------------------------------
 Structure from the checkpoint file:  "JID_71.chk"
 Charge =  1 Multiplicity = 2

 SCF Done:  E(UB3LYP) =  -462.316142611     A.U. after   21 cycles
 Normal termination of Gaussian 16 at Tue Dec  8 10:25:01 2020.
 Gaussian 16:  ES64L-G16RevA.03 25-Dec-2016

 ---------------------------------
 CID_11263531_JID_71_Energie_anion
 ---------------------------------
 Structure from the checkpoint file:  "JID_71.chk"
 Charge = -1 Multiplicity = 2

                         Standard orientation:
 ---------------------------------------------------------------------
 Center     Atomic      Atomic             Coordinates (Angstroms)
 Number     Number       Type             X           Y           Z
 ---------------------------------------------------------------------
      1          6           0        2.040392    0.825573   -0.290563
      2          6           0        0.750132    1.499811   -0.811672
      3          6           0       -0.177032    1.914812    0.299122
      4          6           0       -1.238149    1.220593    0.718515
      5          6           0       -1.732171   -0.065659    0.110999
      6          8           0       -2.717343   -0.060838   -0.606568
      7          6           0       -1.024094   -1.377339    0.435720
      8          6           0        0.166573   -1.725963   -0.504829
      9          8           0        1.460212   -1.588373    0.054131
     10          6           0        1.831716   -0.357129    0.658446
     11          1           0        2.654570    0.500962   -1.139073
     12          1           0        2.627528    1.575791    0.257383
     13          1           0        0.227628    0.835579   -1.505364
     14          1           0        1.033720    2.384183   -1.395696
     15          1           0        0.060249    2.851098    0.804028
     16          1           0       -1.867431    1.611648    1.517420
     17          1           0       -1.784050   -2.156335    0.323053
     18          1           0       -0.672091   -1.391178    1.472945
     19          1           0        0.073199   -1.174958   -1.450399
     20          1           0        0.103099   -2.788144   -0.755328
     21          1           0        1.115058   -0.077873    1.443789
     22          1           0        2.781352   -0.585290    1.152307
 ---------------------------------------------------------------------

 SCF Done:  E(UB3LYP) =  -462.638066068     A.U. after   30 cycles

 The electronic state is 2-A.
 Alpha  occ. eigenvalues --  -19.00877 -18.96229 -10.10485 -10.10402 -10.09786
 Alpha  occ. eigenvalues --  -10.05420 -10.05301 -10.05232 -10.04715 -10.04187
 Alpha  occ. eigenvalues --   -0.91940  -0.89834  -0.69253  -0.66332  -0.61996
 Alpha  occ. eigenvalues --   -0.58885  -0.51394  -0.48897  -0.44506  -0.39180
 Alpha  occ. eigenvalues --   -0.38740  -0.37461  -0.34838  -0.33207  -0.31641
 Alpha  occ. eigenvalues --   -0.31323  -0.30238  -0.27969  -0.26638  -0.25875
 Alpha  occ. eigenvalues --   -0.24275  -0.23695  -0.22829  -0.21413  -0.18980
 Alpha  occ. eigenvalues --   -0.14780  -0.13527  -0.10914   0.04948
 Alpha virt. eigenvalues --    0.07792   0.08532   0.08900   0.09554   0.10608
 Alpha virt. eigenvalues --    0.10950   0.11706   0.12493   0.12793   0.13313
 Alpha virt. eigenvalues --    0.13682   0.15230   0.16506   0.17333   0.17447

  Beta  occ. eigenvalues --  -19.00871 -18.95940 -10.10434 -10.10111 -10.09772
  Beta  occ. eigenvalues --  -10.05386 -10.05291 -10.05254 -10.04632 -10.04172
  Beta  occ. eigenvalues --   -0.91926  -0.89270  -0.69135  -0.66147  -0.61890
  Beta  occ. eigenvalues --   -0.58699  -0.51317  -0.48535  -0.44329  -0.39096
  Beta  occ. eigenvalues --   -0.38472  -0.37285  -0.34702  -0.32996  -0.31514
  Beta  occ. eigenvalues --   -0.31146  -0.29992  -0.27850  -0.26501  -0.25767
  Beta  occ. eigenvalues --   -0.23845  -0.23266  -0.22717  -0.20807  -0.18734
  Beta  occ. eigenvalues --   -0.14686  -0.13278  -0.10656
  Beta virt. eigenvalues --    0.07847   0.08791   0.09190   0.09573   0.10948
  Beta virt. eigenvalues --    0.11162   0.11398   0.12135   0.12536   0.12988
  Beta virt. eigenvalues --    0.13807   0.14348   0.15326   0.16519   0.17317

 Mulliken charges and spin densities:
               1          2
     1  C    0.947600  -1.346558
     2  C   -0.101957  -0.012731
     3  C   -0.370019   0.444131
     4  C    0.791296  -1.028808
     5  C   -0.242030   0.171143
     6  O   -0.319736   0.115152
     7  C   -0.071085  -0.058111
     8  C   -0.023041  -0.325956
     9  O   -0.146175   0.022820
    10  C   -0.029136  -0.304134
    11  H   -0.098713   0.259704
    12  H   -0.354345   0.488329
    13  H   -0.010002   0.134740
    14  H   -0.170929   0.350997
    15  H   -0.787631   0.959580
    16  H   -0.049269   0.232430
    17  H    0.051837   0.113914
    18  H    0.066215   0.084832
    19  H    0.152301  -0.012228
    20  H   -0.166911   0.347728
    21  H    0.116504  -0.002424
    22  H   -0.184774   0.365451
 Sum of Mulliken charges =  -1.00000   1.00000

 Dipole moment (field-independent basis, Debye):
    X=              0.3989    Y=             -3.2199    Z=             -0.0700  Tot=              3.2453
 Quadrupole moment (field-independent basis, Debye-Ang):
   XX=           -107.5171   YY=           -101.6848   ZZ=            -79.8874
   XY=             -1.9979   XZ=             -3.7167   YZ=             -4.0637

 Summary of Natural Population Analysis:

                                       Natural Population
                Natural  -----------------------------------------------
    Atom  No    Charge         Core      Valence    Rydberg      Total
 -----------------------------------------------------------------------
      C    1   -0.20005      0.99962     2.19170    0.00873     3.20005
      C    2   -0.21293      0.99961     2.20321    0.01011     3.21293
      C    3   -0.07845      0.99952     2.06727    0.01165     3.07845
      C    4   -0.13299      0.99947     2.12194    0.01158     3.13299
      C    5    0.30862      0.99965     1.67096    0.02077     2.69138
      O    6   -0.26755      0.99988     3.26128    0.00639     4.26755
      C    7   -0.25287      0.99958     2.24515    0.00814     3.25287
      C    8   -0.00015      0.99957     1.98781    0.01277     3.00015
      O    9   -0.30373      0.99988     3.29404    0.00981     4.30373
      C   10   -0.01279      0.99956     1.99986    0.01338     3.01279
      H   11    0.09789      0.00000     0.40083    0.00127     0.40211
      H   12    0.10016      0.00000     0.39771    0.00214     0.39984
      H   13    0.09875      0.00000     0.39971    0.00154     0.40125
      H   14    0.10385      0.00000     0.39480    0.00135     0.39615
      H   15    0.09477      0.00000     0.40290    0.00234     0.40523
      H   16    0.10519      0.00000     0.39328    0.00153     0.39481
      H   17    0.10882      0.00000     0.38973    0.00146     0.39118
      H   18    0.10451      0.00000     0.39427    0.00122     0.39549
      H   19    0.07761      0.00000     0.42098    0.00142     0.42239
      H   20    0.08888      0.00000     0.40973    0.00140     0.41112
      H   21    0.08424      0.00000     0.41422    0.00154     0.41576
      H   22    0.08822      0.00000     0.41042    0.00136     0.41178
 =======================================================================
   * Total *   -0.00000      9.99634    27.87177    0.13189    38.00000

 Normal termination of Gaussian 16 at Tue Dec  8 10:28:41 2020.
