 Gaussian 16, Revision A.03,

 -----------------------------------------------------------
 # opt freq B3LYP/6-31G(d) empiricaldispersion=gd3bj scf=xqc
 -----------------------------------------------------------

 ------------------------------
 CID_66881215_JID_2976_neutraal
 ------------------------------
 Symbolic Z-matrix:
 Charge =  0 Multiplicity = 1

 SCF Done:  E(RB3LYP) =  -908.607524619     A.U. after   15 cycles
 SCF Done:  E(RB3LYP) =  -908.611860188     A.U. after   15 cycles
 SCF Done:  E(RB3LYP) =  -908.609484937     A.U. after   13 cycles
 SCF Done:  E(RB3LYP) =  -908.611940712     A.U. after   13 cycles
 SCF Done:  E(RB3LYP) =  -908.613201331     A.U. after   15 cycles
 SCF Done:  E(RB3LYP) =  -908.613629917     A.U. after   12 cycles
 SCF Done:  E(RB3LYP) =  -908.613687707     A.U. after   11 cycles
 SCF Done:  E(RB3LYP) =  -908.613697768     A.U. after   10 cycles
 SCF Done:  E(RB3LYP) =  -908.613700797     A.U. after   10 cycles
 SCF Done:  E(RB3LYP) =  -908.613702911     A.U. after   10 cycles
 SCF Done:  E(RB3LYP) =  -908.613704078     A.U. after    9 cycles
 SCF Done:  E(RB3LYP) =  -908.613704267     A.U. after    8 cycles
 SCF Done:  E(RB3LYP) =  -908.613704308     A.U. after    7 cycles
 Optimization completed.
    -- Stationary point found.
 Normal termination of Gaussian 16 at Wed Dec  9 18:18:21 2020.

 --------------------------------------------------------------------
 #N Geom=AllCheck Guess=TCheck SCRF=Check GenChk RB3LYP/6-31G(d) Freq
 --------------------------------------------------------------------

 Structure from the checkpoint file:  "JID_2976.chk"
 ------------------------------
 CID_66881215_JID_2976_neutraal
 ------------------------------
 Charge =  0 Multiplicity = 1

 SCF Done:  E(RB3LYP) =  -908.613704308     A.U. after    1 cycles

  Exact polarizability: 127.532 -11.634 112.075  -0.571  -5.426  67.589
 Approx polarizability: 179.359 -14.361 192.157  -2.221 -17.438 119.878

                      1                      2                      3
                      A                      A                      A
 Frequencies --     27.4939                55.5711                84.4984
 Red. masses --      6.2070                 4.9757                 5.3650
 Frc consts  --      0.0028                 0.0091                 0.0226
 IR Inten    --      1.0032                 2.8910                 1.3505

                      4                      5                      6
                      A                      A                      A
 Frequencies --    126.2966               162.5304               230.6365
 Red. masses --      8.3508                 4.6814                 7.2369
 Frc consts  --      0.0785                 0.0729                 0.2268
 IR Inten    --      1.8947                 2.8980                 2.8874

                      7                      8                      9
                      A                      A                      A
 Frequencies --    289.7524               325.8756               404.0070
 Red. masses --      5.4708                 2.3710                 6.9043
 Frc consts  --      0.2706                 0.1483                 0.6640
 IR Inten    --      3.5314                 3.5568                 1.9753

                     10                     11                     12
                      A                      A                      A
 Frequencies --    498.9684               508.7924               613.6002
 Red. masses --     10.8445                 1.6685                 3.8855
 Frc consts  --      1.5908                 0.2545                 0.8619
 IR Inten    --      2.6980                62.4926                 0.0647

                     13                     14                     15
                      A                      A                      A
 Frequencies --    620.9816               685.2323               698.5425
 Red. masses --      4.0464                 2.7534                 3.8105
 Frc consts  --      0.9193                 0.7617                 1.0955
 IR Inten    --      4.0998                 5.3507                22.5297

                     16                     17                     18
                      A                      A                      A
 Frequencies --    703.7026               716.1930               734.3401
 Red. masses --      4.3019                 3.1726                 1.5659
 Frc consts  --      1.2551                 0.9588                 0.4975
 IR Inten    --     64.5143                31.1825                17.2264

                     19                     20                     21
                      A                      A                      A
 Frequencies --    822.5530               851.8218               875.7196
 Red. masses --      1.3756                 1.3041                 1.3986
 Frc consts  --      0.5484                 0.5575                 0.6320
 IR Inten    --      8.8131                 6.5537                16.2638

                     22                     23                     24
                      A                      A                      A
 Frequencies --    887.0796               935.1080               946.7781
 Red. masses --      1.7950                 8.0182                 4.8205
 Frc consts  --      0.8322                 4.1309                 2.5459
 IR Inten    --      7.4076                12.7545                 3.4383

                     25                     26                     27
                      A                      A                      A
 Frequencies --    956.2704              1027.4495              1068.9315
 Red. masses --      5.6489                 2.5783                 2.5080
 Frc consts  --      3.0435                 1.6036                 1.6884
 IR Inten    --     16.0711                34.0737                24.6297

                     28                     29                     30
                      A                      A                      A
 Frequencies --   1096.1325              1140.0510              1166.0401
 Red. masses --      3.8739                 2.3926                 1.6331
 Frc consts  --      2.7424                 1.8322                 1.3082
 IR Inten    --     14.7898                29.5699                 7.9458

                     31                     32                     33
                      A                      A                      A
 Frequencies --   1167.6375              1192.1210              1204.5555
 Red. masses --      1.7239                 1.6336                 3.3484
 Frc consts  --      1.3848                 1.3678                 2.8625
 IR Inten    --      8.2754                16.5070                54.5181

                     34                     35                     36
                      A                      A                      A
 Frequencies --   1256.5455              1297.5817              1339.2511
 Red. masses --      1.5621                 1.2200                 2.0690
 Frc consts  --      1.4532                 1.2103                 2.1864
 IR Inten    --      1.2057                29.3397                13.3988

                     37                     38                     39
                      A                      A                      A
 Frequencies --   1362.2083              1406.2778              1437.5234
 Red. masses --      2.1941                 4.4682                 4.0886
 Frc consts  --      2.3988                 5.2063                 4.9780
 IR Inten    --     58.6719                 3.9425                 7.6533

                     40                     41                     42
                      A                      A                      A
 Frequencies --   1485.3386              1511.3641              1527.6521
 Red. masses --      1.1779                 2.3060                 6.5924
 Frc consts  --      1.5312                 3.1035                 9.0645
 IR Inten    --     11.5567                15.7593                82.4165

                     43                     44                     45
                      A                      A                      A
 Frequencies --   1586.2595              1618.2470              3098.6636
 Red. masses --      4.8346                 4.2988                 1.0612
 Frc consts  --      7.1674                 6.6326                 6.0031
 IR Inten    --      6.2989                11.5304                10.8840

                     46                     47                     48
                      A                      A                      A
 Frequencies --   3159.4469              3251.4612              3279.8930
 Red. masses --      1.1055                 1.0960                 1.0938
 Frc consts  --      6.5020                 6.8270                 6.9328
 IR Inten    --      0.6242                 5.7540                 6.4622

                     49                     50                     51
                      A                      A                      A
 Frequencies --   3304.7985              3325.8679              3669.4609
 Red. masses --      1.0985                 1.1054                 1.0816
 Frc consts  --      7.0686                 7.2040                 8.5811
 IR Inten    --      1.7822                 0.6655                73.1615

 - Thermochemistry -
 -------------------
 Temperature   298.150 Kelvin.  Pressure   1.00000 Atm.
 Atom     1 has atomic number  6 and mass  12.00000

 Molecular mass:   181.03098 amu.
 Principal axes and moments of inertia in atomic units:
                           1         2         3
     Eigenvalues --  1085.072033469.504234137.87160
           X            0.99987  -0.01592  -0.00168
           Y            0.01594   0.99982   0.01007
           Z            0.00152  -0.01009   0.99995
 This molecule is an asymmetric top.
 Rotational symmetry number  1.
 Warning -- assumption of classical behavior for rotation
           may cause significant error
 Rotational temperatures (Kelvin)      0.07982     0.02496     0.02093
 Rotational constants (GHZ):           1.66325     0.52017     0.43615
 Zero-point vibrational energy     369305.8 (Joules/Mol)
                                   88.26620 (Kcal/Mol)
 Warning -- explicit consideration of  12 degrees of freedom as
           vibrations may cause significant error
 Vibrational temperatures:     39.56    79.95   121.57   181.71   233.85
          (Kelvin)            331.83   416.89   468.86   581.28   717.90
                              732.04   882.83   893.45   985.90  1005.05
                             1012.47  1030.44  1056.55  1183.47  1225.58
                             1259.97  1276.31  1345.41  1362.20  1375.86
                             1478.27  1537.95  1577.09  1640.28  1677.67
                             1679.97  1715.20  1733.09  1807.89  1866.93
                             1926.88  1959.91  2023.32  2068.28  2137.07
                             2174.52  2197.95  2282.27  2328.30  4458.29
                             4545.74  4678.13  4719.03  4754.87  4785.18
                             5279.54

 Zero-point correction=                           0.140661 (Hartree/Particle)
 Thermal correction to Energy=                    0.150852
 Thermal correction to Enthalpy=                  0.151797
 Thermal correction to Gibbs Free Energy=         0.102680
 Sum of electronic and zero-point Energies=           -908.473043
 Sum of electronic and thermal Energies=              -908.462852
 Sum of electronic and thermal Enthalpies=            -908.461908
 Sum of electronic and thermal Free Energies=         -908.511025

                     E (Thermal)             CV                S
                      KCal/Mol        Cal/Mol-Kelvin    Cal/Mol-Kelvin
 Total                   94.661             37.518            103.375
 Electronic               0.000              0.000              0.000
 Translational            0.889              2.981             41.487
 Rotational               0.889              2.981             31.122
 Vibrational             92.884             31.556             30.766
 Vibration     1          0.593              1.984              6.002
 Vibration     2          0.596              1.975              4.609
 Vibration     3          0.601              1.960              3.784
 Vibration     4          0.611              1.927              3.002
 Vibration     5          0.623              1.888              2.520
 Vibration     6          0.652              1.794              1.874
 Vibration     7          0.686              1.693              1.475
 Vibration     8          0.710              1.624              1.280
 Vibration     9          0.769              1.461              0.948
 Vibration    10          0.854              1.252              0.661
 Vibration    11          0.864              1.231              0.637
 Vibration    12          0.973              1.003              0.427

 Optimization completed.
    -- Stationary point found.
 Normal termination of Gaussian 16 at Wed Dec  9 18:22:19 2020.

 ----------------------------------------------------------------------
 # B3LYP/6-311++G(d,p) empiricaldispersion=gd3bj scf=xqc pop=npa geom=c
 heck
 ----------------------------------------------------------------------

 --------------------------------------
 CID_66881215_JID_2976_Energie_neutraal
 --------------------------------------
 Structure from the checkpoint file:  "JID_2976.chk"
 Charge =  0 Multiplicity = 1

 SCF Done:  E(RB3LYP) =  -908.781850713     A.U. after   15 cycles
 Normal termination of Gaussian 16 at Wed Dec  9 18:24:08 2020.

 ----------------------------------------------------------------------
 # B3LYP/6-311++G(d,p) empiricaldispersion=gd3bj scf=xqc pop=npa geom=c
 heck
 ----------------------------------------------------------------------

 ------------------------------------
 CID_66881215_JID_2976_Energie_kation
 ------------------------------------
 Structure from the checkpoint file:  "JID_2976.chk"
 Charge =  1 Multiplicity = 2

 SCF Done:  E(UB3LYP) =  -908.482866569     A.U. after   24 cycles
 Normal termination of Gaussian 16 at Wed Dec  9 18:26:55 2020.
 Gaussian 16:  ES64L-G16RevA.03 25-Dec-2016

 ----------------------------------------------------------------------
 # B3LYP/6-311++G(d,p) empiricaldispersion=gd3bj scf=xqc pop=npa geom=c
 heck
 ----------------------------------------------------------------------

 -----------------------------------
 CID_66881215_JID_2976_Energie_anion
 -----------------------------------
 Structure from the checkpoint file:  "JID_2976.chk"
 Charge = -1 Multiplicity = 2

                         Standard orientation:
 ---------------------------------------------------------------------
 Center     Atomic      Atomic             Coordinates (Angstroms)
 Number     Number       Type             X           Y           Z
 ---------------------------------------------------------------------
      1          6           0        2.583143   -1.539708    0.456525
      2          6           0        3.327189   -0.951297   -0.507817
      3          8           0        2.720680    0.244526   -0.831899
      4          6           0        1.630230    0.302767   -0.021245
      5          7           0        1.492864   -0.725805    0.765599
      6         16           0        0.647405    1.743176   -0.170091
      7          6           0       -0.738642    1.247902    0.969219
      8          6           0       -1.711694    0.288303    0.382673
      9          6           0       -1.648931   -1.096437    0.396836
     10          7           0       -2.749536   -1.530710   -0.265202
     11          7           0       -3.538602   -0.528518   -0.717567
     12          6           0       -2.906041    0.575374   -0.326824
     13          1           0        2.741062   -2.483127    0.958748
     14          1           0        4.229521   -1.191647   -1.045192
     15          1           0       -0.266897    0.857174    1.872008
     16          1           0       -1.214931    2.201848    1.210710
     17          1           0       -0.903446   -1.759399    0.807671
     18          1           0       -3.028764   -2.483699   -0.441472
     19          1           0       -3.325070    1.545646   -0.561838
 ---------------------------------------------------------------------

 SCF Done:  E(UB3LYP) =  -908.767650020     A.U. after   33 cycles
 SCF Done:  E(UB3LYP) =  -908.767650020     a.u. after    1 cycles

 The electronic state is 2-A.
 Alpha  occ. eigenvalues --  -88.77952 -19.11159 -14.28784 -14.23696 -14.22115
 Alpha  occ. eigenvalues --  -10.19414 -10.13409 -10.13006 -10.10930 -10.10745
 Alpha  occ. eigenvalues --  -10.09749 -10.08314  -7.86577  -5.82975  -5.82576
 Alpha  occ. eigenvalues --   -5.81962  -1.04631  -0.95107  -0.83499  -0.74406
 Alpha  occ. eigenvalues --   -0.72353  -0.69879  -0.65189  -0.58901  -0.53929
 Alpha  occ. eigenvalues --   -0.51353  -0.49265  -0.47675  -0.45367  -0.43041
 Alpha  occ. eigenvalues --   -0.38899  -0.37387  -0.35659  -0.35119  -0.34392
 Alpha  occ. eigenvalues --   -0.33889  -0.32317  -0.31143  -0.29595  -0.26457
 Alpha  occ. eigenvalues --   -0.23864  -0.21033  -0.20527  -0.19933  -0.16959
 Alpha  occ. eigenvalues --   -0.15255  -0.13201   0.04525
 Alpha virt. eigenvalues --    0.06296   0.06583   0.07972   0.08338   0.08683
 Alpha virt. eigenvalues --    0.09077   0.09820   0.10668   0.10995   0.11634
 Alpha virt. eigenvalues --    0.12806   0.13106   0.14155   0.14531   0.14780

  Beta  occ. eigenvalues --  -88.77951 -19.11155 -14.28729 -14.23694 -14.22112
  Beta  occ. eigenvalues --  -10.19413 -10.13380 -10.12998 -10.10913 -10.10724
  Beta  occ. eigenvalues --  -10.09742 -10.08315  -7.86576  -5.82974  -5.82574
  Beta  occ. eigenvalues --   -5.81961  -1.04619  -0.95065  -0.83488  -0.74390
  Beta  occ. eigenvalues --   -0.72295  -0.69855  -0.65150  -0.58867  -0.53891
  Beta  occ. eigenvalues --   -0.51274  -0.49235  -0.47649  -0.45303  -0.42978
  Beta  occ. eigenvalues --   -0.38876  -0.37346  -0.35604  -0.35089  -0.34350
  Beta  occ. eigenvalues --   -0.33863  -0.32295  -0.31114  -0.29576  -0.26444
  Beta  occ. eigenvalues --   -0.23849  -0.21022  -0.20510  -0.19915  -0.16934
  Beta  occ. eigenvalues --   -0.15244  -0.13180
  Beta virt. eigenvalues --    0.06431   0.07582   0.07990   0.08555   0.08700
  Beta virt. eigenvalues --    0.08954   0.09806   0.09954   0.10742   0.11078
  Beta virt. eigenvalues --    0.12396   0.12811   0.13082   0.14163   0.14515

 Mulliken charges and spin densities:
               1          2
     1  C    0.608775  -0.795303
     2  C    0.721801  -0.616228
     3  O   -0.052111   0.028339
     4  C    0.258289  -0.584028
     5  N   -0.196785   0.165447
     6  S    0.492592  -0.482463
     7  C    0.219535  -1.359050
     8  C    0.446328   0.359638
     9  C    0.142174  -0.454821
    10  N    0.241432  -0.262293
    11  N   -0.211563   0.034763
    12  C   -0.513244   0.256878
    13  H   -1.090770   1.273789
    14  H   -1.224096   1.438868
    15  H    0.058352   0.158329
    16  H    0.128996   0.114953
    17  H   -0.592585   0.820772
    18  H   -0.443564   0.783143
    19  H    0.006443   0.119270
 Sum of Mulliken charges =  -1.00000   1.00000

 Dipole moment (field-independent basis, Debye):
    X=             -2.0860    Y=              9.2353    Z=              1.1639  Tot=              9.5392
 Quadrupole moment (field-independent basis, Debye-Ang):
   XX=           -157.8540   YY=           -127.0867   ZZ=           -103.5133
   XY=              3.0614   XZ=             -0.8342   YZ=              1.6503

 Summary of Natural Population Analysis:

                                       Natural Population
                Natural  -----------------------------------------------
    Atom  No    Charge         Core      Valence    Rydberg      Total
 -----------------------------------------------------------------------
      C    1   -0.03555      0.99955     2.02217    0.01382     3.03555
      C    2    0.03968      0.99950     1.94644    0.01438     2.96032
      O    3   -0.24022      0.99986     3.23251    0.00785     4.24022
      C    4    0.17964      0.99959     1.79630    0.02447     2.82036
      N    5   -0.27686      0.99966     2.76436    0.01284     3.77686
      S    6    0.12744      4.99952     2.85444    0.01860     7.87256
      C    7   -0.24055      0.99953     2.23081    0.01021     3.24055
      C    8   -0.09850      0.99951     2.08652    0.01247     3.09850
      C    9    0.00517      0.99951     1.98267    0.01265     2.99483
      N   10   -0.16204      0.99970     2.64796    0.01438     3.66204
      N   11   -0.15613      0.99974     2.64199    0.01440     3.65613
      C   12   -0.00894      0.99957     1.99594    0.01343     3.00894
      H   13    0.10860      0.00000     0.38762    0.00378     0.39140
      H   14    0.10485      0.00000     0.39131    0.00384     0.39515
      H   15    0.12078      0.00000     0.37759    0.00163     0.37922
      H   16    0.10915      0.00000     0.38978    0.00107     0.39085
      H   17    0.12056      0.00000     0.37673    0.00271     0.37944
      H   18    0.20744      0.00000     0.27728    0.01527     0.29256
      H   19    0.09547      0.00000     0.40345    0.00108     0.40453
 =======================================================================
   * Total *    0.00000     15.99523    30.80586    0.19890    47.00000

 Normal termination of Gaussian 16 at Wed Dec  9 18:30:43 2020.
