 Gaussian 16, Revision A.03,

 -----------------------------------------------------------
 # opt freq B3LYP/6-31G(d) empiricaldispersion=gd3bj scf=xqc
 -----------------------------------------------------------

 -------------------------------
 CID_103961512_JID_5340_neutraal
 -------------------------------
 Symbolic Z-matrix:
 Charge =  0 Multiplicity = 1

 SCF Done:  E(RB3LYP) =  -605.782012881     A.U. after   13 cycles
 SCF Done:  E(RB3LYP) =  -605.784407910     A.U. after   10 cycles
 SCF Done:  E(RB3LYP) =  -605.781785892     A.U. after   11 cycles
 SCF Done:  E(RB3LYP) =  -605.783660486     A.U. after   11 cycles
 SCF Done:  E(RB3LYP) =  -605.785743869     A.U. after    8 cycles
 SCF Done:  E(RB3LYP) =  -605.786415551     A.U. after   10 cycles
 SCF Done:  E(RB3LYP) =  -605.786766078     A.U. after   10 cycles
 SCF Done:  E(RB3LYP) =  -605.787354039     A.U. after   10 cycles
 SCF Done:  E(RB3LYP) =  -605.787902347     A.U. after   11 cycles
 SCF Done:  E(RB3LYP) =  -605.788186810     A.U. after   11 cycles
 SCF Done:  E(RB3LYP) =  -605.788971406     A.U. after    8 cycles
 SCF Done:  E(RB3LYP) =  -605.788973703     A.U. after    8 cycles
 SCF Done:  E(RB3LYP) =  -605.788973698     A.U. after    8 cycles
 SCF Done:  E(RB3LYP) =  -605.788973893     A.U. after    6 cycles
 SCF Done:  E(RB3LYP) =  -605.788974292     A.U. after    7 cycles
 SCF Done:  E(RB3LYP) =  -605.788974295     A.U. after    5 cycles
 Optimization completed.
    -- Stationary point found.
 Normal termination of Gaussian 16 at Thu Dec 10 15:53:04 2020.

 --------------------------------------------------------------------
 #N Geom=AllCheck Guess=TCheck SCRF=Check GenChk RB3LYP/6-31G(d) Freq
 --------------------------------------------------------------------

 Structure from the checkpoint file:  "JID_5340.chk"
 -------------------------------
 CID_103961512_JID_5340_neutraal
 -------------------------------
 Charge =  0 Multiplicity = 1

 SCF Done:  E(RB3LYP) =  -605.788974295     A.U. after    1 cycles

  Exact polarizability: 164.822   0.228 155.618   0.999  -1.052 132.821
 Approx polarizability: 212.271  -0.818 211.583   0.126  -0.137 206.693

                      1                      2                      3
                      A                      A                      A
 Frequencies --     48.1659                61.1250                86.5026
 Red. masses --      2.6782                 3.0536                 2.9402
 Frc consts  --      0.0037                 0.0067                 0.0130
 IR Inten    --      0.2230                 0.1968                 0.5227

                      4                      5                      6
                      A                      A                      A
 Frequencies --    111.2531               155.6495               176.8845
 Red. masses --      2.4117                 2.2588                 2.2032
 Frc consts  --      0.0176                 0.0322                 0.0406
 IR Inten    --      0.1485                 0.2751                 1.6098

                      7                      8                      9
                      A                      A                      A
 Frequencies --    199.8833               208.1353               217.6643
 Red. masses --      2.4956                 1.3229                 1.1726
 Frc consts  --      0.0587                 0.0338                 0.0327
 IR Inten    --      0.0615                 0.2807                 0.0863

                     10                     11                     12
                      A                      A                      A
 Frequencies --    240.8543               246.9997               255.5165
 Red. masses --      1.6154                 1.5433                 1.2469
 Frc consts  --      0.0552                 0.0555                 0.0480
 IR Inten    --      0.0223                 0.1929                 0.4515

                     13                     14                     15
                      A                      A                      A
 Frequencies --    259.2929               283.1701               286.5485
 Red. masses --      1.5200                 1.2301                 1.6748
 Frc consts  --      0.0602                 0.0581                 0.0810
 IR Inten    --      0.1743                 0.3282                 0.1954

                     16                     17                     18
                      A                      A                      A
 Frequencies --    303.6542               320.4435               326.0796
 Red. masses --      2.0498                 2.1564                 1.4656
 Frc consts  --      0.1114                 0.1305                 0.0918
 IR Inten    --      0.1199                 0.0346                 0.1041

                     19                     20                     21
                      A                      A                      A
 Frequencies --    339.8870               351.6040               359.8248
 Red. masses --      2.5944                 2.4606                 2.5091
 Frc consts  --      0.1766                 0.1792                 0.1914
 IR Inten    --      0.4977                 0.1701                 0.2030

                     22                     23                     24
                      A                      A                      A
 Frequencies --    397.0418               432.9851               442.9314
 Red. masses --      2.3530                 2.0206                 1.8080
 Frc consts  --      0.2186                 0.2232                 0.2090
 IR Inten    --      0.0328                 0.1288                 0.2033

                     25                     26                     27
                      A                      A                      A
 Frequencies --    463.0732               474.1549               496.5677
 Red. masses --      2.0544                 2.7056                 2.4021
 Frc consts  --      0.2596                 0.3584                 0.3490
 IR Inten    --      0.1309                 2.1895                 5.7178

                     28                     29                     30
                      A                      A                      A
 Frequencies --    526.6092               548.3095               667.8617
 Red. masses --      2.7502                 2.8916                 4.0279
 Frc consts  --      0.4494                 0.5122                 1.0585
 IR Inten    --      1.7359                 1.5404                 1.0248

                     31                     32                     33
                      A                      A                      A
 Frequencies --    761.3560               771.7751               773.8008
 Red. masses --      2.8706                 2.2692                 1.4891
 Frc consts  --      0.9804                 0.7964                 0.5253
 IR Inten    --      0.6272                 0.3062                10.5363

                     34                     35                     36
                      A                      A                      A
 Frequencies --    824.3293               850.2339               883.2268
 Red. masses --      1.3603                 2.2069                 2.1297
 Frc consts  --      0.5446                 0.9399                 0.9788
 IR Inten    --     52.9536                 0.5480                 3.5121

                     37                     38                     39
                      A                      A                      A
 Frequencies --    897.5433               913.0363               923.4671
 Red. masses --      1.8199                 1.9905                 2.0553
 Frc consts  --      0.8638                 0.9776                 1.0327
 IR Inten    --      2.0804                 1.4655                 1.6710

                     40                     41                     42
                      A                      A                      A
 Frequencies --    927.0491               949.9873               955.4412
 Red. masses --      1.9083                 1.5512                 1.5116
 Frc consts  --      0.9663                 0.8248                 0.8130
 IR Inten    --      5.9728                 1.2283                 2.0442

                     43                     44                     45
                      A                      A                      A
 Frequencies --    976.7712               991.9517               994.3119
 Red. masses --      2.0394                 1.7742                 1.7813
 Frc consts  --      1.1464                 1.0286                 1.0376
 IR Inten    --      3.6881                 0.3555                 4.6806

                     46                     47                     48
                      A                      A                      A
 Frequencies --   1011.2070              1035.8861              1049.2333
 Red. masses --      1.7821                 1.3142                 1.4976
 Frc consts  --      1.0736                 0.8309                 0.9714
 IR Inten    --      4.5788                 0.0239                 0.5988

                     49                     50                     51
                      A                      A                      A
 Frequencies --   1063.6443              1078.7550              1104.0876
 Red. masses --      2.2604                 1.6851                 1.7392
 Frc consts  --      1.5067                 1.1554                 1.2492
 IR Inten    --      0.2875                 0.7197                 0.1743

                     52                     53                     54
                      A                      A                      A
 Frequencies --   1109.8290              1114.8475              1139.3014
 Red. masses --      1.8871                 1.9699                 2.3740
 Frc consts  --      1.3695                 1.4425                 1.8156
 IR Inten    --     12.3250                 4.1430                 0.9481

                     55                     56                     57
                      A                      A                      A
 Frequencies --   1155.7890              1164.6381              1184.9601
 Red. masses --      1.4309                 1.3601                 1.5787
 Frc consts  --      1.1262                 1.0869                 1.3060
 IR Inten    --      1.8433                 0.7466                 3.8798

                     58                     59                     60
                      A                      A                      A
 Frequencies --   1195.9492              1218.8279              1228.5848
 Red. masses --      2.4641                 2.0329                 2.1334
 Frc consts  --      2.0765                 1.7793                 1.8973
 IR Inten    --     36.9652                 3.5435                 0.1521

                     61                     62                     63
                      A                      A                      A
 Frequencies --   1257.0231              1288.4178              1298.6475
 Red. masses --      2.3866                 2.7353                 1.8061
 Frc consts  --      2.2219                 2.6752                 1.7946
 IR Inten    --      3.0534                10.1153                 1.3709

                     64                     65                     66
                      A                      A                      A
 Frequencies --   1304.1214              1313.0134              1321.2623
 Red. masses --      1.2155                 1.6216                 1.3964
 Frc consts  --      1.2179                 1.6471                 1.4362
 IR Inten    --      1.3482                 4.7781                 2.3515

                     67                     68                     69
                      A                      A                      A
 Frequencies --   1358.5631              1367.4796              1376.4344
 Red. masses --      1.3249                 1.4227                 1.3778
 Frc consts  --      1.4408                 1.5675                 1.5379
 IR Inten    --      1.7101                 3.5721                 6.4979

                     70                     71                     72
                      A                      A                      A
 Frequencies --   1392.9079              1398.3686              1406.2362
 Red. masses --      1.3618                 1.4698                 1.3840
 Frc consts  --      1.5567                 1.6933                 1.6126
 IR Inten    --      0.3736                 2.5350                 5.2865

                     73                     74                     75
                      A                      A                      A
 Frequencies --   1408.6843              1426.3306              1431.1370
 Red. masses --      1.3991                 1.2691                 1.2515
 Frc consts  --      1.6358                 1.5212                 1.5102
 IR Inten    --      5.2104                 0.2651                 7.6156

                     76                     77                     78
                      A                      A                      A
 Frequencies --   1436.0917              1441.7720              1453.8072
 Red. masses --      1.2929                 1.2371                 1.2227
 Frc consts  --      1.5710                 1.5151                 1.5225
 IR Inten    --      2.1861                 3.3059                 7.1561

                     79                     80                     81
                      A                      A                      A
 Frequencies --   1454.6558              1484.7545              1501.3844
 Red. masses --      1.2402                 1.1907                 1.1392
 Frc consts  --      1.5462                 1.5465                 1.5130
 IR Inten    --      6.9933                 0.8677                 9.0367

                     82                     83                     84
                      A                      A                      A
 Frequencies --   1504.2473              1509.9328              1514.8721
 Red. masses --      1.0830                 1.0980                 1.0490
 Frc consts  --      1.4439                 1.4749                 1.4183
 IR Inten    --      0.9981                 6.5592                 3.1536

                     85                     86                     87
                      A                      A                      A
 Frequencies --   1516.1624              1519.4689              1522.4023
 Red. masses --      1.0615                 1.0601                 1.0498
 Frc consts  --      1.4377                 1.4421                 1.4335
 IR Inten    --      0.6577                 3.5422                 1.3043

                     88                     89                     90
                      A                      A                      A
 Frequencies --   1526.7158              1529.0251              1533.3977
 Red. masses --      1.0697                 1.0444                 1.0594
 Frc consts  --      1.4690                 1.4386                 1.4677
 IR Inten    --      8.3850                 1.4597                 4.6708

                     91                     92                     93
                      A                      A                      A
 Frequencies --   1535.0749              1536.9943              1538.0483
 Red. masses --      1.0518                 1.0590                 1.0669
 Frc consts  --      1.4603                 1.4739                 1.4870
 IR Inten    --      4.0843                 2.3259                11.4939

                     94                     95                     96
                      A                      A                      A
 Frequencies --   1542.8649              1546.4621              1554.1860
 Red. masses --      1.0606                 1.0706                 1.0545
 Frc consts  --      1.4875                 1.5085                 1.5008
 IR Inten    --      0.9414                 9.6598                18.6777

                     97                     98                     99
                      A                      A                      A
 Frequencies --   1558.2013              2943.6962              2982.5421
 Red. masses --      1.0828                 1.0622                 1.0784
 Frc consts  --      1.5490                 5.4228                 5.6518
 IR Inten    --     13.2570                72.0004                41.4523

                    100                    101                    102
                      A                      A                      A
 Frequencies --   3012.2397              3015.0810              3023.3241
 Red. masses --      1.0702                 1.0673                 1.0656
 Frc consts  --      5.7214                 5.7166                 5.7389
 IR Inten    --      0.9857                49.2452                 6.4149

                    103                    104                    105
                      A                      A                      A
 Frequencies --   3033.3937              3035.4694              3037.9121
 Red. masses --      1.0554                 1.0363                 1.0497
 Frc consts  --      5.7219                 5.6260                 5.7077
 IR Inten    --     37.0339                21.6807                78.6618

                    106                    107                    108
                      A                      A                      A
 Frequencies --   3044.6494              3045.9625              3049.1267
 Red. masses --      1.0439                 1.0368                 1.0479
 Frc consts  --      5.7017                 5.6673                 5.7404
 IR Inten    --     39.9151                30.7834                16.4208

                    109                    110                    111
                      A                      A                      A
 Frequencies --   3051.5232              3057.3394              3069.7266
 Red. masses --      1.1006                 1.0639                 1.0944
 Frc consts  --      6.0382                 5.8590                 6.0761
 IR Inten    --     28.8680                37.5274                31.0329

                    112                    113                    114
                      A                      A                      A
 Frequencies --   3071.4047              3085.2491              3086.8169
 Red. masses --      1.0946                 1.0713                 1.1000
 Frc consts  --      6.0838                 6.0080                 6.1755
 IR Inten    --     29.4301                40.3221                14.1309

                    115                    116                    117
                      A                      A                      A
 Frequencies --   3094.9845              3097.0788              3103.6620
 Red. masses --      1.1006                 1.1020                 1.1016
 Frc consts  --      6.2116                 6.2276                 6.2520
 IR Inten    --      5.0274                 9.2678                33.9336

                    118                    119                    120
                      A                      A                      A
 Frequencies --   3105.2963              3107.2170              3108.3040
 Red. masses --      1.1013                 1.1022                 1.1020
 Frc consts  --      6.2568                 6.2699                 6.2728
 IR Inten    --    110.2729                20.1503                66.1339

                    121                    122                    123
                      A                      A                      A
 Frequencies --   3110.1580              3118.2643              3126.1776
 Red. masses --      1.1019                 1.1024                 1.1030
 Frc consts  --      6.2799                 6.3156                 6.3510
 IR Inten    --     43.3414                70.3593                13.3578

                    124                    125                    126
                      A                      A                      A
 Frequencies --   3163.9951              3186.0468              3532.2527
 Red. masses --      1.0941                 1.0890                 1.0727
 Frc consts  --      6.4535                 6.5130                 7.8859
 IR Inten    --     29.6800                26.4086                 1.1643

 - Thermochemistry -
 -------------------
 Temperature   298.150 Kelvin.  Pressure   1.00000 Atm.
 Atom     1 has atomic number  6 and mass  12.00000

 Molecular mass:   211.23000 amu.
 Principal axes and moments of inertia in atomic units:
                           1         2         3
     Eigenvalues --  2420.948473836.461385104.02533
           X            0.99990   0.01165   0.00812
           Y           -0.01162   0.99992  -0.00444
           Z           -0.00818   0.00434   0.99996
 This molecule is an asymmetric top.
 Rotational symmetry number  1.
 Warning -- assumption of classical behavior for rotation
           may cause significant error
 Rotational temperatures (Kelvin)      0.03578     0.02258     0.01697
 Rotational constants (GHZ):           0.74547     0.47042     0.35359
 Zero-point vibrational energy    1092468.9 (Joules/Mol)
                                  261.10633 (Kcal/Mol)
 Warning -- explicit consideration of  29 degrees of freedom as
           vibrations may cause significant error
 Vibrational temperatures:     69.30    87.95   124.46   160.07   223.94
          (Kelvin)            254.50   287.59   299.46   313.17   346.54
                              355.38   367.63   373.06   407.42   412.28
                              436.89   461.05   469.16   489.02   505.88
                              517.71   571.25   622.97   637.28   666.26
                              682.20   714.45   757.67   788.90   960.90
                             1095.42  1110.41  1113.33  1186.03  1223.30
                             1270.77  1291.36  1313.66  1328.66  1333.82
                             1366.82  1374.67  1405.36  1427.20  1430.59
                             1454.90  1490.41  1509.61  1530.35  1552.09
                             1588.54  1596.80  1604.02  1639.20  1662.92
                             1675.65  1704.89  1720.70  1753.62  1767.66
                             1808.58  1853.75  1868.46  1876.34  1889.13
                             1901.00  1954.67  1967.50  1980.38  2004.08
                             2011.94  2023.26  2026.78  2052.17  2059.09
                             2066.22  2074.39  2091.70  2092.93  2136.23
                             2160.16  2164.28  2172.46  2179.56  2181.42
                             2186.18  2190.40  2196.60  2199.93  2206.22
                             2208.63  2211.39  2212.91  2219.84  2225.01
                             2236.13  2241.90  4235.32  4291.21  4333.94
                             4338.03  4349.89  4364.38  4367.36  4370.88
                             4380.57  4382.46  4387.01  4390.46  4398.83
                             4416.65  4419.07  4438.99  4441.24  4452.99
                             4456.01  4465.48  4467.83  4470.59  4472.16
                             4474.82  4486.49  4497.87  4552.28  4584.01
                             5082.12

 Zero-point correction=                           0.416099 (Hartree/Particle)
 Thermal correction to Energy=                    0.433599
 Thermal correction to Enthalpy=                  0.434543
 Thermal correction to Gibbs Free Energy=         0.373252
 Sum of electronic and zero-point Energies=           -605.372875
 Sum of electronic and thermal Energies=              -605.355375
 Sum of electronic and thermal Enthalpies=            -605.354431
 Sum of electronic and thermal Free Energies=         -605.415722

                     E (Thermal)             CV                S
                      KCal/Mol        Cal/Mol-Kelvin    Cal/Mol-Kelvin
 Total                  272.087             69.741            128.997
 Electronic               0.000              0.000              0.000
 Translational            0.889              2.981             41.947
 Rotational               0.889              2.981             32.228
 Vibrational            270.310             63.779             54.823
 Vibration     1          0.595              1.978              4.891
 Vibration     2          0.597              1.973              4.421
 Vibration     3          0.601              1.959              3.738
 Vibration     4          0.607              1.940              3.247
 Vibration     5          0.620              1.896              2.602
 Vibration     6          0.628              1.871              2.361
 Vibration     7          0.638              1.840              2.134
 Vibration     8          0.641              1.828              2.060
 Vibration     9          0.646              1.814              1.978
 Vibration    10          0.658              1.778              1.797
 Vibration    11          0.661              1.768              1.752
 Vibration    12          0.666              1.753              1.692
 Vibration    13          0.668              1.747              1.667
 Vibration    14          0.682              1.705              1.514
 Vibration    15          0.684              1.699              1.494
 Vibration    16          0.695              1.667              1.397
 Vibration    17          0.706              1.634              1.308
 Vibration    18          0.710              1.623              1.279
 Vibration    19          0.720              1.596              1.213
 Vibration    20          0.728              1.572              1.159
 Vibration    21          0.734              1.555              1.123
 Vibration    22          0.764              1.476              0.974
 Vibration    23          0.794              1.398              0.849
 Vibration    24          0.803              1.376              0.817
 Vibration    25          0.821              1.332              0.757
 Vibration    26          0.831              1.307              0.726
 Vibration    27          0.852              1.258              0.667
 Vibration    28          0.882              1.191              0.595
 Vibration    29          0.904              1.143              0.548

 Optimization completed.
    -- Stationary point found.
 Normal termination of Gaussian 16 at Thu Dec 10 16:11:21 2020.

 ----------------------------------------------------------------------
 # B3LYP/6-311++G(d,p) empiricaldispersion=gd3bj scf=xqc pop=npa geom=c
 heck
 ----------------------------------------------------------------------

 ---------------------------------------
 CID_103961512_JID_5340_Energie_neutraal
 ---------------------------------------
 Structure from the checkpoint file:  "JID_5340.chk"
 Charge =  0 Multiplicity = 1

 SCF Done:  E(RB3LYP) =  -605.958556436     A.U. after   14 cycles
 Normal termination of Gaussian 16 at Thu Dec 10 16:22:26 2020.

 ----------------------------------------------------------------------
 # B3LYP/6-311++G(d,p) empiricaldispersion=gd3bj scf=xqc pop=npa geom=c
 heck
 ----------------------------------------------------------------------

 -------------------------------------
 CID_103961512_JID_5340_Energie_kation
 -------------------------------------
 Structure from the checkpoint file:  "JID_5340.chk"
 Charge =  1 Multiplicity = 2

 SCF Done:  E(UB3LYP) =  -605.653903084     A.U. after   22 cycles
 Normal termination of Gaussian 16 at Thu Dec 10 16:48:17 2020.
 Gaussian 16:  ES64L-G16RevA.03 25-Dec-2016

 ----------------------------------------------------------------------
 # B3LYP/6-311++G(d,p) empiricaldispersion=gd3bj scf=xqc pop=npa geom=c
 heck
 ----------------------------------------------------------------------

 ------------------------------------
 CID_103961512_JID_5340_Energie_anion
 ------------------------------------
 Structure from the checkpoint file:  "JID_5340.chk"
 Charge = -1 Multiplicity = 2

                         Standard orientation:
 ---------------------------------------------------------------------
 Center     Atomic      Atomic             Coordinates (Angstroms)
 Number     Number       Type             X           Y           Z
 ---------------------------------------------------------------------
      1          6           0        3.243805    1.749217    0.423793
      2          6           0        2.639641    0.923925   -0.715656
      3          6           0        1.569541   -0.103399   -0.260272
      4          6           0        0.318816   -0.017144   -1.174630
      5          6           0       -0.674499   -1.198742   -1.145097
      6          6           0       -1.640973   -1.268151    0.056293
      7          6           0       -2.355457    0.097825    0.197457
      8          6           0       -1.489183    1.379919    0.161012
      9          6           0       -0.473469    1.298800   -1.007875
     10          6           0       -0.820313    1.670687    1.518733
     11          6           0       -2.426052    2.571992   -0.122493
     12          6           0       -0.931410   -1.716949    1.348449
     13          6           0       -2.716987   -2.327956   -0.250193
     14          7           0        2.132536   -1.459099   -0.299266
     15          6           0        3.221861   -1.672121    0.647756
     16          1           0        2.471041    2.343572    0.926185
     17          1           0        4.007396    2.441743    0.051363
     18          1           0        3.710480    1.113167    1.183877
     19          1           0        2.201546    1.611491   -1.447751
     20          1           0        3.422343    0.377504   -1.254892
     21          1           0        1.289461    0.160912    0.772258
     22          1           0        0.729747   -0.012887   -2.194004
     23          1           0       -1.292595   -1.097588   -2.048680
     24          1           0       -0.151257   -2.154910   -1.266187
     25          1           0       -2.969073    0.099038    1.109521
     26          1           0       -3.063083    0.166798   -0.641072
     27          1           0        0.207595    2.156430   -0.942916
     28          1           0       -1.042937    1.440892   -1.936725
     29          1           0       -0.219875    2.586777    1.459438
     30          1           0       -1.585864    1.824595    2.289092
     31          1           0       -0.165868    0.873010    1.867015
     32          1           0       -2.943854    2.452065   -1.081253
     33          1           0       -3.186834    2.668100    0.661727
     34          1           0       -1.862960    3.512680   -0.159084
     35          1           0       -1.630372   -1.709438    2.193284
     36          1           0       -0.562617   -2.744954    1.239113
     37          1           0       -0.081411   -1.091318    1.619671
     38          1           0       -3.267854   -2.081835   -1.165419
     39          1           0       -2.264963   -3.318164   -0.385557
     40          1           0       -3.442021   -2.400084    0.569829
     41          1           0        1.393969   -2.115828   -0.065437
     42          1           0        2.983003   -1.364061    1.683854
     43          1           0        3.485372   -2.734719    0.658008
     44          1           0        4.111814   -1.116702    0.335941
 ---------------------------------------------------------------------

 SCF Done:  E(UB3LYP) =  -605.943897561     A.U. after   29 cycles

 The electronic state is 2-A.
 Alpha  occ. eigenvalues --  -14.19797 -10.09605 -10.08872 -10.08380 -10.08337
 Alpha  occ. eigenvalues --  -10.07379 -10.06704 -10.06420 -10.06405 -10.06400
 Alpha  occ. eigenvalues --  -10.06123 -10.05830 -10.05822 -10.05762 -10.05641
 Alpha  occ. eigenvalues --   -0.81091  -0.75059  -0.70122  -0.68877  -0.65891
 Alpha  occ. eigenvalues --   -0.59938  -0.58927  -0.58257  -0.58002  -0.57786
 Alpha  occ. eigenvalues --   -0.54463  -0.50192  -0.47222  -0.45610  -0.41583
 Alpha  occ. eigenvalues --   -0.40366  -0.38233  -0.36185  -0.35597  -0.35240
 Alpha  occ. eigenvalues --   -0.34101  -0.33712  -0.33047  -0.32493  -0.31503
 Alpha  occ. eigenvalues --   -0.31348  -0.30453  -0.29632  -0.28958  -0.28396
 Alpha  occ. eigenvalues --   -0.28254  -0.27309  -0.26562  -0.26221  -0.25941
 Alpha  occ. eigenvalues --   -0.24679  -0.23894  -0.23520  -0.22969  -0.22902
 Alpha  occ. eigenvalues --   -0.22182  -0.20575  -0.19382  -0.19102  -0.13222
 Alpha  occ. eigenvalues --    0.04317
 Alpha virt. eigenvalues --    0.06417   0.06573   0.07375   0.08010   0.08570
 Alpha virt. eigenvalues --    0.08897   0.08963   0.09696   0.10192   0.10589
 Alpha virt. eigenvalues --    0.11075   0.11308   0.11802   0.11846   0.12190

  Beta  occ. eigenvalues --  -14.19786 -10.09601 -10.08846 -10.08379 -10.08335
  Beta  occ. eigenvalues --  -10.07375 -10.06696 -10.06406 -10.06393 -10.06378
  Beta  occ. eigenvalues --  -10.06104 -10.05805 -10.05796 -10.05732 -10.05619
  Beta  occ. eigenvalues --   -0.81073  -0.75044  -0.70103  -0.68858  -0.65868
  Beta  occ. eigenvalues --   -0.59897  -0.58881  -0.58209  -0.57955  -0.57747
  Beta  occ. eigenvalues --   -0.54412  -0.50152  -0.47190  -0.45563  -0.41542
  Beta  occ. eigenvalues --   -0.40336  -0.38196  -0.36157  -0.35575  -0.35213
  Beta  occ. eigenvalues --   -0.34073  -0.33690  -0.33022  -0.32463  -0.31474
  Beta  occ. eigenvalues --   -0.31318  -0.30420  -0.29603  -0.28928  -0.28368
  Beta  occ. eigenvalues --   -0.28225  -0.27281  -0.26538  -0.26190  -0.25912
  Beta  occ. eigenvalues --   -0.24655  -0.23868  -0.23496  -0.22946  -0.22878
  Beta  occ. eigenvalues --   -0.22159  -0.20552  -0.19357  -0.19078  -0.13191
  Beta virt. eigenvalues --    0.06256   0.07027   0.07322   0.07797   0.08403
  Beta virt. eigenvalues --    0.09097   0.09209   0.09281   0.10005   0.10571
  Beta virt. eigenvalues --    0.10913   0.11270   0.11594   0.11994   0.12128

 Mulliken charges and spin densities:
               1          2
     1  C    0.175055  -0.775766
     2  C   -1.135235   0.666040
     3  C   -0.208370   0.008863
     4  C    0.367136   0.540036
     5  C   -0.158646  -1.045650
     6  C   -1.272065   2.235718
     7  C    0.587706  -1.706091
     8  C   -1.160447   2.020762
     9  C    0.507516  -1.362223
    10  C    0.045190  -0.701730
    11  C    0.548768  -1.000591
    12  C    0.052371  -0.699098
    13  C    0.957407  -1.458153
    14  N   -0.064377   0.027407
    15  C    0.383752  -0.777523
    16  H   -0.040564   0.181020
    17  H   -0.278361   0.413462
    18  H    0.063541   0.078452
    19  H    0.022968   0.111332
    20  H    0.080025   0.089665
    21  H    0.482462  -0.403034
    22  H    0.109423   0.113252
    23  H    0.091906   0.076468
    24  H   -0.133919   0.308916
    25  H    0.091514   0.089892
    26  H    0.042724   0.124988
    27  H    0.097170   0.069736
    28  H    0.057843   0.116526
    29  H   -0.000146   0.164275
    30  H   -0.078353   0.239552
    31  H   -0.160727   0.261762
    32  H   -0.207996   0.341261
    33  H   -0.095394   0.236872
    34  H   -0.113076   0.259184
    35  H   -0.161652   0.339208
    36  H   -0.343142   0.512578
    37  H    0.160947  -0.078552
    38  H   -0.196460   0.328847
    39  H   -0.017556   0.166193
    40  H   -0.112561   0.250929
    41  H    0.481338  -0.248384
    42  H   -0.152247   0.291642
    43  H   -0.285537   0.426355
    44  H   -0.029933   0.165605
 Sum of Mulliken charges =  -1.00000   1.00000

 Dipole moment (field-independent basis, Debye):
    X=              0.6538    Y=              0.6570    Z=             -1.2495  Tot=              1.5558
 Quadrupole moment (field-independent basis, Debye-Ang):
   XX=           -168.1719   YY=           -160.4626   ZZ=           -139.4432
   XY=              1.4206   XZ=             -2.6826   YZ=              1.9915

 Summary of Natural Population Analysis:

                                       Natural Population
                Natural  -----------------------------------------------
    Atom  No    Charge         Core      Valence    Rydberg      Total
 -----------------------------------------------------------------------
      C    1   -0.28579      0.99966     2.28111    0.00502     3.28579
      C    2   -0.19537      0.99962     2.18712    0.00864     3.19537
      C    3   -0.01114      0.99956     1.99946    0.01213     3.01114
      C    4   -0.10713      0.99956     2.09549    0.01207     3.10713
      C    5   -0.18843      0.99957     2.17815    0.01071     3.18843
      C    6   -0.04714      0.99956     2.03544    0.01214     3.04714
      C    7   -0.18616      0.99956     2.17467    0.01193     3.18616
      C    8   -0.04673      0.99957     2.03538    0.01179     3.04673
      C    9   -0.18670      0.99957     2.17628    0.01085     3.18670
      C   10   -0.28199      0.99962     2.27533    0.00705     3.28199
      C   11   -0.27957      0.99963     2.27260    0.00734     3.27957
      C   12   -0.28638      0.99962     2.27876    0.00800     3.28638
      C   13   -0.27980      0.99963     2.27289    0.00728     3.27980
      N   14   -0.33852      0.99973     2.82848    0.01030     3.83852
      C   15   -0.17976      0.99966     2.17173    0.00838     3.17976
      H   16    0.09803      0.00000     0.40084    0.00113     0.40197
      H   17    0.09684      0.00000     0.40239    0.00077     0.40316
      H   18    0.09675      0.00000     0.40225    0.00101     0.40325
      H   19    0.09755      0.00000     0.40121    0.00124     0.40245
      H   20    0.10048      0.00000     0.39834    0.00117     0.39952
      H   21    0.07823      0.00000     0.41859    0.00318     0.42177
      H   22    0.09904      0.00000     0.39938    0.00157     0.40096
      H   23    0.10154      0.00000     0.39727    0.00119     0.39846
      H   24    0.10136      0.00000     0.39720    0.00143     0.39864
      H   25    0.10105      0.00000     0.39775    0.00120     0.39895
      H   26    0.09974      0.00000     0.39875    0.00151     0.40026
      H   27    0.10156      0.00000     0.39717    0.00127     0.39844
      H   28    0.09986      0.00000     0.39901    0.00113     0.40014
      H   29    0.09848      0.00000     0.40044    0.00108     0.40152
      H   30    0.09883      0.00000     0.40023    0.00093     0.40117
      H   31    0.09835      0.00000     0.40027    0.00138     0.40165
      H   32    0.09870      0.00000     0.40030    0.00100     0.40130
      H   33    0.09876      0.00000     0.40030    0.00094     0.40124
      H   34    0.09927      0.00000     0.39975    0.00098     0.40073
      H   35    0.10136      0.00000     0.39764    0.00100     0.39864
      H   36    0.09852      0.00000     0.40013    0.00135     0.40148
      H   37    0.09848      0.00000     0.39994    0.00158     0.40152
      H   38    0.09877      0.00000     0.40024    0.00099     0.40123
      H   39    0.09925      0.00000     0.39976    0.00098     0.40075
      H   40    0.09933      0.00000     0.39970    0.00098     0.40067
      H   41    0.17555      0.00000     0.32074    0.00371     0.32445
      H   42    0.07967      0.00000     0.41890    0.00143     0.42033
      H   43    0.09536      0.00000     0.40380    0.00084     0.40464
      H   44    0.08989      0.00000     0.40896    0.00115     0.41011
 =======================================================================
   * Total *    0.00000     14.99412    44.82414    0.18175    60.00000

 Normal termination of Gaussian 16 at Thu Dec 10 17:25:28 2020.
