 Gaussian 16, Revision A.03,

 -----------------------------------------------------------
 # opt freq B3LYP/6-31G(d) empiricaldispersion=gd3bj scf=xqc
 -----------------------------------------------------------

 -------------------------------
 CID_131012128_JID_3389_neutraal
 -------------------------------
 Symbolic Z-matrix:
 Charge =  0 Multiplicity = 1

 SCF Done:  E(RB3LYP) =  -899.851990947     A.U. after   15 cycles
 SCF Done:  E(RB3LYP) =  -899.857087280     A.U. after   12 cycles
 SCF Done:  E(RB3LYP) =  -899.857586923     A.U. after   11 cycles
 SCF Done:  E(RB3LYP) =  -899.857787442     A.U. after   11 cycles
 SCF Done:  E(RB3LYP) =  -899.857988889     A.U. after   11 cycles
 SCF Done:  E(RB3LYP) =  -899.858080441     A.U. after   11 cycles
 SCF Done:  E(RB3LYP) =  -899.857931362     A.U. after   10 cycles
 SCF Done:  E(RB3LYP) =  -899.858340249     A.U. after   11 cycles
 SCF Done:  E(RB3LYP) =  -899.858812607     A.U. after   14 cycles
 SCF Done:  E(RB3LYP) =  -899.858471173     A.U. after   12 cycles
 SCF Done:  E(RB3LYP) =  -899.859049928     A.U. after    8 cycles
 SCF Done:  E(RB3LYP) =  -899.859052457     A.U. after    9 cycles
 SCF Done:  E(RB3LYP) =  -899.859052886     A.U. after    7 cycles
 SCF Done:  E(RB3LYP) =  -899.859053396     A.U. after    9 cycles
 SCF Done:  E(RB3LYP) =  -899.859053436     A.U. after    7 cycles
 Optimization completed.
    -- Stationary point found.
 Normal termination of Gaussian 16 at Wed Dec  9 23:10:18 2020.

 --------------------------------------------------------------------
 #N Geom=AllCheck Guess=TCheck SCRF=Check GenChk RB3LYP/6-31G(d) Freq
 --------------------------------------------------------------------

 Structure from the checkpoint file:  "JID_3389.chk"
 -------------------------------
 CID_131012128_JID_3389_neutraal
 -------------------------------
 Charge =  0 Multiplicity = 1

 SCF Done:  E(RB3LYP) =  -899.859053436     A.U. after    1 cycles

  Exact polarizability: 189.012   3.625 145.216   2.991  -1.160  66.695
 Approx polarizability: 295.754   1.416 242.814  12.427  -4.293 105.210

                      1                      2                      3
                      A                      A                      A
 Frequencies --     81.5946                87.9242               111.5659
 Red. masses --      1.7019                 3.6193                 1.5880
 Frc consts  --      0.0067                 0.0165                 0.0116
 IR Inten    --      1.5955                 0.6296                 0.9628

                      4                      5                      6
                      A                      A                      A
 Frequencies --    138.5551               156.4047               160.7009
 Red. masses --      1.5950                 1.6559                 1.1194
 Frc consts  --      0.0180                 0.0239                 0.0170
 IR Inten    --      0.0673                 1.6953                 0.2131

                      7                      8                      9
                      A                      A                      A
 Frequencies --    168.8519               225.6860               263.3877
 Red. masses --      2.4669                 3.9824                 3.7314
 Frc consts  --      0.0414                 0.1195                 0.1525
 IR Inten    --      1.1102                 2.1038                 1.2763

                     10                     11                     12
                      A                      A                      A
 Frequencies --    288.1774               301.3717               341.2521
 Red. masses --      2.5914                 3.7833                 4.7571
 Frc consts  --      0.1268                 0.2025                 0.3264
 IR Inten    --      1.0388                 0.2947                 5.8284

                     13                     14                     15
                      A                      A                      A
 Frequencies --    383.9910               447.2422               461.1689
 Red. masses --      8.3765                 5.3472                 5.3260
 Frc consts  --      0.7277                 0.6302                 0.6674
 IR Inten    --      1.6803                 0.8506                 1.8842

                     16                     17                     18
                      A                      A                      A
 Frequencies --    486.0380               535.0723               542.1863
 Red. masses --      4.2495                 3.7108                 4.4004
 Frc consts  --      0.5915                 0.6260                 0.7622
 IR Inten    --      0.4603                 1.8729                 2.8227

                     19                     20                     21
                      A                      A                      A
 Frequencies --    604.2160               636.7324               666.1586
 Red. masses --      4.9571                 5.3493                 2.1571
 Frc consts  --      1.0663                 1.2778                 0.5640
 IR Inten    --      2.2102                 1.9949                18.6384

                     22                     23                     24
                      A                      A                      A
 Frequencies --    732.0257               752.9438               777.5672
 Red. masses --      2.7385                 4.3374                 3.6023
 Frc consts  --      0.8646                 1.4488                 1.2832
 IR Inten    --     16.1075                 5.6165                10.4811

                     25                     26                     27
                      A                      A                      A
 Frequencies --    823.5739               845.1332               868.9008
 Red. masses --      4.0956                 4.4927                 1.3088
 Frc consts  --      1.6367                 1.8906                 0.5822
 IR Inten    --     22.6030                10.2541                 8.9165

                     28                     29                     30
                      A                      A                      A
 Frequencies --    894.4021               955.5946               998.8348
 Red. masses --      1.2891                 3.9318                 2.5048
 Frc consts  --      0.6076                 2.1154                 1.4723
 IR Inten    --      1.2656                11.8408                12.1037

                     31                     32                     33
                      A                      A                      A
 Frequencies --   1047.7145              1062.8571              1072.1674
 Red. masses --      2.9979                 1.7290                 1.4966
 Frc consts  --      1.9389                 1.1508                 1.0136
 IR Inten    --     32.1432                 5.4124                 0.7926

                     34                     35                     36
                      A                      A                      A
 Frequencies --   1077.2325              1122.6023              1127.1203
 Red. masses --      1.4807                 1.1400                 2.6613
 Frc consts  --      1.0124                 0.8465                 1.9920
 IR Inten    --      1.9265                 4.5325                73.2172

                     37                     38                     39
                      A                      A                      A
 Frequencies --   1189.9824              1213.8574              1237.7471
 Red. masses --      1.2585                 1.6445                 1.8989
 Frc consts  --      1.0500                 1.4276                 1.7140
 IR Inten    --      1.1140                21.0396                54.1036

                     40                     41                     42
                      A                      A                      A
 Frequencies --   1254.6995              1303.5826              1355.3107
 Red. masses --      2.3777                 3.6304                 4.5663
 Frc consts  --      2.2054                 3.6348                 4.9419
 IR Inten    --     65.4056                23.0453                 1.1156

                     43                     44                     45
                      A                      A                      A
 Frequencies --   1373.7296              1433.5239              1443.5729
 Red. masses --      2.7864                 1.2612                 1.5011
 Frc consts  --      3.0981                 1.5271                 1.8430
 IR Inten    --      0.5520                 2.5671                 5.5452

                     46                     47                     48
                      A                      A                      A
 Frequencies --   1452.9438              1480.8840              1503.3614
 Red. masses --      2.1273                 3.6138                 1.2236
 Frc consts  --      2.6459                 4.6693                 1.6293
 IR Inten    --     61.1921                 5.5572                 5.1413

                     49                     50                     51
                      A                      A                      A
 Frequencies --   1510.6534              1515.2533              1518.8645
 Red. masses --      1.2096                 1.0741                 1.1770
 Frc consts  --      1.6263                 1.4531                 1.5999
 IR Inten    --     15.8610                 7.4136                 7.2078

                     52                     53                     54
                      A                      A                      A
 Frequencies --   1524.4120              1528.5177              1540.2281
 Red. masses --      1.1597                 1.0760                 1.0547
 Frc consts  --      1.5878                 1.4812                 1.4742
 IR Inten    --      9.0633                12.7345                 7.3038

                     55                     56                     57
                      A                      A                      A
 Frequencies --   1555.6783              1617.0332              1652.3323
 Red. masses --      3.4511                 7.0904                 6.5696
 Frc consts  --      4.9209                10.9235                10.5678
 IR Inten    --      6.9187                 0.7342                 1.9491

                     58                     59                     60
                      A                      A                      A
 Frequencies --   3026.6971              3042.5088              3049.4084
 Red. masses --      1.0328                 1.0437                 1.0399
 Frc consts  --      5.5745                 5.6924                 5.6976
 IR Inten    --     48.5373                29.5167                36.9294

                     61                     62                     63
                      A                      A                      A
 Frequencies --   3083.2980              3095.8758              3105.2135
 Red. masses --      1.1058                 1.0964                 1.0956
 Frc consts  --      6.1938                 6.1915                 6.2240
 IR Inten    --     47.8011                18.2870                20.0060

                     64                     65                     66
                      A                      A                      A
 Frequencies --   3135.3055              3146.1875              3157.0563
 Red. masses --      1.1033                 1.1015                 1.0976
 Frc consts  --      6.3899                 6.4242                 6.4458
 IR Inten    --     15.0700                40.8768                 6.4787

                     67                     68                     69
                      A                      A                      A
 Frequencies --   3193.9031              3228.5730              3267.0089
 Red. masses --      1.0909                 1.0897                 1.0977
 Frc consts  --      6.5564                 6.6923                 6.9030
 IR Inten    --      9.7987                 4.9915                 1.8469

 - Thermochemistry -
 -------------------
 Temperature   298.150 Kelvin.  Pressure   1.00000 Atm.
 Atom     1 has atomic number  6 and mass  12.00000

 Molecular mass:   192.06089 amu.
 Principal axes and moments of inertia in atomic units:
                           1         2         3
     Eigenvalues --  1366.342663434.246404631.29961
           X            0.99976   0.01997  -0.00932
           Y           -0.01994   0.99979   0.00379
           Z            0.00940  -0.00360   0.99995
 This molecule is an asymmetric top.
 Rotational symmetry number  1.
 Warning -- assumption of classical behavior for rotation
           may cause significant error
 Rotational temperatures (Kelvin)      0.06339     0.02522     0.01870
 Rotational constants (GHZ):           1.32086     0.52551     0.38968
 Zero-point vibrational energy     532243.4 (Joules/Mol)
                                  127.20923 (Kcal/Mol)
 Warning -- explicit consideration of  19 degrees of freedom as
           vibrations may cause significant error
 Vibrational temperatures:    117.40   126.50   160.52   199.35   225.03
          (Kelvin)            231.21   242.94   324.71   378.96   414.62
                              433.61   490.99   552.48   643.48   663.52
                              699.30   769.85   780.09   869.33   916.12
                              958.45  1053.22  1083.32  1118.75  1184.94
                             1215.96  1250.15  1286.85  1374.89  1437.10
                             1507.43  1529.21  1542.61  1549.90  1615.17
                             1621.67  1712.12  1746.47  1780.84  1805.23
                             1875.56  1949.99  1976.49  2062.52  2076.98
                             2090.46  2130.66  2163.00  2173.49  2180.11
                             2185.31  2193.29  2199.20  2216.04  2238.27
                             2326.55  2377.34  4354.74  4377.49  4387.42
                             4436.18  4454.27  4467.71  4511.01  4526.66
                             4542.30  4595.31  4645.20  4700.50

 Zero-point correction=                           0.202721 (Hartree/Particle)
 Thermal correction to Energy=                    0.215369
 Thermal correction to Enthalpy=                  0.216313
 Thermal correction to Gibbs Free Energy=         0.164064
 Sum of electronic and zero-point Energies=           -899.656333
 Sum of electronic and thermal Energies=              -899.643685
 Sum of electronic and thermal Enthalpies=            -899.642741
 Sum of electronic and thermal Free Energies=         -899.694990

                     E (Thermal)             CV                S
                      KCal/Mol        Cal/Mol-Kelvin    Cal/Mol-Kelvin
 Total                  135.146             47.744            109.968
 Electronic               0.000              0.000              0.000
 Translational            0.889              2.981             41.663
 Rotational               0.889              2.981             31.453
 Vibrational            133.368             41.782             36.851
 Vibration     1          0.600              1.962              3.852
 Vibration     2          0.601              1.958              3.706
 Vibration     3          0.607              1.940              3.241
 Vibration     4          0.614              1.915              2.824
 Vibration     5          0.620              1.895              2.593
 Vibration     6          0.622              1.891              2.542
 Vibration     7          0.625              1.881              2.448
 Vibration     8          0.650              1.802              1.913
 Vibration     9          0.670              1.740              1.639
 Vibration    10          0.685              1.696              1.485
 Vibration    11          0.693              1.671              1.409
 Vibration    12          0.721              1.593              1.206
 Vibration    13          0.753              1.504              1.023
 Vibration    14          0.806              1.367              0.804
 Vibration    15          0.819              1.336              0.763
 Vibration    16          0.842              1.281              0.694
 Vibration    17          0.890              1.172              0.576
 Vibration    18          0.897              1.157              0.561
 Vibration    19          0.963              1.023              0.442

 Optimization completed.
    -- Stationary point found.
 Normal termination of Gaussian 16 at Wed Dec  9 23:16:39 2020.

 ----------------------------------------------------------------------
 # B3LYP/6-311++G(d,p) empiricaldispersion=gd3bj scf=xqc pop=npa geom=c
 heck
 ----------------------------------------------------------------------

 ---------------------------------------
 CID_131012128_JID_3389_Energie_neutraal
 ---------------------------------------
 Structure from the checkpoint file:  "JID_3389.chk"
 Charge =  0 Multiplicity = 1

 SCF Done:  E(RB3LYP) =  -900.015321827     A.U. after   16 cycles
 Normal termination of Gaussian 16 at Wed Dec  9 23:19:39 2020.

 ----------------------------------------------------------------------
 # B3LYP/6-311++G(d,p) empiricaldispersion=gd3bj scf=xqc pop=npa geom=c
 heck
 ----------------------------------------------------------------------

 -------------------------------------
 CID_131012128_JID_3389_Energie_kation
 -------------------------------------
 Structure from the checkpoint file:  "JID_3389.chk"
 Charge =  1 Multiplicity = 2

 SCF Done:  E(UB3LYP) =  -899.733739796     A.U. after   26 cycles
 Normal termination of Gaussian 16 at Wed Dec  9 23:26:38 2020.
 Gaussian 16:  ES64L-G16RevA.03 25-Dec-2016

 ----------------------------------------------------------------------
 # B3LYP/6-311++G(d,p) empiricaldispersion=gd3bj scf=xqc pop=npa geom=c
 heck
 ----------------------------------------------------------------------

 ------------------------------------
 CID_131012128_JID_3389_Energie_anion
 ------------------------------------
 Structure from the checkpoint file:  "JID_3389.chk"
 Charge = -1 Multiplicity = 2

                         Standard orientation:
 ---------------------------------------------------------------------
 Center     Atomic      Atomic             Coordinates (Angstroms)
 Number     Number       Type             X           Y           Z
 ---------------------------------------------------------------------
      1          6           0       -2.187426   -2.355099   -0.232156
      2          6           0       -1.094932   -1.319337   -0.154456
      3          6           0        0.240775   -1.686510   -0.036333
      4          6           0        1.219322   -0.691161    0.014677
      5          6           0        0.889879    0.681187   -0.069218
      6          6           0        2.062764    1.517044   -0.006640
      7          6           0        3.215035    0.808176    0.117963
      8         16           0        2.954914   -0.922640    0.166123
      9          6           0       -0.463822    1.066273   -0.199355
     10          6           0       -1.423206    0.056378   -0.224853
     11          8           0       -2.762313    0.387937   -0.373088
     12          6           0       -3.423102    0.665120    0.858354
     13          6           0       -0.846328    2.518460   -0.321425
     14          1           0       -2.832146   -2.181777   -1.099690
     15          1           0       -2.836229   -2.331238    0.652237
     16          1           0       -1.763698   -3.360935   -0.306064
     17          1           0        0.512435   -2.737105    0.012426
     18          1           0        2.034152    2.599549   -0.048891
     19          1           0        4.223562    1.193361    0.188078
     20          1           0       -3.369256   -0.190813    1.543735
     21          1           0       -2.988963    1.541742    1.356770
     22          1           0       -4.468290    0.867998    0.613088
     23          1           0       -0.200067    3.033383   -1.041032
     24          1           0       -1.879398    2.616194   -0.659980
     25          1           0       -0.745965    3.045212    0.636711
 ---------------------------------------------------------------------

 SCF Done:  E(UB3LYP) =  -900.000074706     A.U. after   33 cycles
 SCF Done:  E(UB3LYP) =  -900.000074706     a.u. after    1 cycles

 The electronic state is 2-A.
 Alpha  occ. eigenvalues --  -88.76155 -19.02578 -10.10751 -10.10661 -10.09262
 Alpha  occ. eigenvalues --  -10.08513 -10.06941 -10.06756 -10.06460 -10.06361
 Alpha  occ. eigenvalues --  -10.06339 -10.06205 -10.05420  -7.84783  -5.81092
 Alpha  occ. eigenvalues --   -5.80742  -5.80328  -0.94180  -0.77896  -0.72079
 Alpha  occ. eigenvalues --   -0.68037  -0.63817  -0.61614  -0.60092  -0.56592
 Alpha  occ. eigenvalues --   -0.55635  -0.48240  -0.45952  -0.44952  -0.40950
 Alpha  occ. eigenvalues --   -0.39281  -0.35458  -0.35233  -0.33296  -0.32234
 Alpha  occ. eigenvalues --   -0.31357  -0.31049  -0.30624  -0.30007  -0.28575
 Alpha  occ. eigenvalues --   -0.27626  -0.27101  -0.26330  -0.24438  -0.24061
 Alpha  occ. eigenvalues --   -0.22449  -0.20352  -0.16725  -0.16682  -0.11857
 Alpha  occ. eigenvalues --   -0.10667   0.04931
 Alpha virt. eigenvalues --    0.06741   0.07129   0.07532   0.08556   0.09355
 Alpha virt. eigenvalues --    0.09784   0.10106   0.10653   0.11307   0.11659
 Alpha virt. eigenvalues --    0.12263   0.12726   0.13153   0.14082   0.14426

  Beta  occ. eigenvalues --  -88.76148 -19.02578 -10.10779 -10.10616 -10.09281
  Beta  occ. eigenvalues --  -10.08354 -10.06879 -10.06741 -10.06320 -10.06311
  Beta  occ. eigenvalues --  -10.06306 -10.06189 -10.05404  -7.84777  -5.81091
  Beta  occ. eigenvalues --   -5.80740  -5.80305  -0.94176  -0.77800  -0.71939
  Beta  occ. eigenvalues --   -0.67869  -0.63705  -0.61536  -0.60026  -0.56469
  Beta  occ. eigenvalues --   -0.55540  -0.48044  -0.45906  -0.44809  -0.40894
  Beta  occ. eigenvalues --   -0.39216  -0.35381  -0.35159  -0.33211  -0.32171
  Beta  occ. eigenvalues --   -0.31262  -0.30935  -0.30485  -0.29929  -0.28526
  Beta  occ. eigenvalues --   -0.27442  -0.27066  -0.26264  -0.24378  -0.24006
  Beta  occ. eigenvalues --   -0.22393  -0.20000  -0.16678  -0.16388  -0.11564
  Beta  occ. eigenvalues --   -0.10145
  Beta virt. eigenvalues --    0.07151   0.07481   0.08101   0.08261   0.08999
  Beta virt. eigenvalues --    0.09534   0.10093   0.10381   0.11127   0.11653
  Beta virt. eigenvalues --    0.11916   0.12538   0.12930   0.13258   0.14158

 Mulliken charges and spin densities:
               1          2
     1  C    0.990455  -1.324291
     2  C    0.442815   1.138018
     3  C   -0.136693  -0.620499
     4  C   -0.825492   0.492451
     5  C    1.321647  -0.160898
     6  C    0.458013  -0.345408
     7  C   -0.196983   0.134439
     8  S   -0.594410  -0.240440
     9  C    0.989539  -0.419753
    10  C   -3.051181   1.134610
    11  O   -0.190216   0.055032
    12  C    1.149799  -1.454828
    13  C    0.481261  -1.093595
    14  H    0.008287   0.176454
    15  H    0.134235   0.007930
    16  H   -0.213032   0.352483
    17  H    0.004931   0.127972
    18  H   -0.193975   0.330134
    19  H   -0.322578   0.544681
    20  H   -0.318374   0.440877
    21  H   -0.428633   0.576859
    22  H   -0.297866   0.452329
    23  H    0.057971   0.051436
    24  H    0.063733   0.112696
    25  H   -0.333254   0.531310
 Sum of Mulliken charges =  -1.00000   1.00000

 Dipole moment (field-independent basis, Debye):
    X=              3.3613    Y=             -3.1727    Z=             -1.6080  Tot=              4.8938
 Quadrupole moment (field-independent basis, Debye-Ang):
   XX=           -150.9011   YY=           -124.4535   ZZ=           -111.1152
   XY=              1.3380   XZ=              4.9183   YZ=             -7.4594

 Summary of Natural Population Analysis:

                                       Natural Population
                Natural  -----------------------------------------------
    Atom  No    Charge         Core      Valence    Rydberg      Total
 -----------------------------------------------------------------------
      C    1   -0.29076      0.99964     2.28581    0.00531     3.29076
      C    2   -0.01637      0.99948     2.00874    0.00815     3.01637
      C    3   -0.10444      0.99946     2.09569    0.00928     3.10444
      C    4   -0.08914      0.99940     2.07933    0.01040     3.08914
      C    5   -0.04421      0.99944     2.03442    0.01035     3.04421
      C    6   -0.12128      0.99950     2.11126    0.01053     3.12128
      C    7   -0.15285      0.99953     2.14258    0.01074     3.15285
      S    8    0.17236      4.99945     2.80675    0.02144     7.82764
      C    9    0.00452      0.99943     1.98654    0.00951     2.99548
      C   10    0.14340      0.99928     1.84299    0.01433     2.85660
      O   11   -0.29807      0.99987     3.28806    0.01014     4.29807
      C   12   -0.09530      0.99959     2.08641    0.00930     3.09530
      C   13   -0.29829      0.99964     2.29280    0.00585     3.29829
      H   14    0.10789      0.00000     0.39050    0.00161     0.39211
      H   15    0.10159      0.00000     0.39693    0.00148     0.39841
      H   16    0.09764      0.00000     0.40137    0.00099     0.40236
      H   17    0.09708      0.00000     0.40157    0.00135     0.40292
      H   18    0.10782      0.00000     0.39115    0.00103     0.39218
      H   19    0.10452      0.00000     0.39441    0.00107     0.39548
      H   20    0.08042      0.00000     0.41808    0.00151     0.41958
      H   21    0.08461      0.00000     0.41333    0.00206     0.41539
      H   22    0.08965      0.00000     0.40863    0.00172     0.41035
      H   23    0.10046      0.00000     0.39856    0.00098     0.39954
      H   24    0.10909      0.00000     0.38971    0.00120     0.39091
      H   25    0.10966      0.00000     0.38785    0.00250     0.39034
 =======================================================================
   * Total *   -0.00000     16.99370    33.85347    0.15283    51.00000

 Normal termination of Gaussian 16 at Wed Dec  9 23:35:37 2020.
