 Gaussian 16, Revision A.03,

 -----------------------------------------------------------
 # opt freq B3LYP/6-31G(d) empiricaldispersion=gd3bj scf=xqc
 -----------------------------------------------------------

 -------------------------------
 CID_151019414_JID_4939_neutraal
 -------------------------------
 Symbolic Z-matrix:
 Charge =  0 Multiplicity = 1

 SCF Done:  E(RB3LYP) =  -647.994544595     A.U. after   15 cycles
 SCF Done:  E(RB3LYP) =  -647.998852924     A.U. after   13 cycles
 SCF Done:  E(RB3LYP) =  -648.000455928     A.U. after   12 cycles
 SCF Done:  E(RB3LYP) =  -648.000857455     A.U. after   12 cycles
 SCF Done:  E(RB3LYP) =  -648.001077262     A.U. after   12 cycles
 SCF Done:  E(RB3LYP) =  -648.001138559     A.U. after   11 cycles
 SCF Done:  E(RB3LYP) =  -648.001195329     A.U. after   10 cycles
 SCF Done:  E(RB3LYP) =  -648.001203300     A.U. after    9 cycles
 SCF Done:  E(RB3LYP) =  -648.001204468     A.U. after    9 cycles
 SCF Done:  E(RB3LYP) =  -648.001206217     A.U. after    8 cycles
 SCF Done:  E(RB3LYP) =  -648.002199620     A.U. after   13 cycles
 SCF Done:  E(RB3LYP) =  -648.002244278     A.U. after   11 cycles
 SCF Done:  E(RB3LYP) =  -648.002255137     A.U. after   10 cycles
 SCF Done:  E(RB3LYP) =  -648.002256659     A.U. after    8 cycles
 SCF Done:  E(RB3LYP) =  -648.002256939     A.U. after    7 cycles
 Optimization completed.
    -- Stationary point found.
 Normal termination of Gaussian 16 at Thu Dec 10 11:13:01 2020.

 --------------------------------------------------------------------
 #N Geom=AllCheck Guess=TCheck SCRF=Check GenChk RB3LYP/6-31G(d) Freq
 --------------------------------------------------------------------

 Structure from the checkpoint file:  "JID_4939.chk"
 -------------------------------
 CID_151019414_JID_4939_neutraal
 -------------------------------
 Charge =  0 Multiplicity = 1

 SCF Done:  E(RB3LYP) =  -648.002256939     A.U. after    1 cycles

  Exact polarizability: 124.029  -5.053 135.581  -0.577   6.456 107.970
 Approx polarizability: 157.984 -16.301 239.234  -3.485  21.985 160.990

                      1                      2                      3
                      A                      A                      A
 Frequencies --     42.9520                57.2364                77.4868
 Red. masses --      4.0765                 5.0135                 3.7460
 Frc consts  --      0.0044                 0.0097                 0.0133
 IR Inten    --      0.1797                 0.1736                 0.2187

                      4                      5                      6
                      A                      A                      A
 Frequencies --    119.4355               136.9954               155.6597
 Red. masses --      2.6250                 3.9416                 2.1348
 Frc consts  --      0.0221                 0.0436                 0.0305
 IR Inten    --      0.0803                 0.3851                 1.0830

                      7                      8                      9
                      A                      A                      A
 Frequencies --    178.1618               208.4404               240.3733
 Red. masses --      3.4116                 1.3390                 2.2577
 Frc consts  --      0.0638                 0.0343                 0.0769
 IR Inten    --      0.4443                 0.7068                 1.5328

                     10                     11                     12
                      A                      A                      A
 Frequencies --    245.3241               263.9800               276.4634
 Red. masses --      1.2886                 4.1448                 2.3752
 Frc consts  --      0.0457                 0.1702                 0.1070
 IR Inten    --      0.3929                11.2806                 0.3976

                     13                     14                     15
                      A                      A                      A
 Frequencies --    330.8374               344.8052               382.1433
 Red. masses --      3.8642                 1.9727                 2.4277
 Frc consts  --      0.2492                 0.1382                 0.2089
 IR Inten    --      7.5897                 0.8066                 0.6946

                     16                     17                     18
                      A                      A                      A
 Frequencies --    389.7841               424.3647               455.4420
 Red. masses --      2.3093                 3.5872                 3.3046
 Frc consts  --      0.2067                 0.3806                 0.4039
 IR Inten    --      5.5170                 5.0451                 0.6876

                     19                     20                     21
                      A                      A                      A
 Frequencies --    489.3983               492.5755               541.8342
 Red. masses --      3.0176                 2.8050                 3.1572
 Frc consts  --      0.4258                 0.4010                 0.5461
 IR Inten    --      2.5004                 1.7386                 8.5672

                     22                     23                     24
                      A                      A                      A
 Frequencies --    581.3843               630.6480               645.4634
 Red. masses --     12.0626                 3.0187                 2.5973
 Frc consts  --      2.4022                 0.7074                 0.6376
 IR Inten    --     11.5585                20.6453                12.1670

                     25                     26                     27
                      A                      A                      A
 Frequencies --    747.6853               765.1292               810.3134
 Red. masses --      3.3529                 2.2731                 1.3589
 Frc consts  --      1.1044                 0.7840                 0.5257
 IR Inten    --     18.5971                18.3373                 9.0031

                     28                     29                     30
                      A                      A                      A
 Frequencies --    846.3068               875.9383               879.1020
 Red. masses --      1.8870                 1.6845                 2.2699
 Frc consts  --      0.7963                 0.7615                 1.0336
 IR Inten    --     42.7751                 7.0335                55.7730

                     31                     32                     33
                      A                      A                      A
 Frequencies --    916.2777               946.4382               977.7175
 Red. masses --      2.7625                 2.3102                 1.6013
 Frc consts  --      1.3665                 1.2192                 0.9019
 IR Inten    --     15.1811                 5.4609                11.4037

                     34                     35                     36
                      A                      A                      A
 Frequencies --   1013.9855              1040.8791              1051.4598
 Red. masses --      2.3092                 1.8626                 2.1759
 Frc consts  --      1.3989                 1.1890                 1.4174
 IR Inten    --     66.1819                11.2554                 5.0265

                     37                     38                     39
                      A                      A                      A
 Frequencies --   1064.2735              1098.2371              1106.9543
 Red. masses --      2.4207                 1.9960                 1.7384
 Frc consts  --      1.6155                 1.4184                 1.2550
 IR Inten    --      7.5653                 3.4077                 2.7330

                     40                     41                     42
                      A                      A                      A
 Frequencies --   1121.2864              1151.7979              1154.8246
 Red. masses --      2.1772                 2.0432                 2.5213
 Frc consts  --      1.6128                 1.5970                 1.9811
 IR Inten    --      8.6068                54.3070                29.3987

                     43                     44                     45
                      A                      A                      A
 Frequencies --   1161.0698              1179.9159              1214.2738
 Red. masses --      3.3749                 4.1674                 2.4195
 Frc consts  --      2.6805                 3.4183                 2.1019
 IR Inten    --     78.1903                 9.3204                74.7081

                     46                     47                     48
                      A                      A                      A
 Frequencies --   1252.0947              1259.4296              1313.6960
 Red. masses --      1.0742                 2.3592                 1.2666
 Frc consts  --      0.9922                 2.2048                 1.2879
 IR Inten    --      2.2607                 6.0208                40.6626

                     49                     50                     51
                      A                      A                      A
 Frequencies --   1327.1943              1329.4077              1338.7118
 Red. masses --      2.2199                 2.0820                 1.3698
 Frc consts  --      2.3038                 2.1680                 1.4464
 IR Inten    --     25.8950                81.3354                12.8493

                     52                     53                     54
                      A                      A                      A
 Frequencies --   1348.6896              1357.9379              1377.9522
 Red. masses --      1.4099                 1.2288                 1.3465
 Frc consts  --      1.5110                 1.3350                 1.5063
 IR Inten    --     17.6104                 0.9206                 3.8042

                     55                     56                     57
                      A                      A                      A
 Frequencies --   1392.4790              1413.1931              1415.5149
 Red. masses --      1.3300                 1.3532                 1.4393
 Frc consts  --      1.5194                 1.5922                 1.6991
 IR Inten    --      1.6332                 9.5333                 2.9325

                     58                     59                     60
                      A                      A                      A
 Frequencies --   1432.2811              1440.1188              1441.2358
 Red. masses --      1.4077                 1.2498                 1.2534
 Frc consts  --      1.7014                 1.5271                 1.5340
 IR Inten    --      3.0335                 2.1035                 5.2657

                     61                     62                     63
                      A                      A                      A
 Frequencies --   1449.1318              1510.2995              1513.6455
 Red. masses --      1.3518                 1.0788                 1.0837
 Frc consts  --      1.6725                 1.4498                 1.4629
 IR Inten    --     11.5967                 0.0906                 0.4119

                     64                     65                     66
                      A                      A                      A
 Frequencies --   1516.7843              1522.8973              1526.0533
 Red. masses --      1.0613                 1.0872                 1.0600
 Frc consts  --      1.4386                 1.4857                 1.4545
 IR Inten    --      0.6186                 7.4557                 8.7098

                     67                     68                     69
                      A                      A                      A
 Frequencies --   1531.6710              1534.3622              1535.3136
 Red. masses --      1.1034                 1.0722                 1.0444
 Frc consts  --      1.5252                 1.4873                 1.4505
 IR Inten    --      2.1373                 9.1727                 3.4258

                     70                     71                     72
                      A                      A                      A
 Frequencies --   1542.5154              1559.6826              2239.5235
 Red. masses --      1.0489                 1.0760                13.9379
 Frc consts  --      1.4705                 1.5422                41.1870
 IR Inten    --      0.6560                 5.8579               563.6652

                     73                     74                     75
                      A                      A                      A
 Frequencies --   2983.2264              2989.1424              2994.9042
 Red. masses --      1.0723                 1.0725                 1.0701
 Frc consts  --      5.6225                 5.6458                 5.6554
 IR Inten    --     33.3752                 9.9152                 2.3896

                     76                     77                     78
                      A                      A                      A
 Frequencies --   3000.8846              3059.9884              3061.5870
 Red. masses --      1.0700                 1.0354                 1.0368
 Frc consts  --      5.6772                 5.7121                 5.7259
 IR Inten    --    136.0184                23.5846                22.4454

                     79                     80                     81
                      A                      A                      A
 Frequencies --   3073.5354              3083.7195              3110.7937
 Red. masses --      1.0612                 1.0661                 1.1005
 Frc consts  --      5.9067                 5.9728                 6.2743
 IR Inten    --     18.4566                 8.1748                10.8430

                     82                     83                     84
                      A                      A                      A
 Frequencies --   3114.5726              3115.9313              3116.6676
 Red. masses --      1.0939                 1.0987                 1.0954
 Frc consts  --      6.2519                 6.2853                 6.2689
 IR Inten    --     38.6433                 9.4418                32.3705

                     85                     86                     87
                      A                      A                      A
 Frequencies --   3124.3622              3126.6912              3136.4778
 Red. masses --      1.1010                 1.1012                 1.0893
 Frc consts  --      6.3324                 6.3429                 6.3136
 IR Inten    --     42.4009                 5.8546                34.1710

                     88                     89                     90
                      A                      A                      A
 Frequencies --   3136.9320              3144.8632              3147.0982
 Red. masses --      1.1017                 1.1009                 1.0909
 Frc consts  --      6.3875                 6.4153                 6.3656
 IR Inten    --     38.4362                34.9815                23.5514

 - Thermochemistry -
 -------------------
 Temperature   298.150 Kelvin.  Pressure   1.00000 Atm.
 Atom     1 has atomic number  6 and mass  12.00000

 Molecular mass:   198.14806 amu.
 Principal axes and moments of inertia in atomic units:
                           1         2         3
     Eigenvalues --  1974.693393494.923573988.99565
           X            0.99899   0.04458  -0.00540
           Y           -0.04425   0.99770   0.05142
           Z            0.00768  -0.05113   0.99866
 This molecule is an asymmetric top.
 Rotational symmetry number  1.
 Warning -- assumption of classical behavior for rotation
           may cause significant error
 Rotational temperatures (Kelvin)      0.04386     0.02478     0.02171
 Rotational constants (GHZ):           0.91393     0.51639     0.45243
 Zero-point vibrational energy     740358.3 (Joules/Mol)
                                  176.94989 (Kcal/Mol)
 Warning -- explicit consideration of  22 degrees of freedom as
           vibrations may cause significant error
 Vibrational temperatures:     61.80    82.35   111.49   171.84   197.11
          (Kelvin)            223.96   256.34   299.90   345.84   352.97
                              379.81   397.77   476.00   496.10   549.82
                              560.81   610.57   655.28   704.14   708.71
                              779.58   836.48   907.36   928.68  1075.75
                             1100.85  1165.86  1217.65  1260.28  1264.83
                             1318.32  1361.71  1406.72  1458.90  1497.59
                             1512.82  1531.25  1580.12  1592.66  1613.28
                             1657.18  1661.53  1670.52  1697.64  1747.07
                             1801.48  1812.04  1890.12  1909.54  1912.72
                             1926.11  1940.46  1953.77  1982.57  2003.47
                             2033.27  2036.61  2060.73  2072.01  2073.62
                             2084.98  2172.98  2177.80  2182.31  2191.11
                             2195.65  2203.73  2207.60  2208.97  2219.34
                             2244.04  3222.17  4292.20  4300.71  4309.00
                             4317.60  4402.64  4404.94  4422.13  4436.78
                             4475.74  4481.18  4483.13  4484.19  4495.26
                             4498.61  4512.69  4513.35  4524.76  4527.97

 Zero-point correction=                           0.281988 (Hartree/Particle)
 Thermal correction to Energy=                    0.296425
 Thermal correction to Enthalpy=                  0.297369
 Thermal correction to Gibbs Free Energy=         0.240927
 Sum of electronic and zero-point Energies=           -647.720269
 Sum of electronic and thermal Energies=              -647.705832
 Sum of electronic and thermal Enthalpies=            -647.704888
 Sum of electronic and thermal Free Energies=         -647.761330

                     E (Thermal)             CV                S
                      KCal/Mol        Cal/Mol-Kelvin    Cal/Mol-Kelvin
 Total                  186.009             54.893            118.792
 Electronic               0.000              0.000              0.000
 Translational            0.889              2.981             41.756
 Rotational               0.889              2.981             31.688
 Vibrational            184.232             48.931             45.348
 Vibration     1          0.595              1.980              5.118
 Vibration     2          0.596              1.975              4.550
 Vibration     3          0.599              1.964              3.954
 Vibration     4          0.609              1.933              3.109
 Vibration     5          0.614              1.916              2.845
 Vibration     6          0.620              1.896              2.602
 Vibration     7          0.629              1.869              2.348
 Vibration     8          0.642              1.828              2.057
 Vibration     9          0.657              1.779              1.800
 Vibration    10          0.660              1.771              1.764
 Vibration    11          0.671              1.739              1.635
 Vibration    12          0.678              1.717              1.555
 Vibration    13          0.713              1.614              1.256
 Vibration    14          0.723              1.586              1.190
 Vibration    15          0.752              1.508              1.031
 Vibration    16          0.758              1.492              1.001
 Vibration    17          0.786              1.417              0.877
 Vibration    18          0.814              1.349              0.779
 Vibration    19          0.845              1.274              0.685
 Vibration    20          0.848              1.266              0.677
 Vibration    21          0.897              1.158              0.561
 Vibration    22          0.938              1.072              0.483

 Optimization completed.
    -- Stationary point found.
 Normal termination of Gaussian 16 at Thu Dec 10 11:22:58 2020.

 ----------------------------------------------------------------------
 # B3LYP/6-311++G(d,p) empiricaldispersion=gd3bj scf=xqc pop=npa geom=c
 heck
 ----------------------------------------------------------------------

 ---------------------------------------
 CID_151019414_JID_4939_Energie_neutraal
 ---------------------------------------
 Structure from the checkpoint file:  "JID_4939.chk"
 Charge =  0 Multiplicity = 1

 SCF Done:  E(RB3LYP) =  -648.183181875     A.U. after   15 cycles
 Normal termination of Gaussian 16 at Thu Dec 10 11:26:51 2020.

 ----------------------------------------------------------------------
 # B3LYP/6-311++G(d,p) empiricaldispersion=gd3bj scf=xqc pop=npa geom=c
 heck
 ----------------------------------------------------------------------

 -------------------------------------
 CID_151019414_JID_4939_Energie_kation
 -------------------------------------
 Structure from the checkpoint file:  "JID_4939.chk"
 Charge =  1 Multiplicity = 2

 SCF Done:  E(UB3LYP) =  -647.881300556     A.U. after   26 cycles
 Normal termination of Gaussian 16 at Thu Dec 10 11:35:56 2020.
 Gaussian 16:  ES64L-G16RevA.03 25-Dec-2016

 ----------------------------------------------------------------------
 # B3LYP/6-311++G(d,p) empiricaldispersion=gd3bj scf=xqc pop=npa geom=c
 heck
 ----------------------------------------------------------------------

 ------------------------------------
 CID_151019414_JID_4939_Energie_anion
 ------------------------------------
 Structure from the checkpoint file:  "JID_4939.chk"
 Charge = -1 Multiplicity = 2

                         Standard orientation:
 ---------------------------------------------------------------------
 Center     Atomic      Atomic             Coordinates (Angstroms)
 Number     Number       Type             X           Y           Z
 ---------------------------------------------------------------------
      1          6           0       -1.236072   -0.988653    2.334185
      2          6           0       -1.527003    0.068101    1.267649
      3          6           0       -0.855478   -0.223622   -0.089792
      4          6           0       -1.430467   -1.501087   -0.738564
      5          6           0       -2.957261   -1.597481   -0.738010
      6          7           0       -1.221156    0.875033   -1.099091
      7          7           0       -1.368266    2.015817   -0.663445
      8          7           0       -1.535847    3.108880   -0.364784
      9          7           0        0.590191   -0.334252    0.063436
     10          6           0        1.335386   -0.787831   -1.118720
     11          6           0        2.790661   -1.053724   -0.744136
     12          8           0        3.419273    0.094678   -0.199820
     13          6           0        2.708438    0.536742    0.943651
     14          6           0        1.254263    0.855834    0.610933
     15          1           0       -1.625913   -1.969953    2.044127
     16          1           0       -1.706482   -0.711090    3.283298
     17          1           0       -0.160031   -1.096256    2.495249
     18          1           0       -2.604007    0.147324    1.096341
     19          1           0       -1.221194    1.052173    1.635282
     20          1           0       -1.093833   -1.529843   -1.777867
     21          1           0       -0.991723   -2.365895   -0.229185
     22          1           0       -3.402903   -0.690844   -1.159670
     23          1           0       -3.275097   -2.445040   -1.354073
     24          1           0       -3.367642   -1.750254    0.265059
     25          1           0        1.290487   -0.041296   -1.929522
     26          1           0        0.912503   -1.721153   -1.492444
     27          1           0        2.830653   -1.884661   -0.020168
     28          1           0        3.363982   -1.332594   -1.632913
     29          1           0        3.219626    1.433993    1.303997
     30          1           0        2.741120   -0.232999    1.732746
     31          1           0        1.230972    1.694825   -0.104925
     32          1           0        0.756030    1.178117    1.527237
 ---------------------------------------------------------------------

 SCF Done:  E(UB3LYP) =  -648.170909814     A.U. after   33 cycles
 SCF Done:  E(UB3LYP) =  -648.170909814     a.u. after    1 cycles

 The electronic state is 2-A.
 Alpha  occ. eigenvalues --  -19.02931 -14.35400 -14.25316 -14.23625 -14.21461
 Alpha  occ. eigenvalues --  -10.14843 -10.11828 -10.11757 -10.09581 -10.09460
 Alpha  occ. eigenvalues --  -10.06979 -10.06865 -10.06139 -10.05494  -1.01806
 Alpha  occ. eigenvalues --   -0.94801  -0.86813  -0.82347  -0.70843  -0.67788
 Alpha  occ. eigenvalues --   -0.65222  -0.61791  -0.56424  -0.56135  -0.52384
 Alpha  occ. eigenvalues --   -0.48876  -0.48025  -0.43815  -0.40480  -0.39398
 Alpha  occ. eigenvalues --   -0.38859  -0.37906  -0.37446  -0.36704  -0.34966
 Alpha  occ. eigenvalues --   -0.34266  -0.33497  -0.32152  -0.31761  -0.31065
 Alpha  occ. eigenvalues --   -0.29641  -0.28247  -0.27333  -0.26758  -0.26434
 Alpha  occ. eigenvalues --   -0.25853  -0.25037  -0.24033  -0.22200  -0.21799
 Alpha  occ. eigenvalues --   -0.19373  -0.16776  -0.15105  -0.12332   0.04606
 Alpha virt. eigenvalues --    0.06581   0.07198   0.07409   0.08323   0.08812
 Alpha virt. eigenvalues --    0.09548   0.10233   0.10559   0.11231   0.11643
 Alpha virt. eigenvalues --    0.11888   0.12128   0.12865   0.13638   0.13832

  Beta  occ. eigenvalues --  -19.02926 -14.35219 -14.25136 -14.23628 -14.21470
  Beta  occ. eigenvalues --  -10.14780 -10.11808 -10.11734 -10.09568 -10.09453
  Beta  occ. eigenvalues --  -10.06969 -10.06852 -10.06118 -10.05458  -1.01493
  Beta  occ. eigenvalues --   -0.94789  -0.86700  -0.82296  -0.70790  -0.67758
  Beta  occ. eigenvalues --   -0.65189  -0.61735  -0.56361  -0.56070  -0.52315
  Beta  occ. eigenvalues --   -0.48726  -0.47967  -0.43774  -0.40301  -0.39002
  Beta  occ. eigenvalues --   -0.38709  -0.37798  -0.37337  -0.36658  -0.34930
  Beta  occ. eigenvalues --   -0.33975  -0.33436  -0.32040  -0.31663  -0.31020
  Beta  occ. eigenvalues --   -0.29595  -0.28103  -0.27283  -0.26710  -0.26401
  Beta  occ. eigenvalues --   -0.25823  -0.25002  -0.23994  -0.22124  -0.21768
  Beta  occ. eigenvalues --   -0.19051  -0.16733  -0.15002  -0.12286
  Beta virt. eigenvalues --    0.06987   0.07634   0.07911   0.08537   0.08865
  Beta virt. eigenvalues --    0.09341   0.09897   0.10605   0.11091   0.11472
  Beta virt. eigenvalues --    0.11875   0.12360   0.12462   0.13013   0.13883

 Mulliken charges and spin densities:
               1          2
     1  C    1.423353  -1.968970
     2  C   -1.441408   1.333742
     3  C   -0.595165  -0.907887
     4  C   -0.533107   0.743497
     5  C    0.571281  -1.378500
     6  N    0.109081  -0.014927
     7  N    0.436471   0.110100
     8  N   -0.450502   0.083491
     9  N    0.380473   0.135160
    10  C    0.073980   0.134005
    11  C    0.333408  -0.828802
    12  O   -0.180006   0.062464
    13  C    0.752942  -1.194527
    14  C   -0.430823   0.323944
    15  H   -0.259828   0.394300
    16  H   -0.429254   0.582262
    17  H    0.023524   0.146236
    18  H    0.064198   0.112256
    19  H   -0.176245   0.348122
    20  H    0.274561  -0.083676
    21  H   -0.237160   0.433819
    22  H    0.107987   0.055424
    23  H   -0.235537   0.382102
    24  H   -0.013404   0.159498
    25  H    0.206076  -0.038195
    26  H   -0.501683   0.633924
    27  H   -0.153278   0.306931
    28  H   -0.037985   0.220590
    29  H   -0.037059   0.218582
    30  H   -0.156752   0.299065
    31  H    0.150524   0.013666
    32  H   -0.038662   0.182304
 Sum of Mulliken charges =  -1.00000   1.00000

 Dipole moment (field-independent basis, Debye):
    X=              0.6277    Y=              2.1145    Z=             -2.6900  Tot=              3.4787
 Quadrupole moment (field-independent basis, Debye-Ang):
   XX=           -137.6036   YY=           -140.3865   ZZ=           -125.7201
   XY=              0.3767   XZ=              2.1623   YZ=              0.1645

 Summary of Natural Population Analysis:

                                       Natural Population
                Natural  -----------------------------------------------
    Atom  No    Charge         Core      Valence    Rydberg      Total
 -----------------------------------------------------------------------
      C    1   -0.28499      0.99965     2.27945    0.00589     3.28499
      C    2   -0.20738      0.99957     2.19769    0.01012     3.20738
      C    3    0.17440      0.99953     1.80900    0.01708     2.82560
      C    4   -0.20092      0.99956     2.19005    0.01130     3.20092
      C    5   -0.28713      0.99966     2.28188    0.00560     3.28713
      N    6   -0.20680      0.99968     2.69334    0.01378     3.70680
      N    7    0.12915      0.99970     2.35561    0.01555     3.37085
      N    8   -0.04882      0.99982     2.53649    0.01251     3.54882
      N    9   -0.28873      0.99966     2.77437    0.01470     3.78873
      C   10   -0.10132      0.99960     2.09061    0.01111     3.10132
      C   11   -0.01296      0.99957     1.99994    0.01344     3.01296
      O   12   -0.29849      0.99989     3.28973    0.00887     4.29849
      C   13   -0.01183      0.99957     1.99923    0.01303     3.01183
      C   14   -0.10357      0.99960     2.09313    0.01084     3.10357
      H   15    0.09886      0.00000     0.39965    0.00149     0.40114
      H   16    0.09914      0.00000     0.39990    0.00096     0.40086
      H   17    0.10440      0.00000     0.39359    0.00201     0.39560
      H   18    0.10428      0.00000     0.39444    0.00128     0.39572
      H   19    0.10329      0.00000     0.39535    0.00136     0.39671
      H   20    0.10304      0.00000     0.39550    0.00146     0.39696
      H   21    0.10761      0.00000     0.39061    0.00178     0.39239
      H   22    0.10063      0.00000     0.39830    0.00106     0.39937
      H   23    0.10072      0.00000     0.39850    0.00078     0.39928
      H   24    0.09768      0.00000     0.40143    0.00090     0.40232
      H   25    0.08820      0.00000     0.41045    0.00135     0.41180
      H   26    0.10472      0.00000     0.39357    0.00171     0.39528
      H   27    0.08172      0.00000     0.41640    0.00188     0.41828
      H   28    0.09052      0.00000     0.40841    0.00107     0.40948
      H   29    0.09101      0.00000     0.40796    0.00104     0.40899
      H   30    0.08139      0.00000     0.41682    0.00179     0.41861
      H   31    0.08755      0.00000     0.41079    0.00167     0.41245
      H   32    0.10463      0.00000     0.39382    0.00154     0.39537
 =======================================================================
   * Total *   -0.00000     13.99507    39.81599    0.18895    54.00000

 Normal termination of Gaussian 16 at Thu Dec 10 11:47:14 2020.
