 Gaussian 16, Revision A.03,

 -----------------------------------------------------------
 # opt freq B3LYP/6-31G(d) empiricaldispersion=gd3bj scf=xqc
 -----------------------------------------------------------

 -------------------------------
 CID_141122043_JID_5489_neutraal
 -------------------------------
 Symbolic Z-matrix:
 Charge =  0 Multiplicity = 1

 SCF Done:  E(RB3LYP) =  -1118.26425336     A.U. after   16 cycles
 SCF Done:  E(RB3LYP) =  -1118.27146919     A.U. after   13 cycles
 SCF Done:  E(RB3LYP) =  -1118.27312554     A.U. after   13 cycles
 SCF Done:  E(RB3LYP) =  -1118.27316475     A.U. after   14 cycles
 SCF Done:  E(RB3LYP) =  -1118.27418412     A.U. after   13 cycles
 SCF Done:  E(RB3LYP) =  -1118.27444653     A.U. after   13 cycles
 SCF Done:  E(RB3LYP) =  -1118.27463235     A.U. after   12 cycles
 SCF Done:  E(RB3LYP) =  -1118.27459179     A.U. after   12 cycles
 SCF Done:  E(RB3LYP) =  -1118.27472780     A.U. after   12 cycles
 SCF Done:  E(RB3LYP) =  -1118.27480528     A.U. after   11 cycles
 SCF Done:  E(RB3LYP) =  -1118.27630009     A.U. after   10 cycles
 SCF Done:  E(RB3LYP) =  -1118.27630483     A.U. after   11 cycles
 SCF Done:  E(RB3LYP) =  -1118.27630589     A.U. after   11 cycles
 SCF Done:  E(RB3LYP) =  -1118.27630618     A.U. after    9 cycles
 SCF Done:  E(RB3LYP) =  -1118.27630632     A.U. after    8 cycles
 SCF Done:  E(RB3LYP) =  -1118.27630639     A.U. after    8 cycles
 Optimization completed.
    -- Stationary point found.
 Normal termination of Gaussian 16 at Thu Dec 10 16:22:35 2020.

 --------------------------------------------------------------------
 #N Geom=AllCheck Guess=TCheck SCRF=Check GenChk RB3LYP/6-31G(d) Freq
 --------------------------------------------------------------------

 Structure from the checkpoint file:  "JID_5489.chk"
 -------------------------------
 CID_141122043_JID_5489_neutraal
 -------------------------------
 Charge =  0 Multiplicity = 1

 SCF Done:  E(RB3LYP) =  -1118.27630639     A.U. after    1 cycles

  Exact polarizability: 184.490   0.530 127.022   4.015   1.965  71.877
 Approx polarizability: 260.257  -1.402 213.398   5.938  13.394 133.460

                      1                      2                      3
                      A                      A                      A
 Frequencies --     22.1553                33.4938                48.6312
 Red. masses --      9.2082                 7.0928                 7.5284
 Frc consts  --      0.0027                 0.0047                 0.0105
 IR Inten    --      0.6333                 0.9663                 0.9275

                      4                      5                      6
                      A                      A                      A
 Frequencies --     63.4144                76.1676               146.5148
 Red. masses --      9.2307                 8.7427                 7.2480
 Frc consts  --      0.0219                 0.0299                 0.0917
 IR Inten    --      1.7357                 1.5988                 0.7535

                      7                      8                      9
                      A                      A                      A
 Frequencies --    160.2127               198.2862               230.9857
 Red. masses --      5.1550                 6.1087                 5.8375
 Frc consts  --      0.0780                 0.1415                 0.1835
 IR Inten    --      1.7877                 0.3138                 1.1933

                     10                     11                     12
                      A                      A                      A
 Frequencies --    280.7108               317.3773               362.8809
 Red. masses --      5.0966                 4.5442                 4.1318
 Frc consts  --      0.2366                 0.2697                 0.3206
 IR Inten    --     25.2039                 8.3204                 3.3531

                     13                     14                     15
                      A                      A                      A
 Frequencies --    378.9340               392.3211               418.1907
 Red. masses --      7.6911                 3.4699                 1.7734
 Frc consts  --      0.6507                 0.3147                 0.1827
 IR Inten    --      2.1659                42.4670               142.8811

                     16                     17                     18
                      A                      A                      A
 Frequencies --    430.4328               475.5078               483.4850
 Red. masses --      2.9159                 4.2718                 4.7347
 Frc consts  --      0.3183                 0.5691                 0.6521
 IR Inten    --     35.6723                16.4085                71.0135

                     19                     20                     21
                      A                      A                      A
 Frequencies --    521.4462               559.1902               600.4862
 Red. masses --      3.5499                 3.0814                 2.9743
 Frc consts  --      0.5687                 0.5677                 0.6319
 IR Inten    --      6.1659                43.7461                32.5810

                     22                     23                     24
                      A                      A                      A
 Frequencies --    614.1078               625.9228               645.3720
 Red. masses --      4.0244                 1.4917                 4.6925
 Frc consts  --      0.8942                 0.3443                 1.1515
 IR Inten    --     30.8643                68.9635                40.8752

                     25                     26                     27
                      A                      A                      A
 Frequencies --    654.9625               697.5510               723.2135
 Red. masses --      2.6326                 2.3124                 1.6250
 Frc consts  --      0.6654                 0.6629                 0.5008
 IR Inten    --     34.9461                 2.3490                 2.1194

                     28                     29                     30
                      A                      A                      A
 Frequencies --    755.4942               769.2815               821.6841
 Red. masses --      3.7787                 3.5969                 1.7455
 Frc consts  --      1.2707                 1.2541                 0.6944
 IR Inten    --     34.5166                62.6479                 7.3904

                     31                     32                     33
                      A                      A                      A
 Frequencies --    848.9478               913.2284               924.7990
 Red. masses --      2.8767                 1.5111                 1.4290
 Frc consts  --      1.2216                 0.7425                 0.7201
 IR Inten    --    126.5543                 9.6517                 1.3302

                     34                     35                     36
                      A                      A                      A
 Frequencies --    958.7696               986.8055              1020.9004
 Red. masses --      4.2131                 1.2946                 6.2481
 Frc consts  --      2.2818                 0.7428                 3.8367
 IR Inten    --     30.9388                 0.3464                 1.0384

                     37                     38                     39
                      A                      A                      A
 Frequencies --   1070.1367              1108.4921              1130.3554
 Red. masses --     10.4891                 2.4945                 2.2739
 Frc consts  --      7.0773                 1.8059                 1.7118
 IR Inten    --    141.6765                83.9309                19.9515

                     40                     41                     42
                      A                      A                      A
 Frequencies --   1133.4514              1199.2892              1206.4532
 Red. masses --      1.6788                 1.3263                 1.4087
 Frc consts  --      1.2707                 1.1239                 1.2081
 IR Inten    --      0.8564               142.4044               135.9356

                     43                     44                     45
                      A                      A                      A
 Frequencies --   1268.8992              1288.5900              1311.3852
 Red. masses --      2.4472                 2.6247                 1.6136
 Frc consts  --      2.3215                 2.5678                 1.6349
 IR Inten    --    175.0259                97.0553                28.3800

                     46                     47                     48
                      A                      A                      A
 Frequencies --   1366.0784              1399.3784              1414.0704
 Red. masses --      2.3410                 2.9000                 2.0660
 Frc consts  --      2.5740                 3.3459                 2.4340
 IR Inten    --     31.2475               122.4156                66.5705

                     49                     50                     51
                      A                      A                      A
 Frequencies --   1508.8432              1541.1149              1608.9844
 Red. masses --      2.3484                 2.5229                 1.2480
 Frc consts  --      3.1501                 3.5303                 1.9036
 IR Inten    --     16.0697                37.7882               215.4602

                     52                     53                     54
                      A                      A                      A
 Frequencies --   1648.7068              1665.8829              1824.9381
 Red. masses --      5.9352                 5.7640                 9.9009
 Frc consts  --      9.5054                 9.4246                19.4276
 IR Inten    --     68.3060                21.9583               309.9641

                     55                     56                     57
                      A                      A                      A
 Frequencies --   1889.6108              3185.5014              3208.7575
 Red. masses --     11.9857                 1.0886                 1.0924
 Frc consts  --     25.2149                 6.5084                 6.6270
 IR Inten    --    355.5966                 9.7649                13.7773

                     58                     59                     60
                      A                      A                      A
 Frequencies --   3237.4430              3241.6362              3502.6341
 Red. masses --      1.0931                 1.0911                 1.0516
 Frc consts  --      6.7503                 6.7550                 7.6016
 IR Inten    --      2.2144                 2.4615                72.9010

                     61                     62                     63
                      A                      A                      A
 Frequencies --   3507.1888              3676.1235              3701.6043
 Red. masses --      1.0751                 1.0979                 1.0642
 Frc consts  --      7.7912                 8.7418                 8.5912
 IR Inten    --     12.3264                99.5120                77.3329

 - Thermochemistry -
 -------------------
 Temperature   298.150 Kelvin.  Pressure   1.00000 Atm.
 Atom     1 has atomic number  6 and mass  12.00000

 Molecular mass:   228.02048 amu.
 Principal axes and moments of inertia in atomic units:
                           1         2         3
     Eigenvalues --  1666.234426887.964917744.93817
           X            1.00000  -0.00084  -0.00025
           Y            0.00084   0.99990  -0.01400
           Z            0.00026   0.01400   0.99990
 This molecule is an asymmetric top.
 Rotational symmetry number  1.
 Warning -- assumption of classical behavior for rotation
           may cause significant error
 Rotational temperatures (Kelvin)      0.05198     0.01257     0.01118
 Rotational constants (GHZ):           1.08313     0.26201     0.23302
 Zero-point vibrational energy     430700.0 (Joules/Mol)
                                  102.93977 (Kcal/Mol)
 Warning -- explicit consideration of  22 degrees of freedom as
           vibrations may cause significant error
 Vibrational temperatures:     31.88    48.19    69.97    91.24   109.59
          (Kelvin)            210.80   230.51   285.29   332.34   403.88
                              456.64   522.10   545.20   564.46   601.68
                              619.30   684.15   695.63   750.24   804.55
                              863.97   883.56   900.56   928.55   942.34
                             1003.62  1040.54  1086.99  1106.82  1182.22
                             1221.45  1313.93  1330.58  1379.46  1419.79
                             1468.85  1539.69  1594.87  1626.33  1630.78
                             1725.51  1735.82  1825.66  1853.99  1886.79
                             1965.48  2013.39  2034.53  2170.89  2217.32
                             2314.97  2372.12  2396.83  2625.68  2718.73
                             4583.23  4616.69  4657.96  4663.99  5039.51
                             5046.06  5289.12  5325.78

 Zero-point correction=                           0.164045 (Hartree/Particle)
 Thermal correction to Energy=                    0.178389
 Thermal correction to Enthalpy=                  0.179333
 Thermal correction to Gibbs Free Energy=         0.120233
 Sum of electronic and zero-point Energies=          -1118.112261
 Sum of electronic and thermal Energies=             -1118.097917
 Sum of electronic and thermal Enthalpies=           -1118.096973
 Sum of electronic and thermal Free Energies=        -1118.156073

                     E (Thermal)             CV                S
                      KCal/Mol        Cal/Mol-Kelvin    Cal/Mol-Kelvin
 Total                  111.941             52.744            124.387
 Electronic               0.000              0.000              0.000
 Translational            0.889              2.981             42.175
 Rotational               0.889              2.981             32.852
 Vibrational            110.163             46.783             49.359
 Vibration     1          0.593              1.985              6.431
 Vibration     2          0.594              1.983              5.611
 Vibration     3          0.595              1.978              4.872
 Vibration     4          0.597              1.972              4.348
 Vibration     5          0.599              1.965              3.987
 Vibration     6          0.617              1.906              2.717
 Vibration     7          0.622              1.891              2.547
 Vibration     8          0.637              1.842              2.149
 Vibration     9          0.653              1.794              1.871
 Vibration    10          0.680              1.709              1.529
 Vibration    11          0.704              1.640              1.324
 Vibration    12          0.737              1.549              1.110
 Vibration    13          0.749              1.515              1.043
 Vibration    14          0.760              1.487              0.991
 Vibration    15          0.781              1.431              0.898
 Vibration    16          0.792              1.404              0.857
 Vibration    17          0.832              1.304              0.722
 Vibration    18          0.840              1.287              0.701
 Vibration    19          0.876              1.203              0.607
 Vibration    20          0.915              1.120              0.525
 Vibration    21          0.959              1.031              0.449
 Vibration    22          0.974              1.002              0.426

 Optimization completed.
    -- Stationary point found.
 Normal termination of Gaussian 16 at Thu Dec 10 16:28:28 2020.

 ----------------------------------------------------------------------
 # B3LYP/6-311++G(d,p) empiricaldispersion=gd3bj scf=xqc pop=npa geom=c
 heck
 ----------------------------------------------------------------------

 ---------------------------------------
 CID_141122043_JID_5489_Energie_neutraal
 ---------------------------------------
 Structure from the checkpoint file:  "JID_5489.chk"
 Charge =  0 Multiplicity = 1

 SCF Done:  E(RB3LYP) =  -1118.53100376     A.U. after   18 cycles
 Normal termination of Gaussian 16 at Thu Dec 10 16:31:14 2020.

 ----------------------------------------------------------------------
 # B3LYP/6-311++G(d,p) empiricaldispersion=gd3bj scf=xqc pop=npa geom=c
 heck
 ----------------------------------------------------------------------

 -------------------------------------
 CID_141122043_JID_5489_Energie_kation
 -------------------------------------
 Structure from the checkpoint file:  "JID_5489.chk"
 Charge =  1 Multiplicity = 2

 SCF Done:  E(UB3LYP) =  -1118.21658218     A.U. after   32 cycles
 Normal termination of Gaussian 16 at Thu Dec 10 16:36:58 2020.
 Gaussian 16:  ES64L-G16RevA.03 25-Dec-2016

 ----------------------------------------------------------------------
 # B3LYP/6-311++G(d,p) empiricaldispersion=gd3bj scf=xqc pop=npa geom=c
 heck
 ----------------------------------------------------------------------

 ------------------------------------
 CID_141122043_JID_5489_Energie_anion
 ------------------------------------
 Structure from the checkpoint file:  "JID_5489.chk"
 Charge = -1 Multiplicity = 2

                         Standard orientation:
 ---------------------------------------------------------------------
 Center     Atomic      Atomic             Coordinates (Angstroms)
 Number     Number       Type             X           Y           Z
 ---------------------------------------------------------------------
      1          6           0        2.095236    2.401977   -0.261423
      2          6           0        2.980106    1.341255   -0.098120
      3          6           0        2.486128    0.031262   -0.072108
      4          6           0        1.118864   -0.216703   -0.218710
      5          6           0        0.233124    0.855001   -0.364575
      6          6           0        0.725937    2.165087   -0.380256
      7          7           0       -1.154354    0.605615   -0.537022
      8         16           0       -1.946566   -0.366944    0.651089
      9          8           0       -2.509652    0.463596    1.784116
     10          6           0       -3.453339   -0.665409   -0.494403
     11          8           0       -3.369404   -1.383114   -1.459107
     12          7           0       -4.491450    0.026396    0.000290
     13          6           0        3.463643   -1.075873    0.095011
     14          8           0        4.663570   -0.929947    0.211938
     15          8           0        2.880479   -2.301104    0.107626
     16          1           0        2.465558    3.422364   -0.281852
     17          1           0        4.046860    1.501040    0.007841
     18          1           0        0.748624   -1.234451   -0.232085
     19          1           0        0.034191    2.997347   -0.483281
     20          1           0       -1.691088    1.444525   -0.753229
     21          1           0       -4.357344    0.508557    0.886733
     22          1           0       -5.408502   -0.068636   -0.413025
     23          1           0        3.609243   -2.938755    0.219526
 ---------------------------------------------------------------------

 SCF Done:  E(UB3LYP) =  -1118.54711576     A.U. after   30 cycles

 The electronic state is 2-A.
 Alpha  occ. eigenvalues --  -88.86113 -19.04156 -19.01794 -18.99583 -18.96960
 Alpha  occ. eigenvalues --  -14.25300 -14.23554 -10.19593 -10.15577 -10.09651
 Alpha  occ. eigenvalues --  -10.05289 -10.04847 -10.04709 -10.04624 -10.04218
 Alpha  occ. eigenvalues --   -7.93601  -5.89947  -5.89692  -5.89192  -0.97795
 Alpha  occ. eigenvalues --   -0.96826  -0.92840  -0.88396  -0.83304  -0.82210
 Alpha  occ. eigenvalues --   -0.72831  -0.64293  -0.63036  -0.58548  -0.53794
 Alpha  occ. eigenvalues --   -0.51279  -0.48273  -0.46926  -0.46633  -0.41698
 Alpha  occ. eigenvalues --   -0.39580  -0.37687  -0.36808  -0.35544  -0.34661
 Alpha  occ. eigenvalues --   -0.33623  -0.32758  -0.32415  -0.32038  -0.31096
 Alpha  occ. eigenvalues --   -0.28419  -0.27565  -0.26129  -0.24295  -0.24192
 Alpha  occ. eigenvalues --   -0.23552  -0.20582  -0.20191  -0.19450  -0.18195
 Alpha  occ. eigenvalues --   -0.15130  -0.14332  -0.13773  -0.11156   0.03251
 Alpha virt. eigenvalues --    0.05278   0.07277   0.08411   0.08836   0.09959
 Alpha virt. eigenvalues --    0.10553   0.11011   0.11853   0.12074   0.12723
 Alpha virt. eigenvalues --    0.13773   0.14369   0.15097   0.15478   0.15726

  Beta  occ. eigenvalues --  -88.86089 -19.04111 -19.01757 -18.99574 -18.96717
  Beta  occ. eigenvalues --  -14.25233 -14.23507 -10.19500 -10.15369 -10.09719
  Beta  occ. eigenvalues --  -10.05270 -10.04622 -10.04604 -10.04526 -10.04033
  Beta  occ. eigenvalues --   -7.93579  -5.89932  -5.89605  -5.89187  -0.97561
  Beta  occ. eigenvalues --   -0.96733  -0.92781  -0.88041  -0.83184  -0.82118
  Beta  occ. eigenvalues --   -0.72551  -0.63887  -0.62789  -0.58279  -0.53296
  Beta  occ. eigenvalues --   -0.51113  -0.48070  -0.46786  -0.46508  -0.41532
  Beta  occ. eigenvalues --   -0.39415  -0.37537  -0.36600  -0.35283  -0.34482
  Beta  occ. eigenvalues --   -0.33510  -0.32504  -0.31952  -0.31358  -0.30955
  Beta  occ. eigenvalues --   -0.28332  -0.27401  -0.25732  -0.24115  -0.23953
  Beta  occ. eigenvalues --   -0.23438  -0.20219  -0.19797  -0.18841  -0.17991
  Beta  occ. eigenvalues --   -0.14883  -0.13932  -0.12698  -0.10484
  Beta virt. eigenvalues --    0.06225   0.07750   0.08344   0.08483   0.08835
  Beta virt. eigenvalues --    0.10038   0.10727   0.11238   0.11881   0.12076
  Beta virt. eigenvalues --    0.13012   0.13794   0.14407   0.15102   0.15554

 Mulliken charges and spin densities:
               1          2
     1  C   -0.493911  -0.019916
     2  C   -0.431225   0.083093
     3  C    0.846734   0.062819
     4  C   -0.381668   0.193109
     5  C   -0.492543   0.005369
     6  C   -0.061537   0.145321
     7  N   -0.176195  -0.011749
     8  S    0.429838  -0.061347
     9  O   -0.418049   0.007521
    10  C    0.117011  -0.147080
    11  O   -0.324105   0.028670
    12  N   -0.245657  -0.064220
    13  C    0.110997   0.116065
    14  O   -0.396031   0.085936
    15  O   -0.221315   0.010341
    16  H    0.129780  -0.003118
    17  H    0.154373  -0.001903
    18  H    0.167780  -0.019325
    19  H    0.067104   0.001690
    20  H    0.247496   0.080920
    21  H    0.309671  -0.005206
    22  H   -0.206057   0.513885
    23  H    0.267511  -0.000876
 Sum of Mulliken charges =  -1.00000   1.00000

 Dipole moment (field-independent basis, Debye):
    X=             -1.6256    Y=              0.8886    Z=              0.2098  Tot=              1.8645
 Quadrupole moment (field-independent basis, Debye-Ang):
   XX=           -165.2165   YY=           -101.5590   ZZ=           -114.5366
   XY=             -4.8304   XZ=             -3.7040   YZ=             -5.7637

 Summary of Natural Population Analysis:

                                       Natural Population
                Natural  -----------------------------------------------
    Atom  No    Charge         Core      Valence    Rydberg      Total
 -----------------------------------------------------------------------
      C    1   -0.10472      0.99958     2.09612    0.00902     3.10472
      C    2   -0.08215      0.99955     2.07374    0.00886     3.08215
      C    3   -0.04817      0.99946     2.03905    0.00966     3.04817
      C    4   -0.06272      0.99949     2.05487    0.00835     3.06272
      C    5    0.05738      0.99947     1.93148    0.01167     2.94262
      C    6   -0.07102      0.99952     2.06335    0.00814     3.07102
      N    7   -0.39447      0.99970     2.88309    0.01168     3.89447
      S    8    0.63133      4.99948     2.31203    0.05716     7.36867
      O    9   -0.48471      0.99993     3.47871    0.00607     4.48471
      C   10    0.26648      0.99972     1.69833    0.03547     2.73352
      O   11   -0.29430      0.99986     3.28668    0.00775     4.29430
      N   12   -0.40686      0.99968     2.89785    0.00934     3.90686
      C   13    0.42138      0.99966     1.55452    0.02444     2.57862
      O   14   -0.30617      0.99987     3.29885    0.00744     4.30617
      O   15   -0.35036      0.99988     3.34467    0.00581     4.35036
      H   16    0.09278      0.00000     0.40623    0.00099     0.40722
      H   17    0.10591      0.00000     0.39304    0.00105     0.39409
      H   18    0.10893      0.00000     0.38941    0.00166     0.39107
      H   19    0.09092      0.00000     0.40782    0.00127     0.40908
      H   20    0.18622      0.00000     0.31097    0.00282     0.31378
      H   21    0.21290      0.00000     0.28469    0.00242     0.28710
      H   22    0.19883      0.00000     0.29417    0.00700     0.30117
      H   23    0.23258      0.00000     0.26438    0.00303     0.26742
 =======================================================================
   * Total *    0.00000     18.99485    39.76405    0.24110    59.00000

 Normal termination of Gaussian 16 at Thu Dec 10 16:42:39 2020.
