 Gaussian 16, Revision A.03,

 -----------------------------------------------------------
 # opt freq B3LYP/6-31G(d) empiricaldispersion=gd3bj scf=xqc
 -----------------------------------------------------------

 ------------------------------
 CID_89088517_JID_2178_neutraal
 ------------------------------
 Symbolic Z-matrix:
 Charge =  0 Multiplicity = 1

 SCF Done:  E(RB3LYP) =  -484.120099778     A.U. after   14 cycles
 SCF Done:  E(RB3LYP) =  -484.133637180     A.U. after   12 cycles
 SCF Done:  E(RB3LYP) =  -484.135742826     A.U. after   11 cycles
 SCF Done:  E(RB3LYP) =  -484.135322200     A.U. after   11 cycles
 SCF Done:  E(RB3LYP) =  -484.136267268     A.U. after   10 cycles
 SCF Done:  E(RB3LYP) =  -484.136279339     A.U. after   10 cycles
 SCF Done:  E(RB3LYP) =  -484.136283736     A.U. after    9 cycles
 SCF Done:  E(RB3LYP) =  -484.136287047     A.U. after    8 cycles
 SCF Done:  E(RB3LYP) =  -484.136287208     A.U. after    7 cycles
 Optimization completed.
    -- Stationary point found.
 Normal termination of Gaussian 16 at Wed Dec  9 16:51:20 2020.

 --------------------------------------------------------------------
 #N Geom=AllCheck Guess=TCheck SCRF=Check GenChk RB3LYP/6-31G(d) Freq
 --------------------------------------------------------------------

 Structure from the checkpoint file:  "JID_2178.chk"
 ------------------------------
 CID_89088517_JID_2178_neutraal
 ------------------------------
 Charge =  0 Multiplicity = 1

 SCF Done:  E(RB3LYP) =  -484.136287208     A.U. after    1 cycles

  Exact polarizability: 133.697  -0.564 102.904   4.657  -0.867  97.840
 Approx polarizability: 176.315  -1.750 149.917  14.894  -1.841 156.413

                      1                      2                      3
                      A                      A                      A
 Frequencies --     57.6094                98.5050               168.2941
 Red. masses --      4.8794                 5.5102                 2.2846
 Frc consts  --      0.0095                 0.0315                 0.0381
 IR Inten    --      4.9092                 4.8425                 2.2741

                      4                      5                      6
                      A                      A                      A
 Frequencies --    211.2782               217.5522               226.3089
 Red. masses --      1.3231                 2.0872                 1.2448
 Frc consts  --      0.0348                 0.0582                 0.0376
 IR Inten    --      0.3425                 0.6598                 0.3371

                      7                      8                      9
                      A                      A                      A
 Frequencies --    284.7518               315.9132               325.2165
 Red. masses --      2.6466                 2.9962                 2.7146
 Frc consts  --      0.1264                 0.1762                 0.1692
 IR Inten    --      0.8316                 0.3656                 1.0449

                     10                     11                     12
                      A                      A                      A
 Frequencies --    384.2147               394.4199               404.3872
 Red. masses --      3.1099                 2.5943                 2.2234
 Frc consts  --      0.2705                 0.2378                 0.2142
 IR Inten    --      0.5011                 0.7170                 0.3045

                     13                     14                     15
                      A                      A                      A
 Frequencies --    418.8681               445.4898               462.6706
 Red. masses --      2.3225                 2.3715                 2.2169
 Frc consts  --      0.2401                 0.2773                 0.2796
 IR Inten    --      0.3429                 0.2202                 0.1655

                     16                     17                     18
                      A                      A                      A
 Frequencies --    494.1035               524.0465               612.3161
 Red. masses --      2.4690                 3.1231                 3.8438
 Frc consts  --      0.3551                 0.5053                 0.8491
 IR Inten    --      1.5994                 0.7412                 0.3537

                     19                     20                     21
                      A                      A                      A
 Frequencies --    666.9251               737.0402               778.7060
 Red. masses --      2.7466                 3.0395                 3.1652
 Frc consts  --      0.7198                 0.9728                 1.1308
 IR Inten    --      0.6758                 0.2876                 0.2166

                     22                     23                     24
                      A                      A                      A
 Frequencies --    789.2752               865.4217               886.6287
 Red. masses --      1.8634                 2.6033                 1.6045
 Frc consts  --      0.6839                 1.1488                 0.7432
 IR Inten    --      3.3085                 0.2578                 0.5597

                     25                     26                     27
                      A                      A                      A
 Frequencies --    905.9991               913.1301               922.8988
 Red. masses --      2.1285                 1.9345                 2.1996
 Frc consts  --      1.0294                 0.9504                 1.1038
 IR Inten    --      0.6860                 1.0315                 0.2641

                     28                     29                     30
                      A                      A                      A
 Frequencies --    930.0529               946.7150               956.3789
 Red. masses --      2.0500                 2.5414                 1.8704
 Frc consts  --      1.0448                 1.3420                 1.0079
 IR Inten    --      0.4183                 0.4925                 0.4930

                     31                     32                     33
                      A                      A                      A
 Frequencies --    978.6978              1006.7132              1017.9770
 Red. masses --      1.6165                 1.5587                 2.0939
 Frc consts  --      0.9123                 0.9307                 1.2784
 IR Inten    --      0.0308                 2.9337                 0.1834

                     34                     35                     36
                      A                      A                      A
 Frequencies --   1038.0813              1063.3396              1085.1536
 Red. masses --      1.9970                 1.6703                 1.4302
 Frc consts  --      1.2679                 1.1128                 0.9923
 IR Inten    --      0.6027                 0.4332                 0.4560

                     37                     38                     39
                      A                      A                      A
 Frequencies --   1114.6497              1165.8436              1175.0877
 Red. masses --      1.9677                 1.7015                 1.6556
 Frc consts  --      1.4404                 1.3626                 1.3469
 IR Inten    --      0.2254                 3.3269                 0.6726

                     40                     41                     42
                      A                      A                      A
 Frequencies --   1209.7928              1213.6345              1235.2399
 Red. masses --      1.5415                 1.5230                 1.5342
 Frc consts  --      1.3293                 1.3217                 1.3792
 IR Inten    --      0.6230                 0.4126                 2.4952

                     43                     44                     45
                      A                      A                      A
 Frequencies --   1236.7004              1255.9026              1270.3805
 Red. masses --      1.4711                 1.2593                 1.4400
 Frc consts  --      1.3256                 1.1703                 1.3692
 IR Inten    --      1.8899                 1.2413                 1.6763

                     46                     47                     48
                      A                      A                      A
 Frequencies --   1285.2389              1296.9926              1306.1869
 Red. masses --      1.9137                 1.9264                 1.8335
 Frc consts  --      1.8625                 1.9093                 1.8430
 IR Inten    --      3.9421                 3.7225                 0.2708

                     49                     50                     51
                      A                      A                      A
 Frequencies --   1310.0307              1332.5496              1354.1328
 Red. masses --      1.6171                 1.4789                 1.4839
 Frc consts  --      1.6351                 1.5473                 1.6032
 IR Inten    --      0.5870                 1.7312                 0.8374

                     52                     53                     54
                      A                      A                      A
 Frequencies --   1400.2353              1441.9323              1445.5604
 Red. masses --      1.2944                 1.2029                 1.1943
 Frc consts  --      1.4953                 1.4735                 1.4704
 IR Inten    --      2.3194                 2.2101                 9.7730

                     55                     56                     57
                      A                      A                      A
 Frequencies --   1495.3996              1507.6127              1527.1343
 Red. masses --      1.0859                 1.0686                 1.0998
 Frc consts  --      1.4307                 1.4310                 1.5112
 IR Inten    --      4.9098                 0.1066                 0.5439

                     58                     59                     60
                      A                      A                      A
 Frequencies --   1529.4901              1531.0067              1537.5327
 Red. masses --      1.0724                 1.0540                 1.0608
 Frc consts  --      1.4781                 1.4557                 1.4775
 IR Inten    --     13.5656                 2.4131                 0.0850

                     61                     62                     63
                      A                      A                      A
 Frequencies --   1543.9847              1548.2267              1551.4203
 Red. masses --      1.0816                 1.0830                 1.0703
 Frc consts  --      1.5191                 1.5295                 1.5179
 IR Inten    --      0.4108                 0.9815                 0.1263

                     64                     65                     66
                      A                      A                      A
 Frequencies --   2369.2158              3056.8335              3057.5446
 Red. masses --     12.6028                 1.0581                 1.0449
 Frc consts  --     41.6799                 5.8253                 5.7554
 IR Inten    --     11.2405                 5.7147                17.4452

                     67                     68                     69
                      A                      A                      A
 Frequencies --   3061.1401              3068.4112              3074.9386
 Red. masses --      1.0455                 1.0597                 1.0677
 Frc consts  --      5.7724                 5.8786                 5.9478
 IR Inten    --     25.0667                36.6675                18.7932

                     70                     71                     72
                      A                      A                      A
 Frequencies --   3080.1014              3086.1937              3092.6642
 Red. masses --      1.0827                 1.0602                 1.0635
 Frc consts  --      6.0516                 5.9496                 5.9933
 IR Inten    --      6.9461                30.0102                43.1871

                     73                     74                     75
                      A                      A                      A
 Frequencies --   3100.9146              3111.0434              3119.9210
 Red. masses --      1.1006                 1.1045                 1.0992
 Frc consts  --      6.2354                 6.2983                 6.3039
 IR Inten    --      6.0926                32.1065                24.2972

                     76                     77                     78
                      A                      A                      A
 Frequencies --   3125.4517              3126.3707              3138.4773
 Red. masses --      1.0986                 1.0961                 1.1030
 Frc consts  --      6.3230                 6.3119                 6.4013
 IR Inten    --      8.9200                40.8348                12.8043

                     79                     80                     81
                      A                      A                      A
 Frequencies --   3145.8671              3154.1079              3159.2369
 Red. masses --      1.1013                 1.0997                 1.1012
 Frc consts  --      6.4216                 6.4459                 6.4755
 IR Inten    --     40.3393                74.0306                26.3822

 - Thermochemistry -
 -------------------
 Temperature   298.150 Kelvin.  Pressure   1.00000 Atm.
 Atom     1 has atomic number  6 and mass  12.00000

 Molecular mass:   163.13610 amu.
 Principal axes and moments of inertia in atomic units:
                           1         2         3
     Eigenvalues --   933.495333062.612033289.79148
           X            0.99991   0.00193  -0.01313
           Y           -0.00114   0.99820   0.05989
           Z            0.01323  -0.05987   0.99812
 This molecule is an asymmetric top.
 Rotational symmetry number  1.
 Warning -- assumption of classical behavior for rotation
           may cause significant error
 Rotational temperatures (Kelvin)      0.09278     0.02828     0.02633
 Rotational constants (GHZ):           1.93332     0.58928     0.54859
 Zero-point vibrational energy     684774.8 (Joules/Mol)
                                  163.66511 (Kcal/Mol)
 Warning -- explicit consideration of  18 degrees of freedom as
           vibrations may cause significant error
 Vibrational temperatures:     82.89   141.73   242.14   303.98   313.01
          (Kelvin)            325.61   409.69   454.53   467.91   552.80
                              567.48   581.82   602.66   640.96   665.68
                              710.90   753.99   880.99   959.56  1060.44
                             1120.38  1135.59  1245.15  1275.66  1303.53
                             1313.79  1327.85  1338.14  1362.11  1376.02
                             1408.13  1448.44  1464.64  1493.57  1529.91
                             1561.29  1603.73  1677.39  1690.69  1740.62
                             1746.15  1777.23  1779.34  1806.96  1827.79
                             1849.17  1866.08  1879.31  1884.84  1917.24
                             1948.30  2014.63  2074.62  2079.84  2151.55
                             2169.12  2197.21  2200.60  2202.78  2212.17
                             2221.45  2227.55  2232.15  3408.77  4398.10
                             4399.12  4404.30  4414.76  4424.15  4431.58
                             4440.34  4449.65  4461.52  4476.10  4488.87
                             4496.83  4498.15  4515.57  4526.20  4538.06
                             4545.44

 Zero-point correction=                           0.260817 (Hartree/Particle)
 Thermal correction to Energy=                    0.272260
 Thermal correction to Enthalpy=                  0.273205
 Thermal correction to Gibbs Free Energy=         0.224407
 Sum of electronic and zero-point Energies=           -483.875470
 Sum of electronic and thermal Energies=              -483.864027
 Sum of electronic and thermal Enthalpies=            -483.863083
 Sum of electronic and thermal Free Energies=         -483.911880

                     E (Thermal)             CV                S
                      KCal/Mol        Cal/Mol-Kelvin    Cal/Mol-Kelvin
 Total                  170.846             46.703            102.703
 Electronic               0.000              0.000              0.000
 Translational            0.889              2.981             41.177
 Rotational               0.889              2.981             30.621
 Vibrational            169.069             40.742             30.905
 Vibration     1          0.596              1.974              4.537
 Vibration     2          0.604              1.950              3.484
 Vibration     3          0.625              1.881              2.454
 Vibration     4          0.643              1.824              2.033
 Vibration     5          0.646              1.814              1.979
 Vibration     6          0.650              1.801              1.908
 Vibration     7          0.683              1.702              1.505
 Vibration     8          0.703              1.643              1.331
 Vibration     9          0.709              1.625              1.284
 Vibration    10          0.753              1.504              1.023
 Vibration    11          0.761              1.482              0.983
 Vibration    12          0.770              1.461              0.947
 Vibration    13          0.782              1.429              0.896
 Vibration    14          0.805              1.371              0.810
 Vibration    15          0.820              1.333              0.758
 Vibration    16          0.850              1.263              0.673
 Vibration    17          0.879              1.197              0.601
 Vibration    18          0.972              1.006              0.429

 Optimization completed.
    -- Stationary point found.
 Normal termination of Gaussian 16 at Wed Dec  9 16:59:19 2020.

 ----------------------------------------------------------------------
 # B3LYP/6-311++G(d,p) empiricaldispersion=gd3bj scf=xqc pop=npa geom=c
 heck
 ----------------------------------------------------------------------

 --------------------------------------
 CID_89088517_JID_2178_Energie_neutraal
 --------------------------------------
 Structure from the checkpoint file:  "JID_2178.chk"
 Charge =  0 Multiplicity = 1

 SCF Done:  E(RB3LYP) =  -484.265381551     A.U. after   14 cycles
 Normal termination of Gaussian 16 at Wed Dec  9 17:03:05 2020.

 ----------------------------------------------------------------------
 # B3LYP/6-311++G(d,p) empiricaldispersion=gd3bj scf=xqc pop=npa geom=c
 heck
 ----------------------------------------------------------------------

 ------------------------------------
 CID_89088517_JID_2178_Energie_kation
 ------------------------------------
 Structure from the checkpoint file:  "JID_2178.chk"
 Charge =  1 Multiplicity = 2

 SCF Done:  E(UB3LYP) =  -483.928877808     A.U. after   21 cycles
 Normal termination of Gaussian 16 at Wed Dec  9 17:11:41 2020.
 Gaussian 16:  ES64L-G16RevA.03 25-Dec-2016

 ----------------------------------------------------------------------
 # B3LYP/6-311++G(d,p) empiricaldispersion=gd3bj scf=xqc pop=npa geom=c
 heck
 ----------------------------------------------------------------------

 -----------------------------------
 CID_89088517_JID_2178_Energie_anion
 -----------------------------------
 Structure from the checkpoint file:  "JID_2178.chk"
 Charge = -1 Multiplicity = 2

                         Standard orientation:
 ---------------------------------------------------------------------
 Center     Atomic      Atomic             Coordinates (Angstroms)
 Number     Number       Type             X           Y           Z
 ---------------------------------------------------------------------
      1          6           0        1.561467   -1.809210   -0.659387
      2          6           0        1.391362   -0.604233    0.301775
      3          6           0        2.818622    0.028157    0.422862
      4          6           0        2.425732    0.901507   -0.829884
      5          6           0        0.940017    0.707157   -0.373568
      6          6           0       -0.407926    0.306756   -0.984819
      7          6           0       -0.981842   -0.636394    0.164092
      8          6           0        0.189214   -0.919414    1.197093
      9          6           0       -2.246662   -0.095004    0.860314
     10          6           0       -3.366626    0.066976   -0.070165
     11          7           0       -4.235452    0.188856   -0.830246
     12          6           0        0.662379    1.881057    0.598342
     13          1           0        2.196592   -1.589122   -1.520800
     14          1           0        0.616375   -2.203041   -1.041052
     15          1           0        2.044803   -2.616664   -0.095917
     16          1           0        2.984070    0.633420    1.316043
     17          1           0        3.658504   -0.663030    0.307381
     18          1           0        2.787954    1.933439   -0.852329
     19          1           0        2.687908    0.418320   -1.772827
     20          1           0       -0.304488   -0.257889   -1.914791
     21          1           0       -1.080223    1.147185   -1.187174
     22          1           0       -1.272206   -1.588288   -0.289050
     23          1           0        0.120053   -0.253750    2.063097
     24          1           0        0.141679   -1.950026    1.564736
     25          1           0       -2.554697   -0.783585    1.657114
     26          1           0       -2.055213    0.872473    1.337381
     27          1           0       -0.242475    1.752755    1.195343
     28          1           0        1.484553    2.077090    1.291382
     29          1           0        0.520547    2.784596   -0.006749
 ---------------------------------------------------------------------

 SCF Done:  E(UB3LYP) =  -484.252252933     A.U. after   31 cycles

 The electronic state is 2-A.
 Alpha  occ. eigenvalues --  -14.21523 -10.11583 -10.11470 -10.09529 -10.08037
 Alpha  occ. eigenvalues --  -10.07972 -10.07367 -10.07279 -10.07258 -10.07018
 Alpha  occ. eigenvalues --  -10.05984 -10.05791  -0.81312  -0.78576  -0.71705
 Alpha  occ. eigenvalues --   -0.65363  -0.64954  -0.59159  -0.58498  -0.52712
 Alpha  occ. eigenvalues --   -0.52299  -0.46890  -0.42478  -0.40068  -0.38793
 Alpha  occ. eigenvalues --   -0.37993  -0.37062  -0.35977  -0.33985  -0.30290
 Alpha  occ. eigenvalues --   -0.29773  -0.29251  -0.28356  -0.27805  -0.27334
 Alpha  occ. eigenvalues --   -0.27029  -0.26715  -0.24833  -0.24444  -0.23479
 Alpha  occ. eigenvalues --   -0.22238  -0.21157  -0.20998  -0.20901  -0.16231
 Alpha  occ. eigenvalues --    0.04412
 Alpha virt. eigenvalues --    0.06834   0.06972   0.07849   0.08953   0.09078
 Alpha virt. eigenvalues --    0.09859   0.10033   0.10601   0.11563   0.11670
 Alpha virt. eigenvalues --    0.11964   0.12530   0.12901   0.13164   0.13507

  Beta  occ. eigenvalues --  -14.21515 -10.11581 -10.11427 -10.09515 -10.08035
  Beta  occ. eigenvalues --  -10.07969 -10.07349 -10.07269 -10.07238 -10.06990
  Beta  occ. eigenvalues --  -10.05950 -10.05761  -0.81292  -0.78560  -0.71666
  Beta  occ. eigenvalues --   -0.65319  -0.64915  -0.59110  -0.58435  -0.52661
  Beta  occ. eigenvalues --   -0.52237  -0.46831  -0.42427  -0.40009  -0.38736
  Beta  occ. eigenvalues --   -0.37934  -0.37031  -0.35939  -0.33945  -0.30256
  Beta  occ. eigenvalues --   -0.29739  -0.29217  -0.28317  -0.27774  -0.27310
  Beta  occ. eigenvalues --   -0.27004  -0.26685  -0.24804  -0.24417  -0.23454
  Beta  occ. eigenvalues --   -0.22206  -0.21123  -0.20965  -0.20874  -0.16201
  Beta virt. eigenvalues --    0.06752   0.07805   0.07887   0.08411   0.09620
  Beta virt. eigenvalues --    0.09729   0.10394   0.10445   0.10871   0.11855
  Beta virt. eigenvalues --    0.11869   0.12379   0.13027   0.13239   0.13612

 Mulliken charges and spin densities:
               1          2
     1  C    1.116754  -1.854432
     2  C   -0.185154   0.897793
     3  C    0.274429  -0.746846
     4  C    0.341755  -0.806830
     5  C   -0.614630   1.398807
     6  C   -0.649903  -0.106756
     7  C    0.945821  -0.551136
     8  C   -1.240870   0.494278
     9  C    0.274376  -0.268043
    10  C    0.757227  -1.184030
    11  N   -0.330803   0.041770
    12  C    1.161744  -1.973866
    13  H    0.031660   0.107912
    14  H   -0.098219   0.241353
    15  H   -0.264020   0.419431
    16  H   -0.136947   0.297892
    17  H   -0.227415   0.380868
    18  H   -0.153221   0.300593
    19  H   -0.182604   0.342181
    20  H   -0.040555   0.224061
    21  H    0.032793   0.149052
    22  H    0.066975   0.159788
    23  H   -0.466724   0.658459
    24  H   -0.563906   0.759888
    25  H   -0.573574   0.784752
    26  H   -0.250557   0.406719
    27  H    0.314314  -0.214557
    28  H   -0.294073   0.442527
    29  H   -0.044672   0.198372
 Sum of Mulliken charges =  -1.00000   1.00000

 Dipole moment (field-independent basis, Debye):
    X=              1.4958    Y=              1.6568    Z=             -2.1115  Tot=              3.0726
 Quadrupole moment (field-independent basis, Debye-Ang):
   XX=           -146.5305   YY=           -118.1746   ZZ=           -117.3378
   XY=             -1.0254   XZ=             -1.9385   YZ=              0.9875

 Summary of Natural Population Analysis:

                                       Natural Population
                Natural  -----------------------------------------------
    Atom  No    Charge         Core      Valence    Rydberg      Total
 -----------------------------------------------------------------------
      C    1   -0.28684      0.99962     2.27986    0.00736     3.28684
      C    2   -0.03945      0.99948     2.02397    0.01600     3.03945
      C    3   -0.18105      0.99959     2.17216    0.00929     3.18105
      C    4   -0.18172      0.99960     2.17299    0.00914     3.18172
      C    5   -0.03888      0.99949     2.02553    0.01386     3.03888
      C    6   -0.19021      0.99957     2.18216    0.00849     3.19021
      C    7   -0.10278      0.99961     2.09130    0.01188     3.10278
      C    8   -0.18965      0.99957     2.17894    0.01114     3.18965
      C    9   -0.24514      0.99951     2.23628    0.00935     3.24514
      C   10    0.16941      0.99966     1.81428    0.01665     2.83059
      N   11   -0.19256      0.99979     2.68176    0.01102     3.69256
      C   12   -0.28605      0.99961     2.27881    0.00763     3.28605
      H   13    0.10030      0.00000     0.39842    0.00128     0.39970
      H   14    0.09922      0.00000     0.39950    0.00128     0.40078
      H   15    0.10326      0.00000     0.39562    0.00112     0.39674
      H   16    0.10184      0.00000     0.39672    0.00144     0.39816
      H   17    0.09809      0.00000     0.40074    0.00117     0.40191
      H   18    0.09740      0.00000     0.40155    0.00104     0.40260
      H   19    0.10069      0.00000     0.39810    0.00121     0.39931
      H   20    0.10573      0.00000     0.39313    0.00114     0.39427
      H   21    0.10173      0.00000     0.39696    0.00131     0.39827
      H   22    0.10204      0.00000     0.39603    0.00193     0.39796
      H   23    0.10398      0.00000     0.39388    0.00214     0.39602
      H   24    0.10606      0.00000     0.39209    0.00184     0.39394
      H   25    0.12581      0.00000     0.37171    0.00248     0.37419
      H   26    0.11890      0.00000     0.37897    0.00213     0.38110
      H   27    0.09668      0.00000     0.40178    0.00154     0.40332
      H   28    0.10236      0.00000     0.39622    0.00142     0.39764
      H   29    0.10084      0.00000     0.39818    0.00099     0.39916
 =======================================================================
   * Total *   -0.00000     11.99508    32.84763    0.15729    45.00000

 Normal termination of Gaussian 16 at Wed Dec  9 17:22:43 2020.
