 Gaussian 16, Revision A.03,

 -----------------------------------------------------------
 # opt freq B3LYP/6-31G(d) empiricaldispersion=gd3bj scf=xqc
 -----------------------------------------------------------

 -------------------------------
 CID_104730623_JID_7149_neutraal
 -------------------------------
 Symbolic Z-matrix:
 Charge =  0 Multiplicity = 1

 SCF Done:  E(RB3LYP) =  -725.284739607     A.U. after   15 cycles
 SCF Done:  E(RB3LYP) =  -725.289674749     A.U. after   12 cycles
 SCF Done:  E(RB3LYP) =  -725.290376849     A.U. after   12 cycles
 SCF Done:  E(RB3LYP) =  -725.290475366     A.U. after   11 cycles
 SCF Done:  E(RB3LYP) =  -725.290533527     A.U. after   11 cycles
 SCF Done:  E(RB3LYP) =  -725.290630375     A.U. after   11 cycles
 SCF Done:  E(RB3LYP) =  -725.291033549     A.U. after   15 cycles
 SCF Done:  E(RB3LYP) =  -725.290815143     A.U. after   15 cycles
 SCF Done:  E(RB3LYP) =  -725.291648212     A.U. after   12 cycles
 SCF Done:  E(RB3LYP) =  -725.292155394     A.U. after   12 cycles
 SCF Done:  E(RB3LYP) =  -725.292740532     A.U. after   12 cycles
 SCF Done:  E(RB3LYP) =  -725.292743796     A.U. after   11 cycles
 SCF Done:  E(RB3LYP) =  -725.292762497     A.U. after   11 cycles
 SCF Done:  E(RB3LYP) =  -725.292761669     A.U. after   10 cycles
 SCF Done:  E(RB3LYP) =  -725.292763122     A.U. after    9 cycles
 Optimization completed.
    -- Stationary point found.
 Normal termination of Gaussian 16 at Sun Dec 13 16:12:41 2020.

 --------------------------------------------------------------------
 #N Geom=AllCheck Guess=TCheck SCRF=Check GenChk RB3LYP/6-31G(d) Freq
 --------------------------------------------------------------------

 Structure from the checkpoint file:  "JID_7149.chk"
 -------------------------------
 CID_104730623_JID_7149_neutraal
 -------------------------------
 Charge =  0 Multiplicity = 1

 SCF Done:  E(RB3LYP) =  -725.292763122     A.U. after    1 cycles

  Exact polarizability: 198.281 -13.782 162.853  24.044  14.532 115.811
 Approx polarizability: 272.338 -24.641 277.167  55.425  39.026 189.735

                      1                      2                      3
                      A                      A                      A
 Frequencies --     28.7004                32.9048                43.6031
 Red. masses --      5.2658                 3.6085                 3.5524
 Frc consts  --      0.0026                 0.0023                 0.0040
 IR Inten    --      0.0735                 0.3543                 0.2525

                      4                      5                      6
                      A                      A                      A
 Frequencies --    116.6573               135.5764               181.9589
 Red. masses --      3.6759                 4.0497                 3.9646
 Frc consts  --      0.0295                 0.0439                 0.0773
 IR Inten    --      0.6263                 0.2150                 0.2725

                      7                      8                      9
                      A                      A                      A
 Frequencies --    205.1153               236.5408               241.9120
 Red. masses --      4.6607                 1.8167                 4.9113
 Frc consts  --      0.1155                 0.0599                 0.1693
 IR Inten    --      1.5505                 0.1103                 6.5304

                     10                     11                     12
                      A                      A                      A
 Frequencies --    272.3110               302.7269               331.5330
 Red. masses --      2.6273                 3.8484                 1.8196
 Frc consts  --      0.1148                 0.2078                 0.1178
 IR Inten    --      2.1668                 3.5518                 0.2344

                     13                     14                     15
                      A                      A                      A
 Frequencies --    391.2732               427.0788               442.5148
 Red. masses --      2.4397                 1.6123                 1.7717
 Frc consts  --      0.2201                 0.1733                 0.2044
 IR Inten    --     37.9649                37.9110                55.5280

                     16                     17                     18
                      A                      A                      A
 Frequencies --    448.4094               468.3065               527.8087
 Red. masses --      2.6508                 3.8415                 3.3879
 Frc consts  --      0.3140                 0.4964                 0.5561
 IR Inten    --      1.2691                 1.9581                 4.0237

                     19                     20                     21
                      A                      A                      A
 Frequencies --    542.9673               556.8336               566.0239
 Red. masses --      5.5984                 2.7802                 2.7874
 Frc consts  --      0.9724                 0.5079                 0.5262
 IR Inten    --      4.6158                 2.2690                 3.5122

                     22                     23                     24
                      A                      A                      A
 Frequencies --    628.2196               665.1239               672.5392
 Red. masses --      5.3760                 5.9443                 5.1366
 Frc consts  --      1.2501                 1.5494                 1.3689
 IR Inten    --     12.9430                 2.6931                 8.4462

                     25                     26                     27
                      A                      A                      A
 Frequencies --    729.9391               746.8701               765.7093
 Red. masses --      1.4054                 3.6628                 1.9425
 Frc consts  --      0.4412                 1.2038                 0.6710
 IR Inten    --     31.8092                 3.8943                11.9231

                     28                     29                     30
                      A                      A                      A
 Frequencies --    770.6672               795.6879               808.4648
 Red. masses --      2.0108                 2.4007                 1.5518
 Frc consts  --      0.7037                 0.8955                 0.5976
 IR Inten    --     25.2898                 1.1901                 0.1889

                     31                     32                     33
                      A                      A                      A
 Frequencies --    857.0875               870.6963               886.9157
 Red. masses --      2.2782                 1.8080                 1.3027
 Frc consts  --      0.9860                 0.8076                 0.6038
 IR Inten    --      0.9971                 1.6580                 3.6158

                     34                     35                     36
                      A                      A                      A
 Frequencies --    898.9819               914.2976               924.6530
 Red. masses --      5.0631                 1.9282                 1.2759
 Frc consts  --      2.4108                 0.9497                 0.6427
 IR Inten    --      3.6305                 2.4020                 1.0353

                     37                     38                     39
                      A                      A                      A
 Frequencies --    939.3401               952.2295               973.6369
 Red. masses --      1.4974                 4.5278                 1.6273
 Frc consts  --      0.7785                 2.4189                 0.9089
 IR Inten    --      1.2940                 2.2783                 2.4921

                     40                     41                     42
                      A                      A                      A
 Frequencies --    976.5270              1025.5943              1050.3403
 Red. masses --      2.5153                 3.2054                 1.7975
 Frc consts  --      1.4132                 1.9865                 1.1683
 IR Inten    --      2.6068                 1.6750                 1.7939

                     43                     44                     45
                      A                      A                      A
 Frequencies --   1075.6054              1086.2156              1101.5842
 Red. masses --      1.5512                 1.4699                 1.9440
 Frc consts  --      1.0574                 1.0218                 1.3899
 IR Inten    --      3.4277                 5.8789                 2.0445

                     46                     47                     48
                      A                      A                      A
 Frequencies --   1106.2543              1113.1252              1121.5452
 Red. masses --      1.2998                 2.1678                 2.3807
 Frc consts  --      0.9372                 1.5826                 1.7644
 IR Inten    --      0.8893                 6.8512                 3.6640

                     49                     50                     51
                      A                      A                      A
 Frequencies --   1162.3600              1191.1272              1212.5818
 Red. masses --      2.5910                 2.4933                 1.5288
 Frc consts  --      2.0625                 2.0842                 1.3244
 IR Inten    --     47.1604                 4.0067                13.5538

                     52                     53                     54
                      A                      A                      A
 Frequencies --   1219.7412              1251.0250              1281.8908
 Red. masses --      1.5386                 1.6461                 1.9507
 Frc consts  --      1.3487                 1.5179                 1.8886
 IR Inten    --      2.0076                 3.5250                22.5827

                     55                     56                     57
                      A                      A                      A
 Frequencies --   1300.6702              1304.0176              1306.7604
 Red. masses --      2.0068                 1.6420                 1.2559
 Frc consts  --      2.0003                 1.6451                 1.2635
 IR Inten    --     18.7244                 2.6271                 3.0815

                     58                     59                     60
                      A                      A                      A
 Frequencies --   1321.7849              1340.8538              1349.4655
 Red. masses --      1.3777                 1.3310                 2.1793
 Frc consts  --      1.4182                 1.4099                 2.3383
 IR Inten    --      6.9664                 3.8716                 1.2347

                     61                     62                     63
                      A                      A                      A
 Frequencies --   1361.2722              1386.6117              1391.0954
 Red. masses --      1.3536                 1.4542                 2.2391
 Frc consts  --      1.4779                 1.6473                 2.5529
 IR Inten    --      1.5489                 0.4601                77.2538

                     64                     65                     66
                      A                      A                      A
 Frequencies --   1399.8928              1403.8816              1404.2638
 Red. masses --      1.3793                 1.6290                 1.5539
 Frc consts  --      1.5925                 1.8916                 1.8054
 IR Inten    --     10.5802                24.6556                 3.4330

                     67                     68                     69
                      A                      A                      A
 Frequencies --   1408.1472              1420.1984              1428.0568
 Red. masses --      2.1088                 1.5375                 1.4927
 Frc consts  --      2.4637                 1.8271                 1.7935
 IR Inten    --     12.7103                 9.8769                 2.5421

                     70                     71                     72
                      A                      A                      A
 Frequencies --   1457.5738              1495.0451              1500.0777
 Red. masses --      3.1777                 1.7236                 1.7125
 Frc consts  --      3.9777                 2.2698                 2.2704
 IR Inten    --     26.2764                10.2093                21.4938

                     73                     74                     75
                      A                      A                      A
 Frequencies --   1512.5354              1515.7091              1518.7238
 Red. masses --      1.0909                 1.0948                 1.0999
 Frc consts  --      1.4704                 1.4820                 1.4948
 IR Inten    --      0.5424                 4.9576                 1.9941

                     76                     77                     78
                      A                      A                      A
 Frequencies --   1522.4871              1536.9715              1541.6536
 Red. masses --      1.0850                 1.1040                 2.7108
 Frc consts  --      1.4818                 1.5366                 3.7959
 IR Inten    --      7.0790                 0.4913                24.6760

                     79                     80                     81
                      A                      A                      A
 Frequencies --   1565.1242              1591.3215              1669.9046
 Red. masses --      3.5879                 4.5605                 5.5780
 Frc consts  --      5.1784                 6.8043                 9.1646
 IR Inten    --     11.2110               552.9519                49.9968

                     82                     83                     84
                      A                      A                      A
 Frequencies --   3002.1986              3009.8591              3021.9184
 Red. masses --      1.0673                 1.0673                 1.0700
 Frc consts  --      5.6677                 5.6966                 5.7572
 IR Inten    --     18.1223                26.1921                20.8287

                     85                     86                     87
                      A                      A                      A
 Frequencies --   3027.6944              3030.1384              3042.4108
 Red. masses --      1.0635                 1.0616                 1.0793
 Frc consts  --      5.7439                 5.7431                 5.8863
 IR Inten    --     11.1970                31.1679                 6.1847

                     88                     89                     90
                      A                      A                      A
 Frequencies --   3060.1118              3064.8292              3070.0245
 Red. masses --      1.0723                 1.0928                 1.0929
 Frc consts  --      5.9162                 6.0480                 6.0692
 IR Inten    --     22.4386                81.0519                40.0839

                     91                     92                     93
                      A                      A                      A
 Frequencies --   3073.6504              3074.0036              3080.8533
 Red. masses --      1.0999                 1.0926                 1.1040
 Frc consts  --      6.1223                 6.0832                 6.1739
 IR Inten    --     37.3711                60.9980               117.9336

                     94                     95                     96
                      A                      A                      A
 Frequencies --   3127.1163              3210.0374              3260.5513
 Red. masses --      1.0995                 1.0908                 1.0923
 Frc consts  --      6.3349                 6.6223                 6.8417
 IR Inten    --     11.4180                21.6966                 7.0808

                     97                     98                     99
                      A                      A                      A
 Frequencies --   3280.4835              3281.2605              3633.3096
 Red. masses --      1.1001                 1.0970                 1.0765
 Frc consts  --      6.9754                 6.9587                 8.3727
 IR Inten    --      0.7872                 4.6669                20.8872

 - Thermochemistry -
 -------------------
 Temperature   298.150 Kelvin.  Pressure   1.00000 Atm.
 Atom     1 has atomic number  6 and mass  12.00000

 Molecular mass:   230.15315 amu.
 Principal axes and moments of inertia in atomic units:
                           1         2         3
     Eigenvalues --  1705.206147886.080938413.12235
           X            0.99999   0.00039  -0.00367
           Y           -0.00034   0.99994   0.01101
           Z            0.00367  -0.01101   0.99993
 This molecule is an asymmetric top.
 Rotational symmetry number  1.
 Warning -- assumption of classical behavior for rotation
           may cause significant error
 Rotational temperatures (Kelvin)      0.05079     0.01098     0.01030
 Rotational constants (GHZ):           1.05837     0.22885     0.21452
 Zero-point vibrational energy     798997.1 (Joules/Mol)
                                  190.96489 (Kcal/Mol)
 Warning -- explicit consideration of  21 degrees of freedom as
           vibrations may cause significant error
 Vibrational temperatures:     41.29    47.34    62.74   167.84   195.06
          (Kelvin)            261.80   295.12   340.33   348.06   391.79
                              435.56   477.00   562.95   614.47   636.68
                              645.16   673.79   759.40   781.21   801.16
                              814.38   903.87   956.96   967.63  1050.22
                             1074.58  1101.68  1108.82  1144.82  1163.20
                             1233.16  1252.74  1276.07  1293.43  1315.47
                             1330.37  1351.50  1370.05  1400.85  1405.00
                             1475.60  1511.21  1547.56  1562.82  1584.93
                             1591.65  1601.54  1613.65  1672.38  1713.77
                             1744.63  1754.94  1799.95  1844.35  1871.37
                             1876.19  1880.14  1901.75  1929.19  1941.58
                             1958.57  1995.02  2001.48  2014.13  2019.87
                             2020.42  2026.01  2043.35  2054.66  2097.12
                             2151.04  2158.28  2176.20  2180.77  2185.10
                             2190.52  2211.36  2218.10  2251.86  2289.56
                             2402.62  4319.49  4330.52  4347.87  4356.18
                             4359.69  4377.35  4402.82  4409.61  4417.08
                             4422.30  4422.81  4432.66  4499.22  4618.53
                             4691.21  4719.88  4721.00  5227.52

 Zero-point correction=                           0.304322 (Hartree/Particle)
 Thermal correction to Energy=                    0.318596
 Thermal correction to Enthalpy=                  0.319541
 Thermal correction to Gibbs Free Energy=         0.261742
 Sum of electronic and zero-point Energies=           -724.988441
 Sum of electronic and thermal Energies=              -724.974167
 Sum of electronic and thermal Enthalpies=            -724.973223
 Sum of electronic and thermal Free Energies=         -725.031021

                     E (Thermal)             CV                S
                      KCal/Mol        Cal/Mol-Kelvin    Cal/Mol-Kelvin
 Total                  199.922             57.400            121.647
 Electronic               0.000              0.000              0.000
 Translational            0.889              2.981             42.203
 Rotational               0.889              2.981             33.092
 Vibrational            198.145             51.439             46.352
 Vibration     1          0.593              1.984              5.917
 Vibration     2          0.594              1.983              5.646
 Vibration     3          0.595              1.980              5.088
 Vibration     4          0.608              1.936              3.155
 Vibration     5          0.613              1.918              2.865
 Vibration     6          0.630              1.864              2.308
 Vibration     7          0.640              1.833              2.087
 Vibration     8          0.655              1.785              1.829
 Vibration     9          0.658              1.776              1.789
 Vibration    10          0.675              1.724              1.581
 Vibration    11          0.694              1.669              1.402
 Vibration    12          0.714              1.613              1.253
 Vibration    13          0.759              1.489              0.995
 Vibration    14          0.789              1.411              0.868
 Vibration    15          0.802              1.377              0.819
 Vibration    16          0.807              1.364              0.801
 Vibration    17          0.825              1.320              0.742
 Vibration    18          0.883              1.188              0.592
 Vibration    19          0.898              1.155              0.559
 Vibration    20          0.912              1.125              0.530
 Vibration    21          0.922              1.105              0.512

 Optimization completed.
    -- Stationary point found.
 Normal termination of Gaussian 16 at Sun Dec 13 16:25:16 2020.

 ----------------------------------------------------------------------
 # B3LYP/6-311++G(d,p) empiricaldispersion=gd3bj scf=xqc pop=npa geom=c
 heck
 ----------------------------------------------------------------------

 ---------------------------------------
 CID_104730623_JID_7149_Energie_neutraal
 ---------------------------------------
 Structure from the checkpoint file:  "JID_7149.chk"
 Charge =  0 Multiplicity = 1

 SCF Done:  E(RB3LYP) =  -725.483852178     A.U. after   14 cycles
 Normal termination of Gaussian 16 at Sun Dec 13 16:31:25 2020.

 ----------------------------------------------------------------------
 # B3LYP/6-311++G(d,p) empiricaldispersion=gd3bj scf=xqc pop=npa geom=c
 heck
 ----------------------------------------------------------------------

 -------------------------------------
 CID_104730623_JID_7149_Energie_kation
 -------------------------------------
 Structure from the checkpoint file:  "JID_7149.chk"
 Charge =  1 Multiplicity = 2

 SCF Done:  E(UB3LYP) =  -725.208619774     A.U. after   22 cycles
 Normal termination of Gaussian 16 at Sun Dec 13 16:45:19 2020.
 Gaussian 16:  ES64L-G16RevA.03 25-Dec-2016

 ----------------------------------------------------------------------
 # B3LYP/6-311++G(d,p) empiricaldispersion=gd3bj scf=xqc pop=npa geom=c
 heck
 ----------------------------------------------------------------------

 ------------------------------------
 CID_104730623_JID_7149_Energie_anion
 ------------------------------------
 Structure from the checkpoint file:  "JID_7149.chk"
 Charge = -1 Multiplicity = 2

                         Standard orientation:
 ---------------------------------------------------------------------
 Center     Atomic      Atomic             Coordinates (Angstroms)
 Number     Number       Type             X           Y           Z
 ---------------------------------------------------------------------
      1          6           0        4.582766    0.631509   -0.951454
      2          6           0        4.352168   -0.816375   -0.499414
      3          6           0        3.387246   -0.882734    0.691774
      4          6           0        2.052691   -0.186318    0.385141
      5          6           0        2.292114    1.261408   -0.069060
      6          6           0        3.253866    1.332197   -1.262586
      7          6           0        1.118309   -0.268296    1.601635
      8          7           0       -0.204692    0.305548    1.389401
      9          6           0       -1.141220   -0.318117    0.611134
     10          7           0       -0.941357   -1.564086    0.220334
     11          6           0       -1.918394   -2.170874   -0.518953
     12          6           0       -3.080872   -1.572536   -0.900927
     13          7           0       -3.271512   -0.269304   -0.495263
     14          6           0       -2.336514    0.403016    0.270891
     15          6           0       -2.870624    1.675346    0.490489
     16          6           0       -4.102606    1.656273   -0.177212
     17          7           0       -4.353403    0.479507   -0.777367
     18          1           0        5.241499    0.657138   -1.828249
     19          1           0        5.101315    1.180870   -0.151840
     20          1           0        3.930047   -1.392501   -1.335267
     21          1           0        5.306025   -1.292157   -0.240169
     22          1           0        3.854569   -0.396596    1.562460
     23          1           0        3.205110   -1.927144    0.976022
     24          1           0        1.563239   -0.729892   -0.434311
     25          1           0        2.714868    1.835402    0.771192
     26          1           0        1.338404    1.737350   -0.330745
     27          1           0        3.429429    2.377478   -1.545498
     28          1           0        2.783811    0.846438   -2.129707
     29          1           0        0.978446   -1.314310    1.885961
     30          1           0        1.564860    0.256045    2.455179
     31          1           0       -0.284921    1.309373    1.457522
     32          1           0       -1.721338   -3.196728   -0.813959
     33          1           0       -3.869778   -2.014531   -1.491831
     34          1           0       -2.437709    2.485992    1.057709
     35          1           0       -4.834702    2.449127   -0.252953
 ---------------------------------------------------------------------

 SCF Done:  E(UB3LYP) =  -725.473727535     A.U. after   33 cycles
 SCF Done:  E(UB3LYP) =  -725.473727535     a.u. after    1 cycles

 The electronic state is 2-A.
 Alpha  occ. eigenvalues --  -14.30064 -14.22915 -14.22505 -14.18803 -10.13930
 Alpha  occ. eigenvalues --  -10.11146 -10.10237 -10.10131 -10.09618 -10.09609
 Alpha  occ. eigenvalues --  -10.06719 -10.06639 -10.06512 -10.06454 -10.06398
 Alpha  occ. eigenvalues --  -10.06341 -10.05857  -0.96313  -0.86553  -0.80494
 Alpha  occ. eigenvalues --   -0.74447  -0.73331  -0.69939  -0.66044  -0.64168
 Alpha  occ. eigenvalues --   -0.63448  -0.58618  -0.54457  -0.52555  -0.51167
 Alpha  occ. eigenvalues --   -0.50456  -0.48187  -0.46100  -0.45132  -0.41770
 Alpha  occ. eigenvalues --   -0.38157  -0.37982  -0.37678  -0.37069  -0.36130
 Alpha  occ. eigenvalues --   -0.34474  -0.34202  -0.33661  -0.32789  -0.31036
 Alpha  occ. eigenvalues --   -0.30413  -0.30341  -0.28491  -0.27993  -0.27176
 Alpha  occ. eigenvalues --   -0.26098  -0.24403  -0.23598  -0.22939  -0.21844
 Alpha  occ. eigenvalues --   -0.20612  -0.20077  -0.19924  -0.17131  -0.16230
 Alpha  occ. eigenvalues --   -0.14770  -0.10227   0.04434
 Alpha virt. eigenvalues --    0.06305   0.06687   0.07562   0.07794   0.08248
 Alpha virt. eigenvalues --    0.08782   0.09026   0.09546   0.09846   0.10468
 Alpha virt. eigenvalues --    0.10838   0.11511   0.12084   0.12167   0.12575

  Beta  occ. eigenvalues --  -14.29885 -14.22904 -14.22459 -14.18679 -10.13772
  Beta  occ. eigenvalues --  -10.11154 -10.10260 -10.10057 -10.09616 -10.09609
  Beta  occ. eigenvalues --  -10.06658 -10.06628 -10.06507 -10.06444 -10.06379
  Beta  occ. eigenvalues --  -10.06331 -10.05830  -0.96109  -0.86359  -0.80370
  Beta  occ. eigenvalues --   -0.74288  -0.73281  -0.69837  -0.66000  -0.64131
  Beta  occ. eigenvalues --   -0.63332  -0.58510  -0.54370  -0.52392  -0.51117
  Beta  occ. eigenvalues --   -0.50382  -0.48102  -0.46004  -0.45067  -0.41673
  Beta  occ. eigenvalues --   -0.38065  -0.37908  -0.37590  -0.36615  -0.36047
  Beta  occ. eigenvalues --   -0.34422  -0.34174  -0.33588  -0.32721  -0.31000
  Beta  occ. eigenvalues --   -0.30341  -0.30099  -0.28435  -0.27955  -0.26839
  Beta  occ. eigenvalues --   -0.26048  -0.24368  -0.23544  -0.22673  -0.21760
  Beta  occ. eigenvalues --   -0.20488  -0.20035  -0.19888  -0.16714  -0.16066
  Beta  occ. eigenvalues --   -0.14579  -0.09690
  Beta virt. eigenvalues --    0.06720   0.07401   0.07658   0.07948   0.08142
  Beta virt. eigenvalues --    0.08498   0.09013   0.09165   0.09895   0.10232
  Beta virt. eigenvalues --    0.10472   0.11024   0.11697   0.12200   0.12328

 Mulliken charges and spin densities:
               1          2
     1  C    0.399843  -0.854775
     2  C   -0.228000  -0.050418
     3  C   -0.001522  -0.380099
     4  C   -0.415853   1.222992
     5  C    0.931526  -1.409951
     6  C   -0.870819   0.551417
     7  C    0.354183  -1.185843
     8  N   -0.035443   0.147361
     9  C   -0.132045  -0.305649
    10  N   -0.101264   0.054048
    11  C    0.009276  -0.261177
    12  C   -0.183039   0.338138
    13  N    0.245284   0.051317
    14  C   -0.390338   0.313585
    15  C    0.392189  -0.599581
    16  C   -0.059639  -0.293056
    17  N   -0.174178   0.017196
    18  H   -0.384673   0.549322
    19  H    0.047882   0.074033
    20  H    0.124654  -0.008876
    21  H   -0.284581   0.457365
    22  H   -0.073471   0.218895
    23  H    0.096138   0.034915
    24  H    0.099429   0.080248
    25  H   -0.348880   0.511388
    26  H    0.145981   0.005451
    27  H   -0.167857   0.333771
    28  H    0.120026   0.000578
    29  H    0.275390  -0.063184
    30  H   -0.185087   0.339348
    31  H   -0.045486   0.342212
    32  H    0.151510   0.005223
    33  H    0.142161   0.019948
    34  H   -0.502525   0.659407
    35  H    0.049230   0.084451
 Sum of Mulliken charges =  -1.00000   1.00000

 Dipole moment (field-independent basis, Debye):
    X=             -3.1222    Y=             -3.6267    Z=             -0.8948  Tot=              4.8684
 Quadrupole moment (field-independent basis, Debye-Ang):
   XX=           -196.9503   YY=           -137.7805   ZZ=           -130.4666
   XY=             -3.8919   XZ=              1.5264   YZ=             -0.9939

 Summary of Natural Population Analysis:

                                       Natural Population
                Natural  -----------------------------------------------
    Atom  No    Charge         Core      Valence    Rydberg      Total
 -----------------------------------------------------------------------
      C    1   -0.18917      0.99963     2.18160    0.00794     3.18917
      C    2   -0.18832      0.99963     2.17989    0.00880     3.18832
      C    3   -0.18803      0.99961     2.17994    0.00848     3.18803
      C    4   -0.11967      0.99958     2.11099    0.00910     3.11967
      C    5   -0.19192      0.99961     2.18226    0.01005     3.19192
      C    6   -0.18781      0.99963     2.17951    0.00867     3.18781
      C    7   -0.08359      0.99959     2.07132    0.01268     3.08359
      N    8   -0.29773      0.99968     2.78761    0.01045     3.79773
      C    9    0.23052      0.99953     1.75518    0.01477     2.76948
      N   10   -0.25888      0.99967     2.75031    0.00889     3.75888
      C   11   -0.00916      0.99959     1.99679    0.01277     3.00916
      C   12   -0.01851      0.99956     2.00732    0.01163     3.01851
      N   13   -0.06090      0.99960     2.54908    0.01222     3.56090
      C   14    0.04645      0.99953     1.94324    0.01079     2.95355
      C   15   -0.15654      0.99953     2.14718    0.00983     3.15654
      C   16   -0.01458      0.99964     1.99949    0.01545     3.01458
      N   17   -0.16270      0.99974     2.65152    0.01144     3.66270
      H   18    0.09706      0.00000     0.40184    0.00111     0.40294
      H   19    0.09356      0.00000     0.40501    0.00143     0.40644
      H   20    0.09128      0.00000     0.40755    0.00117     0.40872
      H   21    0.09762      0.00000     0.40133    0.00105     0.40238
      H   22    0.09321      0.00000     0.40547    0.00131     0.40679
      H   23    0.09786      0.00000     0.40126    0.00088     0.40214
      H   24    0.10168      0.00000     0.39612    0.00220     0.39832
      H   25    0.09399      0.00000     0.40404    0.00197     0.40601
      H   26    0.10106      0.00000     0.39757    0.00138     0.39894
      H   27    0.09884      0.00000     0.40022    0.00094     0.40116
      H   28    0.09098      0.00000     0.40780    0.00122     0.40902
      H   29    0.10475      0.00000     0.39380    0.00145     0.39525
      H   30    0.09483      0.00000     0.40416    0.00101     0.40517
      H   31    0.19304      0.00000     0.30372    0.00324     0.30696
      H   32    0.09049      0.00000     0.40855    0.00096     0.40951
      H   33    0.10427      0.00000     0.39476    0.00097     0.39573
      H   34    0.11083      0.00000     0.38796    0.00121     0.38917
      H   35    0.09519      0.00000     0.40390    0.00091     0.40481
 =======================================================================
   * Total *   -0.00000     16.99335    44.79829    0.20836    62.00000

 Normal termination of Gaussian 16 at Sun Dec 13 17:06:09 2020.
