 Gaussian 16, Revision A.03,

 -----------------------------------------------------------
 # opt freq B3LYP/6-31G(d) empiricaldispersion=gd3bj scf=xqc
 -----------------------------------------------------------

 -------------------------------
 CID_115619465_JID_5381_neutraal
 -------------------------------
 Symbolic Z-matrix:
 Charge =  0 Multiplicity = 1

 SCF Done:  E(RB3LYP) =  -1411.33244203     A.U. after   14 cycles
 SCF Done:  E(RB3LYP) =  -1411.33757023     A.U. after   12 cycles
 SCF Done:  E(RB3LYP) =  -1411.33783295     A.U. after   12 cycles
 SCF Done:  E(RB3LYP) =  -1411.33840937     A.U. after   12 cycles
 SCF Done:  E(RB3LYP) =  -1411.33848675     A.U. after   11 cycles
 SCF Done:  E(RB3LYP) =  -1411.33851975     A.U. after   11 cycles
 SCF Done:  E(RB3LYP) =  -1411.33853197     A.U. after   10 cycles
 SCF Done:  E(RB3LYP) =  -1411.33854110     A.U. after   10 cycles
 SCF Done:  E(RB3LYP) =  -1411.33854606     A.U. after   10 cycles
 SCF Done:  E(RB3LYP) =  -1411.33854742     A.U. after    9 cycles
 SCF Done:  E(RB3LYP) =  -1411.33854785     A.U. after    8 cycles
 SCF Done:  E(RB3LYP) =  -1411.33854791     A.U. after    7 cycles
 SCF Done:  E(RB3LYP) =  -1411.33854793     A.U. after    6 cycles
 Optimization completed.
    -- Stationary point found.
 Normal termination of Gaussian 16 at Thu Dec 10 15:48:14 2020.

 --------------------------------------------------------------------
 #N Geom=AllCheck Guess=TCheck SCRF=Check GenChk RB3LYP/6-31G(d) Freq
 --------------------------------------------------------------------

 Structure from the checkpoint file:  "JID_5381.chk"
 -------------------------------
 CID_115619465_JID_5381_neutraal
 -------------------------------
 Charge =  0 Multiplicity = 1

 SCF Done:  E(RB3LYP) =  -1411.33854793     A.U. after    1 cycles

  Exact polarizability: 169.639  -1.672 147.422   1.620   3.447 120.151
 Approx polarizability: 213.169  -1.754 211.157   1.373   1.230 201.187

                      1                      2                      3
                      A                      A                      A
 Frequencies --     20.9482                29.0111                43.4584
 Red. masses --      4.1374                 3.5437                 3.2816
 Frc consts  --      0.0011                 0.0018                 0.0037
 IR Inten    --      2.9320                 1.5729                 0.1242

                      4                      5                      6
                      A                      A                      A
 Frequencies --     58.8560                75.3006                87.6911
 Red. masses --      2.7787                 4.4610                 3.0028
 Frc consts  --      0.0057                 0.0149                 0.0136
 IR Inten    --      1.0029                 0.6834                 1.4704

                      7                      8                      9
                      A                      A                      A
 Frequencies --    149.5672               167.6715               180.7598
 Red. masses --      5.0219                 5.0411                 3.1980
 Frc consts  --      0.0662                 0.0835                 0.0616
 IR Inten    --      0.7880                 2.0575                 3.1763

                     10                     11                     12
                      A                      A                      A
 Frequencies --    214.1967               225.5805               235.8647
 Red. masses --      3.2808                 2.4816                 1.8475
 Frc consts  --      0.0887                 0.0744                 0.0606
 IR Inten    --      1.2499                 1.1188                 1.9198

                     13                     14                     15
                      A                      A                      A
 Frequencies --    270.8330               291.3192               311.6399
 Red. masses --      1.4973                 2.1257                 2.5086
 Frc consts  --      0.0647                 0.1063                 0.1435
 IR Inten    --      1.5278                 1.1360                 1.4174

                     16                     17                     18
                      A                      A                      A
 Frequencies --    330.1629               342.3811               365.9938
 Red. masses --      3.3753                 4.2660                 3.8079
 Frc consts  --      0.2168                 0.2946                 0.3005
 IR Inten    --      1.9112                 5.6718                 1.5050

                     19                     20                     21
                      A                      A                      A
 Frequencies --    411.2830               440.3391               463.0295
 Red. masses --      4.7624                 3.3287                 2.6581
 Frc consts  --      0.4746                 0.3803                 0.3358
 IR Inten    --      8.9303                 0.0046                17.8488

                     22                     23                     24
                      A                      A                      A
 Frequencies --    469.3345               506.1213               522.6992
 Red. masses --      2.5531                 5.8786                 4.0329
 Frc consts  --      0.3313                 0.8872                 0.6492
 IR Inten    --      4.6413                28.9887                18.4261

                     25                     26                     27
                      A                      A                      A
 Frequencies --    601.3662               654.0423               658.2955
 Red. masses --      2.4618                 2.5188                 4.5289
 Frc consts  --      0.5245                 0.6348                 1.1563
 IR Inten    --      3.5037               116.1896                 4.2272

                     28                     29                     30
                      A                      A                      A
 Frequencies --    680.9192               693.6058               804.0929
 Red. masses --      2.8412                 4.1099                 1.5507
 Frc consts  --      0.7761                 1.1650                 0.5907
 IR Inten    --     29.4146                 1.5497                 2.2652

                     31                     32                     33
                      A                      A                      A
 Frequencies --    812.3114               822.7971               839.2464
 Red. masses --      1.1955                 2.0285                 1.9376
 Frc consts  --      0.4648                 0.8091                 0.8041
 IR Inten    --     20.6119                 2.2134                12.2054

                     34                     35                     36
                      A                      A                      A
 Frequencies --    866.6507               908.4963               931.5489
 Red. masses --      1.6385                 1.4877                 1.4024
 Frc consts  --      0.7251                 0.7235                 0.7170
 IR Inten    --     14.2475                98.8803                 2.0517

                     37                     38                     39
                      A                      A                      A
 Frequencies --    938.8234               955.9677               987.9727
 Red. masses --      2.1961                 2.0291                 1.9227
 Frc consts  --      1.1404                 1.0925                 1.1057
 IR Inten    --     39.0684                 9.3986                17.6612

                     40                     41                     42
                      A                      A                      A
 Frequencies --   1015.2446              1035.4704              1056.6935
 Red. masses --      2.1190                 2.3191                 2.0887
 Frc consts  --      1.2869                 1.4651                 1.3741
 IR Inten    --      5.4051                 0.9044                11.3433

                     43                     44                     45
                      A                      A                      A
 Frequencies --   1071.2009              1084.1677              1093.8454
 Red. masses --      3.1722                 1.8882                 2.1084
 Frc consts  --      2.1446                 1.3077                 1.4864
 IR Inten    --     34.3499                 3.9992                 1.9937

                     46                     47                     48
                      A                      A                      A
 Frequencies --   1118.3082              1122.6048              1149.0420
 Red. masses --      2.8679                 1.6617                 2.1762
 Frc consts  --      2.1132                 1.2339                 1.6928
 IR Inten    --     89.9281                53.9730                19.6863

                     49                     50                     51
                      A                      A                      A
 Frequencies --   1159.1777              1169.3503              1172.2198
 Red. masses --      1.5646                 2.8116                 1.8686
 Frc consts  --      1.2387                 2.2651                 1.5128
 IR Inten    --      1.3434                39.0464                82.7028

                     52                     53                     54
                      A                      A                      A
 Frequencies --   1207.3096              1231.9680              1241.9925
 Red. masses --      1.1899                 1.3038                 1.3085
 Frc consts  --      1.0219                 1.1659                 1.1892
 IR Inten    --     17.8838                 1.1688                 8.6531

                     55                     56                     57
                      A                      A                      A
 Frequencies --   1280.7207              1290.0991              1302.9746
 Red. masses --      1.3140                 1.3041                 1.5436
 Frc consts  --      1.2699                 1.2788                 1.5441
 IR Inten    --     14.8266                12.3744                27.0543

                     58                     59                     60
                      A                      A                      A
 Frequencies --   1323.4136              1329.5084              1345.8000
 Red. masses --      1.2633                 2.0386                 1.2326
 Frc consts  --      1.3036                 2.1231                 1.3153
 IR Inten    --     25.4314                88.5996                11.2054

                     61                     62                     63
                      A                      A                      A
 Frequencies --   1352.4070              1355.0293              1361.5232
 Red. masses --      1.5788                 1.3659                 1.2800
 Frc consts  --      1.7013                 1.4776                 1.3980
 IR Inten    --     50.2929                 0.6996                23.7233

                     64                     65                     66
                      A                      A                      A
 Frequencies --   1385.4805              1402.0567              1417.2979
 Red. masses --      1.2625                 1.3636                 1.4997
 Frc consts  --      1.4279                 1.5793                 1.7749
 IR Inten    --      6.6666                 7.1810                14.2826

                     67                     68                     69
                      A                      A                      A
 Frequencies --   1434.8499              1442.9047              1447.7137
 Red. masses --      1.5151                 1.2218                 1.3135
 Frc consts  --      1.8379                 1.4987                 1.6220
 IR Inten    --      6.5618                 7.4441                34.6765

                     70                     71                     72
                      A                      A                      A
 Frequencies --   1469.4726              1495.4680              1503.2773
 Red. masses --      1.0953                 1.0864                 1.0862
 Frc consts  --      1.3934                 1.4316                 1.4462
 IR Inten    --      9.3768                 1.3657                10.6447

                     73                     74                     75
                      A                      A                      A
 Frequencies --   1505.5349              1520.1896              1523.9726
 Red. masses --      1.0915                 1.0953                 1.0436
 Frc consts  --      1.4577                 1.4914                 1.4280
 IR Inten    --      2.3554                 3.7433                 4.3536

                     76                     77                     78
                      A                      A                      A
 Frequencies --   1525.1587              1539.2674              1544.0793
 Red. masses --      1.0437                 1.0987                 1.0863
 Frc consts  --      1.4303                 1.5338                 1.5259
 IR Inten    --      4.1057                 0.5346                 4.3628

                     79                     80                     81
                      A                      A                      A
 Frequencies --   1567.7213              2900.9656              2977.8474
 Red. masses --      1.1861                 1.0806                 1.0724
 Frc consts  --      1.7176                 5.3582                 5.6031
 IR Inten    --     55.6475                59.1774                37.9555

                     82                     83                     84
                      A                      A                      A
 Frequencies --   3018.5781              3042.6890              3053.7107
 Red. masses --      1.0666                 1.0645                 1.0634
 Frc consts  --      5.7262                 5.8064                 5.8428
 IR Inten    --     48.3902                29.8846                30.8149

                     85                     86                     87
                      A                      A                      A
 Frequencies --   3053.7388              3055.2899              3060.7497
 Red. masses --      1.0398                 1.0657                 1.0620
 Frc consts  --      5.7129                 5.8613                 5.8619
 IR Inten    --     10.8985                22.7158                21.7603

                     88                     89                     90
                      A                      A                      A
 Frequencies --   3079.5257              3085.0459              3095.5118
 Red. masses --      1.0840                 1.0939                 1.0651
 Frc consts  --      6.0569                 6.1340                 6.0131
 IR Inten    --     21.0705                23.8995                 7.9667

                     91                     92                     93
                      A                      A                      A
 Frequencies --   3098.8093              3105.4719              3119.0390
 Red. masses --      1.0965                 1.0998                 1.1016
 Frc consts  --      6.2037                 6.2492                 6.3141
 IR Inten    --     26.1062                 3.8479                19.3430

                     94                     95                     96
                      A                      A                      A
 Frequencies --   3120.0918              3126.7948              3139.3752
 Red. masses --      1.1006                 1.1017                 1.1038
 Frc consts  --      6.3127                 6.3464                 6.4097
 IR Inten    --     12.6664                31.8217                31.5688

                     97                     98                     99
                      A                      A                      A
 Frequencies --   3152.1899              3475.8470              3498.7079
 Red. masses --      1.1060                 1.0740                 1.0746
 Frc consts  --      6.4750                 7.6446                 7.7503
 IR Inten    --      2.6417                66.9035                18.5688

 - Thermochemistry -
 -------------------
 Temperature   298.150 Kelvin.  Pressure   1.00000 Atm.
 Atom     1 has atomic number  6 and mass  12.00000

 Molecular mass:   252.09662 amu.
 Principal axes and moments of inertia in atomic units:
                           1         2         3
     Eigenvalues --  1939.504068782.476019889.64987
           X            0.99986   0.01561  -0.00657
           Y           -0.01552   0.99979   0.01317
           Z            0.00678  -0.01307   0.99989
 This molecule is an asymmetric top.
 Rotational symmetry number  1.
 Warning -- assumption of classical behavior for rotation
           may cause significant error
 Rotational temperatures (Kelvin)      0.04466     0.00986     0.00876
 Rotational constants (GHZ):           0.93052     0.20549     0.18249
 Zero-point vibrational energy     796860.5 (Joules/Mol)
                                  190.45423 (Kcal/Mol)
 Warning -- explicit consideration of  25 degrees of freedom as
           vibrations may cause significant error
 Vibrational temperatures:     30.14    41.74    62.53    84.68   108.34
          (Kelvin)            126.17   215.19   241.24   260.07   308.18
                              324.56   339.36   389.67   419.14   448.38
                              475.03   492.61   526.58   591.74   633.55
                              666.20   675.27   728.20   752.05   865.23
                              941.02   947.14   979.69   997.94  1156.91
                             1168.73  1183.82  1207.49  1246.92  1307.12
                             1340.29  1350.76  1375.42  1421.47  1460.71
                             1489.81  1520.35  1541.22  1559.88  1573.80
                             1609.00  1615.18  1653.22  1667.80  1682.43
                             1686.56  1737.05  1772.53  1786.95  1842.67
                             1856.16  1874.69  1904.10  1912.87  1936.31
                             1945.81  1949.59  1958.93  1993.40  2017.25
                             2039.18  2064.43  2076.02  2082.94  2114.24
                             2151.64  2162.88  2166.13  2187.21  2192.66
                             2194.36  2214.66  2221.59  2255.60  4173.84
                             4284.46  4343.06  4377.75  4393.61  4393.65
                             4395.88  4403.74  4430.75  4438.69  4453.75
                             4458.50  4468.08  4487.60  4489.12  4498.76
                             4516.86  4535.30  5000.97  5033.86

 Zero-point correction=                           0.303508 (Hartree/Particle)
 Thermal correction to Energy=                    0.320395
 Thermal correction to Enthalpy=                  0.321339
 Thermal correction to Gibbs Free Energy=         0.256717
 Sum of electronic and zero-point Energies=          -1411.035040
 Sum of electronic and thermal Energies=             -1411.018153
 Sum of electronic and thermal Enthalpies=           -1411.017209
 Sum of electronic and thermal Free Energies=        -1411.081831

                     E (Thermal)             CV                S
                      KCal/Mol        Cal/Mol-Kelvin    Cal/Mol-Kelvin
 Total                  201.051             62.842            136.008
 Electronic               0.000              0.000              0.000
 Translational            0.889              2.981             42.474
 Rotational               0.889              2.981             33.487
 Vibrational            199.273             56.880             60.046
 Vibration     1          0.593              1.986              6.542
 Vibration     2          0.593              1.984              5.896
 Vibration     3          0.595              1.980              5.095
 Vibration     4          0.596              1.974              4.495
 Vibration     5          0.599              1.965              4.010
 Vibration     6          0.601              1.958              3.711
 Vibration     7          0.618              1.903              2.678
 Vibration     8          0.624              1.882              2.461
 Vibration     9          0.630              1.866              2.321
 Vibration    10          0.644              1.819              2.008
 Vibration    11          0.650              1.802              1.914
 Vibration    12          0.655              1.786              1.834
 Vibration    13          0.675              1.727              1.591
 Vibration    14          0.687              1.690              1.466
 Vibration    15          0.700              1.652              1.354
 Vibration    16          0.713              1.615              1.259
 Vibration    17          0.722              1.591              1.201
 Vibration    18          0.739              1.542              1.097
 Vibration    19          0.775              1.446              0.922
 Vibration    20          0.800              1.382              0.826
 Vibration    21          0.821              1.332              0.757
 Vibration    22          0.826              1.318              0.739
 Vibration    23          0.861              1.236              0.643
 Vibration    24          0.878              1.200              0.604
 Vibration    25          0.960              1.029              0.447

                           ! Non-Optimized Parameters !
 Normal termination of Gaussian 16 at Thu Dec 10 15:58:52 2020.

 ----------------------------------------------------------------------
 # B3LYP/6-311++G(d,p) empiricaldispersion=gd3bj scf=xqc pop=npa geom=c
 heck
 ----------------------------------------------------------------------

 ---------------------------------------
 CID_115619465_JID_5381_Energie_neutraal
 ---------------------------------------
 Structure from the checkpoint file:  "JID_5381.chk"
 Charge =  0 Multiplicity = 1

 SCF Done:  E(RB3LYP) =  -1411.57545497     A.U. after   14 cycles
 Normal termination of Gaussian 16 at Thu Dec 10 16:03:35 2020.

 ----------------------------------------------------------------------
 # B3LYP/6-311++G(d,p) empiricaldispersion=gd3bj scf=xqc pop=npa geom=c
 heck
 ----------------------------------------------------------------------

 -------------------------------------
 CID_115619465_JID_5381_Energie_kation
 -------------------------------------
 Structure from the checkpoint file:  "JID_5381.chk"
 Charge =  1 Multiplicity = 2

 SCF Done:  E(UB3LYP) =  -1411.27665210     A.U. after   22 cycles
 Normal termination of Gaussian 16 at Thu Dec 10 16:13:31 2020.
 Gaussian 16:  ES64L-G16RevA.03 25-Dec-2016

 ----------------------------------------------------------------------
 # B3LYP/6-311++G(d,p) empiricaldispersion=gd3bj scf=xqc pop=npa geom=c
 heck
 ----------------------------------------------------------------------

 ------------------------------------
 CID_115619465_JID_5381_Energie_anion
 ------------------------------------
 Structure from the checkpoint file:  "JID_5381.chk"
 Charge = -1 Multiplicity = 2

                         Standard orientation:
 ---------------------------------------------------------------------
 Center     Atomic      Atomic             Coordinates (Angstroms)
 Number     Number       Type             X           Y           Z
 ---------------------------------------------------------------------
      1          6           0        1.775762    3.150835   -0.467734
      2          6           0        2.577762    1.878905   -0.717882
      3          7           0        2.355241    0.935067    0.394226
      4         16           0        3.097372   -0.593442    0.268919
      5          8           0        4.353206   -0.506684   -0.485367
      6          8           0        3.071905   -1.128435    1.634544
      7          6           0        1.923313   -1.512904   -0.760942
      8          6           0        0.516610   -1.635343   -0.182398
      9          7           0       -0.225822   -0.390041   -0.341836
     10          6           0       -1.591809   -0.424723    0.184235
     11          6           0       -2.519293   -1.188481   -0.773122
     12          6           0       -3.959477   -1.276763   -0.266743
     13         16           0       -4.747949    0.368198   -0.081816
     14          6           0       -3.465749    1.122512    0.989160
     15          6           0       -2.062977    1.021194    0.391102
     16          1           0        0.706885    2.927192   -0.392710
     17          1           0        1.925911    3.858979   -1.288783
     18          1           0        2.091356    3.643546    0.459767
     19          1           0        2.222972    1.392418   -1.631663
     20          1           0        3.644285    2.095835   -0.852048
     21          1           0        2.635830    1.313614    1.299707
     22          1           0        1.907572   -1.026643   -1.739902
     23          1           0        2.406215   -2.489507   -0.863594
     24          1           0        0.012448   -2.428023   -0.746089
     25          1           0        0.582964   -1.981459    0.864299
     26          1           0        0.298655    0.334184    0.147631
     27          1           0       -1.628674   -0.933867    1.169560
     28          1           0       -2.493036   -0.694304   -1.750758
     29          1           0       -2.142919   -2.210115   -0.914469
     30          1           0       -4.586974   -1.829725   -0.971716
     31          1           0       -4.001287   -1.802968    0.694865
     32          1           0       -3.499009    0.647404    1.977069
     33          1           0       -3.759361    2.168575    1.116418
     34          1           0       -1.357422    1.528204    1.066338
     35          1           0       -2.028847    1.544940   -0.571773
 ---------------------------------------------------------------------

 SCF Done:  E(UB3LYP) =  -1411.56646715     A.U. after   32 cycles

 The electronic state is 2-A.
 Alpha  occ. eigenvalues --  -88.97263 -88.74907 -19.03079 -19.03072 -14.25660
 Alpha  occ. eigenvalues --  -14.20652 -10.12643 -10.12405 -10.11851 -10.11329
 Alpha  occ. eigenvalues --  -10.11252 -10.11193 -10.08379 -10.08170 -10.07697
 Alpha  occ. eigenvalues --   -8.03533  -7.83539  -5.99815  -5.99769  -5.99594
 Alpha  occ. eigenvalues --   -5.79917  -5.79587  -5.78907  -1.03143  -0.92229
 Alpha  occ. eigenvalues --   -0.84199  -0.82740  -0.74707  -0.70660  -0.67327
 Alpha  occ. eigenvalues --   -0.66983  -0.64509  -0.57941  -0.54719  -0.53964
 Alpha  occ. eigenvalues --   -0.52404  -0.50662  -0.47299  -0.43930  -0.42721
 Alpha  occ. eigenvalues --   -0.40934  -0.40138  -0.38949  -0.37613  -0.37304
 Alpha  occ. eigenvalues --   -0.36528  -0.35755  -0.34953  -0.34208  -0.31889
 Alpha  occ. eigenvalues --   -0.31540  -0.31118  -0.30897  -0.29736  -0.28988
 Alpha  occ. eigenvalues --   -0.28186  -0.27640  -0.27224  -0.25744  -0.25396
 Alpha  occ. eigenvalues --   -0.23690  -0.23017  -0.22491  -0.21750  -0.21484
 Alpha  occ. eigenvalues --   -0.19127  -0.14645  -0.13826   0.03888
 Alpha virt. eigenvalues --    0.05555   0.06460   0.07112   0.07354   0.08214
 Alpha virt. eigenvalues --    0.08751   0.09416   0.09693   0.10293   0.10677
 Alpha virt. eigenvalues --    0.10766   0.11664   0.11773   0.12224   0.12734

  Beta  occ. eigenvalues --  -88.97258 -88.74906 -19.03072 -19.03065 -14.25627
  Beta  occ. eigenvalues --  -14.20640 -10.12621 -10.12392 -10.11831 -10.11324
  Beta  occ. eigenvalues --  -10.11238 -10.11177 -10.08362 -10.08155 -10.07641
  Beta  occ. eigenvalues --   -8.03527  -7.83537  -5.99807  -5.99765  -5.99590
  Beta  occ. eigenvalues --   -5.79917  -5.79585  -5.78904  -1.03123  -0.92213
  Beta  occ. eigenvalues --   -0.84152  -0.82713  -0.74683  -0.70625  -0.67296
  Beta  occ. eigenvalues --   -0.66924  -0.64475  -0.57893  -0.54627  -0.53912
  Beta  occ. eigenvalues --   -0.52365  -0.50603  -0.47258  -0.43908  -0.42694
  Beta  occ. eigenvalues --   -0.40895  -0.40111  -0.38922  -0.37586  -0.37261
  Beta  occ. eigenvalues --   -0.36508  -0.35716  -0.34924  -0.34170  -0.31848
  Beta  occ. eigenvalues --   -0.31500  -0.31074  -0.30858  -0.29694  -0.28939
  Beta  occ. eigenvalues --   -0.28151  -0.27590  -0.27199  -0.25723  -0.25371
  Beta  occ. eigenvalues --   -0.23672  -0.22995  -0.22469  -0.21726  -0.21456
  Beta  occ. eigenvalues --   -0.19093  -0.14613  -0.13807
  Beta virt. eigenvalues --    0.06102   0.06640   0.06973   0.07486   0.07797
  Beta virt. eigenvalues --    0.08738   0.09145   0.09643   0.10044   0.10408
  Beta virt. eigenvalues --    0.10958   0.10997   0.11707   0.12029   0.12512

 Mulliken charges and spin densities:
               1          2
     1  C    1.177300  -1.726945
     2  C   -0.344661   0.161497
     3  N   -0.500290   0.097744
     4  S    0.547218  -0.068377
     5  O   -0.149573   0.027811
     6  O   -0.257018  -0.002936
     7  C    0.182178  -1.022649
     8  C   -0.305147  -0.031004
     9  N    0.115828   0.036822
    10  C   -0.080287  -0.646465
    11  C   -0.038430   0.071280
    12  C   -0.045239  -0.528690
    13  S    0.137209  -0.109633
    14  C   -0.505502  -0.196238
    15  C   -0.222554   0.430081
    16  H   -0.475242   0.636512
    17  H   -0.254219   0.399486
    18  H   -0.514621   0.661087
    19  H    0.193228  -0.021764
    20  H   -0.047157   0.244054
    21  H    0.124467   0.193720
    22  H    0.093543   0.177157
    23  H   -0.056288   0.302140
    24  H   -0.338900   0.487081
    25  H    0.037957   0.138807
    26  H    0.793103  -0.488045
    27  H    0.106587   0.037068
    28  H    0.065466   0.090890
    29  H   -0.254202   0.402454
    30  H   -0.052564   0.266335
    31  H    0.085185   0.094954
    32  H    0.057667   0.128844
    33  H   -0.131131   0.363467
    34  H   -0.302018   0.432941
    35  H    0.158107  -0.039487
 Sum of Mulliken charges =  -1.00000   1.00000

 Dipole moment (field-independent basis, Debye):
    X=             -2.0760    Y=             -2.4015    Z=             -0.8263  Tot=              3.2802
 Quadrupole moment (field-independent basis, Debye-Ang):
   XX=           -195.3575   YY=           -169.0674   ZZ=           -142.1730
   XY=             -2.6581   XZ=             -4.7397   YZ=             -4.2254

 Summary of Natural Population Analysis:

                                       Natural Population
                Natural  -----------------------------------------------
    Atom  No    Charge         Core      Valence    Rydberg      Total
 -----------------------------------------------------------------------
      C    1   -0.28839      0.99966     2.28271    0.00602     3.28839
      C    2   -0.09416      0.99963     2.08253    0.01200     3.09416
      N    3   -0.44290      0.99976     2.92903    0.01412     3.94290
      S    4    1.09109      4.99930     1.81146    0.09815     6.90891
      O    5   -0.46387      0.99991     3.45886    0.00510     4.46387
      O    6   -0.46439      0.99991     3.45927    0.00521     4.46439
      C    7   -0.29013      0.99957     2.27804    0.01253     3.29013
      C    8   -0.09691      0.99961     2.08571    0.01158     3.09691
      N    9   -0.35263      0.99971     2.84192    0.01099     3.85263
      C   10   -0.00582      0.99958     1.99439    0.01185     3.00582
      C   11   -0.19990      0.99959     2.18989    0.01042     3.19990
      C   12   -0.24938      0.99959     2.23887    0.01092     3.24938
      S   13    0.08170      4.99964     2.90139    0.01727     7.91830
      C   14   -0.24823      0.99959     2.23760    0.01104     3.24823
      C   15   -0.19940      0.99960     2.18895    0.01085     3.19940
      H   16    0.10262      0.00000     0.39579    0.00159     0.39738
      H   17    0.10479      0.00000     0.39384    0.00137     0.39521
      H   18    0.10191      0.00000     0.39553    0.00256     0.39809
      H   19    0.09616      0.00000     0.40246    0.00138     0.40384
      H   20    0.09532      0.00000     0.40335    0.00133     0.40468
      H   21    0.19942      0.00000     0.29801    0.00257     0.30058
      H   22    0.11836      0.00000     0.38018    0.00145     0.38164
      H   23    0.12057      0.00000     0.37834    0.00109     0.37943
      H   24    0.10156      0.00000     0.39652    0.00191     0.39844
      H   25    0.09151      0.00000     0.40700    0.00148     0.40849
      H   26    0.18828      0.00000     0.30649    0.00523     0.31172
      H   27    0.07708      0.00000     0.42065    0.00227     0.42292
      H   28    0.10279      0.00000     0.39547    0.00174     0.39721
      H   29    0.10259      0.00000     0.39560    0.00181     0.39741
      H   30    0.10760      0.00000     0.39144    0.00096     0.39240
      H   31    0.09823      0.00000     0.40035    0.00143     0.40177
      H   32    0.09849      0.00000     0.40007    0.00144     0.40151
      H   33    0.10922      0.00000     0.38974    0.00104     0.39078
      H   34    0.10388      0.00000     0.39430    0.00182     0.39612
      H   35    0.10297      0.00000     0.39509    0.00194     0.39703
 =======================================================================
   * Total *    0.00000     22.99464    44.72089    0.28448    68.00000

 Normal termination of Gaussian 16 at Thu Dec 10 16:28:53 2020.
