 Gaussian 16, Revision A.03,

 -----------------------------------------------------------
 # opt freq B3LYP/6-31G(d) empiricaldispersion=gd3bj scf=xqc
 -----------------------------------------------------------

 -------------------------------
 CID_116324779_JID_6161_neutraal
 -------------------------------
 Symbolic Z-matrix:
 Charge =  0 Multiplicity = 1

 SCF Done:  E(RB3LYP) =  -641.403278243     A.U. after   13 cycles
 SCF Done:  E(RB3LYP) =  -641.411170190     A.U. after   11 cycles
 SCF Done:  E(RB3LYP) =  -641.411700930     A.U. after   11 cycles
 SCF Done:  E(RB3LYP) =  -641.411905360     A.U. after   11 cycles
 SCF Done:  E(RB3LYP) =  -641.411965441     A.U. after    9 cycles
 SCF Done:  E(RB3LYP) =  -641.411974253     A.U. after    9 cycles
 SCF Done:  E(RB3LYP) =  -641.411976206     A.U. after    8 cycles
 SCF Done:  E(RB3LYP) =  -641.411976631     A.U. after    8 cycles
 SCF Done:  E(RB3LYP) =  -641.411976833     A.U. after    6 cycles
 Optimization completed.
    -- Stationary point found.
 Normal termination of Gaussian 16 at Thu Dec 10 21:13:58 2020.

 --------------------------------------------------------------------
 #N Geom=AllCheck Guess=TCheck SCRF=Check GenChk RB3LYP/6-31G(d) Freq
 --------------------------------------------------------------------

 Structure from the checkpoint file:  "JID_6161.chk"
 -------------------------------
 CID_116324779_JID_6161_neutraal
 -------------------------------
 Charge =  0 Multiplicity = 1

 SCF Done:  E(RB3LYP) =  -641.411976833     A.U. after    1 cycles

  Exact polarizability: 181.783  -0.014 141.548  -1.028  -5.742 139.510
 Approx polarizability: 222.474   0.959 216.189  -4.269 -12.717 216.042

                      1                      2                      3
                      A                      A                      A
 Frequencies --     23.9009                39.9069                58.4545
 Red. masses --      3.4058                 3.3566                 3.0775
 Frc consts  --      0.0011                 0.0031                 0.0062
 IR Inten    --      0.1127                 0.0915                 0.0448

                      4                      5                      6
                      A                      A                      A
 Frequencies --     87.2933               104.8386               130.7236
 Red. masses --      3.5354                 2.6815                 2.0402
 Frc consts  --      0.0159                 0.0174                 0.0205
 IR Inten    --      0.3466                 0.2340                 0.0278

                      7                      8                      9
                      A                      A                      A
 Frequencies --    164.2223               193.7770               221.0370
 Red. masses --      2.9986                 3.1060                 2.0654
 Frc consts  --      0.0476                 0.0687                 0.0595
 IR Inten    --      0.0276                 0.0318                 0.0466

                     10                     11                     12
                      A                      A                      A
 Frequencies --    227.7755               237.5087               248.0618
 Red. masses --      1.5908                 1.2776                 1.5015
 Frc consts  --      0.0486                 0.0425                 0.0544
 IR Inten    --      0.2338                 0.0164                 0.4435

                     13                     14                     15
                      A                      A                      A
 Frequencies --    323.6135               345.0312               360.6990
 Red. masses --      2.5267                 3.2151                 2.1887
 Frc consts  --      0.1559                 0.2255                 0.1678
 IR Inten    --      0.8050                 0.8619                 1.1739

                     16                     17                     18
                      A                      A                      A
 Frequencies --    390.4460               441.1078               460.5922
 Red. masses --      2.6550                 3.0645                 2.4469
 Frc consts  --      0.2385                 0.3513                 0.3058
 IR Inten    --      0.0971                 0.6959                 2.2030

                     19                     20                     21
                      A                      A                      A
 Frequencies --    476.6654               503.9067               523.8496
 Red. masses --      2.1352                 2.1966                 2.4126
 Frc consts  --      0.2858                 0.3286                 0.3901
 IR Inten    --     10.9128                 1.6502                 3.2881

                     22                     23                     24
                      A                      A                      A
 Frequencies --    624.9241               655.9185               676.9337
 Red. masses --      2.5315                 1.9830                 2.7223
 Frc consts  --      0.5825                 0.5027                 0.7350
 IR Inten    --      1.7193                 1.7818                 4.6457

                     25                     26                     27
                      A                      A                      A
 Frequencies --    719.2175               762.8718               781.0583
 Red. masses --      1.8461                 2.7029                 1.5334
 Frc consts  --      0.5626                 0.9268                 0.5512
 IR Inten    --     32.5779                 4.2744                 5.8524

                     28                     29                     30
                      A                      A                      A
 Frequencies --    788.7689               798.0857               801.9811
 Red. masses --      2.6461                 1.5263                 1.9688
 Frc consts  --      0.9700                 0.5728                 0.7461
 IR Inten    --     12.5746                 1.8520                27.2369

                     31                     32                     33
                      A                      A                      A
 Frequencies --    851.1563               874.0842               893.2888
 Red. masses --      2.3738                 2.4094                 1.9951
 Frc consts  --      1.0132                 1.0846                 0.9380
 IR Inten    --     15.5479                 3.2152                 1.2807

                     34                     35                     36
                      A                      A                      A
 Frequencies --    902.4125               913.8629               916.7377
 Red. masses --      1.8880                 2.1432                 2.2401
 Frc consts  --      0.9059                 1.0546                 1.1092
 IR Inten    --      3.8103                 2.6946                 0.9745

                     37                     38                     39
                      A                      A                      A
 Frequencies --    923.9212               944.2427               946.0502
 Red. masses --      1.7334                 2.1366                 1.5707
 Frc consts  --      0.8718                 1.1224                 0.8283
 IR Inten    --      3.8472                 2.2569                 0.3776

                     40                     41                     42
                      A                      A                      A
 Frequencies --    951.1349               961.2404               965.8362
 Red. masses --      2.0658                 2.5853                 1.8097
 Frc consts  --      1.1011                 1.4074                 0.9946
 IR Inten    --      0.7825                 2.0802                 0.2732

                     43                     44                     45
                      A                      A                      A
 Frequencies --    980.5478               995.2765              1010.6557
 Red. masses --      1.8259                 1.8537                 1.6219
 Frc consts  --      1.0344                 1.0819                 0.9761
 IR Inten    --      2.0773                 0.5002                 1.4328

                     46                     47                     48
                      A                      A                      A
 Frequencies --   1016.7942              1025.1427              1055.8936
 Red. masses --      1.6501                 1.6406                 1.9713
 Frc consts  --      1.0051                 1.0158                 1.2949
 IR Inten    --      0.9262                 1.9753                 4.0371

                     49                     50                     51
                      A                      A                      A
 Frequencies --   1062.5220              1076.6605              1090.7777
 Red. masses --      1.5289                 2.1403                 2.2295
 Frc consts  --      1.0170                 1.4618                 1.5629
 IR Inten    --      5.6344                 7.5648                 3.0736

                     52                     53                     54
                      A                      A                      A
 Frequencies --   1109.4685              1131.6275              1147.5404
 Red. masses --      2.0135                 1.3769                 1.7788
 Frc consts  --      1.4602                 1.0389                 1.3801
 IR Inten    --      5.5814                 5.9396                 2.9628

                     55                     56                     57
                      A                      A                      A
 Frequencies --   1160.8386              1170.9830              1185.5110
 Red. masses --      1.3783                 1.8080                 1.4813
 Frc consts  --      1.0943                 1.4607                 1.2266
 IR Inten    --     19.5226                26.4281                10.2949

                     58                     59                     60
                      A                      A                      A
 Frequencies --   1203.2896              1216.8042              1218.8049
 Red. masses --      1.7070                 1.8119                 1.5513
 Frc consts  --      1.4562                 1.5806                 1.3578
 IR Inten    --      1.2110                 8.5426                 0.6889

                     61                     62                     63
                      A                      A                      A
 Frequencies --   1222.1171              1237.7615              1255.6295
 Red. masses --      1.7001                 1.4758                 1.3970
 Frc consts  --      1.4960                 1.3321                 1.2977
 IR Inten    --     15.9599                 5.7921                 4.9635

                     64                     65                     66
                      A                      A                      A
 Frequencies --   1270.7687              1275.9340              1279.7030
 Red. masses --      1.3078                 1.4011                 1.2199
 Frc consts  --      1.2443                 1.3440                 1.1771
 IR Inten    --      0.0778                 1.8380                 0.5226

                     67                     68                     69
                      A                      A                      A
 Frequencies --   1290.0917              1304.3437              1312.4599
 Red. masses --      1.4415                 1.3685                 1.3966
 Frc consts  --      1.4136                 1.3717                 1.4174
 IR Inten    --      0.3271                 0.6378                 0.1018

                     70                     71                     72
                      A                      A                      A
 Frequencies --   1314.9350              1319.5473              1330.0141
 Red. masses --      1.3441                 1.4891                 1.4100
 Frc consts  --      1.3692                 1.5276                 1.4695
 IR Inten    --      5.1373                 0.8081                 6.2956

                     73                     74                     75
                      A                      A                      A
 Frequencies --   1339.3177              1357.5074              1373.3710
 Red. masses --      1.4311                 1.2947                 1.5002
 Frc consts  --      1.5125                 1.4057                 1.6672
 IR Inten    --      3.4126                12.7964                 3.3996

                     76                     77                     78
                      A                      A                      A
 Frequencies --   1381.8215              1389.2082              1401.6751
 Red. masses --      1.6423                 1.3299                 1.4150
 Frc consts  --      1.8476                 1.5122                 1.6380
 IR Inten    --     10.1322                27.5780                 3.1698

                     79                     80                     81
                      A                      A                      A
 Frequencies --   1424.0157              1433.1909              1437.9870
 Red. masses --      1.4886                 1.2506                 1.2580
 Frc consts  --      1.7785                 1.5134                 1.5326
 IR Inten    --      0.4865                 3.2163                27.9311

                     82                     83                     84
                      A                      A                      A
 Frequencies --   1508.1119              1509.1814              1512.3407
 Red. masses --      1.0918                 1.1004                 1.1125
 Frc consts  --      1.4630                 1.4767                 1.4992
 IR Inten    --      1.2286                 2.4701                19.7883

                     85                     86                     87
                      A                      A                      A
 Frequencies --   1514.9412              1523.7644              1526.6488
 Red. masses --      1.0835                 1.0602                 1.0736
 Frc consts  --      1.4652                 1.4503                 1.4742
 IR Inten    --      2.5773                 4.9242                 1.0170

                     88                     89                     90
                      A                      A                      A
 Frequencies --   1527.2841              1530.5595              1537.8178
 Red. masses --      1.0593                 1.0832                 1.1485
 Frc consts  --      1.4559                 1.4951                 1.6003
 IR Inten    --      1.0288                14.7602                23.5134

                     91                     92                     93
                      A                      A                      A
 Frequencies --   1541.3609              1657.8149              2921.0216
 Red. masses --      1.1430                 5.5885                 1.0803
 Frc consts  --      1.6000                 9.0494                 5.4308
 IR Inten    --      1.3984                 1.4219                53.4877

                     94                     95                     96
                      A                      A                      A
 Frequencies --   3041.8006              3044.2350              3049.1893
 Red. masses --      1.0582                 1.0554                 1.0739
 Frc consts  --      5.7687                 5.7625                 5.8829
 IR Inten    --      3.8417                10.6000                12.2103

                     97                     98                     99
                      A                      A                      A
 Frequencies --   3052.5008              3053.9939              3057.3801
 Red. masses --      1.0501                 1.0595                 1.0823
 Frc consts  --      5.7651                 5.8222                 5.9608
 IR Inten    --     10.4555                66.0487                24.4590

                    100                    101                    102
                      A                      A                      A
 Frequencies --   3061.6106              3072.4159              3072.6055
 Red. masses --      1.0618                 1.0600                 1.0612
 Frc consts  --      5.8641                 5.8956                 5.9031
 IR Inten    --     23.9296                49.8112                37.6542

                    103                    104                    105
                      A                      A                      A
 Frequencies --   3082.9830              3104.6126              3105.2623
 Red. masses --      1.0611                 1.1054                 1.0947
 Frc consts  --      5.9422                 6.2777                 6.2195
 IR Inten    --     31.2164                20.6031                36.6597

                    106                    107                    108
                      A                      A                      A
 Frequencies --   3112.3875              3113.0253              3115.5959
 Red. masses --      1.1053                 1.0941                 1.1005
 Frc consts  --      6.3082                 6.2472                 6.2942
 IR Inten    --     22.3847                57.8266                32.4575

                    109                    110                    111
                      A                      A                      A
 Frequencies --   3117.4045              3118.8727              3119.6781
 Red. masses --      1.0942                 1.0993                 1.1037
 Frc consts  --      6.2652                 6.3005                 6.3288
 IR Inten    --     37.7715                76.4530                 7.3138

                    112                    113                    114
                      A                      A                      A
 Frequencies --   3123.9730              3128.6330              3149.1471
 Red. masses --      1.1030                 1.1079                 1.1056
 Frc consts  --      6.3421                 6.3893                 6.4600
 IR Inten    --     22.8766                79.1088                16.8535

                    115                    116                    117
                      A                      A                      A
 Frequencies --   3199.0428              3224.0762              3485.5743
 Red. masses --      1.0857                 1.1054                 1.0734
 Frc consts  --      6.5462                 6.7701                 7.6832
 IR Inten    --     11.8435                31.4026                 1.1782

 - Thermochemistry -
 -------------------
 Temperature   298.150 Kelvin.  Pressure   1.00000 Atm.
 Atom     1 has atomic number  6 and mass  12.00000

 Molecular mass:   219.19870 amu.
 Principal axes and moments of inertia in atomic units:
                           1         2         3
     Eigenvalues --  1641.208306967.319387020.20342
           X            1.00000   0.00215   0.00217
           Y           -0.00175   0.98561  -0.16902
           Z           -0.00250   0.16902   0.98561
 This molecule is an asymmetric top.
 Rotational symmetry number  1.
 Warning -- assumption of classical behavior for rotation
           may cause significant error
 Rotational temperatures (Kelvin)      0.05277     0.01243     0.01234
 Rotational constants (GHZ):           1.09964     0.25903     0.25708
 Zero-point vibrational energy     990774.3 (Joules/Mol)
                                  236.80074 (Kcal/Mol)
 Warning -- explicit consideration of  21 degrees of freedom as
           vibrations may cause significant error
 Vibrational temperatures:     34.39    57.42    84.10   125.60   150.84
          (Kelvin)            188.08   236.28   278.80   318.02   327.72
                              341.72   356.91   465.61   496.42   518.97
                              561.76   634.66   662.69   685.82   725.01
                              753.70   899.13   943.72   973.96  1034.79
                             1097.60  1123.77  1134.86  1148.27  1153.87
                             1224.62  1257.61  1285.24  1298.37  1314.84
                             1318.98  1329.32  1358.55  1361.16  1368.47
                             1383.01  1389.62  1410.79  1431.98  1454.11
                             1462.94  1474.95  1519.20  1528.73  1549.07
                             1569.39  1596.28  1628.16  1651.05  1670.19
                             1684.78  1705.69  1731.27  1750.71  1753.59
                             1758.35  1780.86  1806.57  1828.35  1835.78
                             1841.21  1856.15  1876.66  1888.34  1891.90
                             1898.53  1913.59  1926.98  1953.15  1975.97
                             1988.13  1998.76  2016.70  2048.84  2062.04
                             2068.94  2169.84  2171.38  2175.92  2179.66
                             2192.36  2196.51  2197.42  2202.13  2212.58
                             2217.67  2385.23  4202.70  4376.47  4379.98
                             4387.10  4391.87  4394.02  4398.89  4404.97
                             4420.52  4420.79  4435.72  4466.85  4467.78
                             4478.03  4478.95  4482.65  4485.25  4487.36
                             4488.52  4494.70  4501.41  4530.92  4602.71
                             4638.73  5014.96

 Zero-point correction=                           0.377366 (Hartree/Particle)
 Thermal correction to Energy=                    0.393025
 Thermal correction to Enthalpy=                  0.393969
 Thermal correction to Gibbs Free Energy=         0.333638
 Sum of electronic and zero-point Energies=           -641.034611
 Sum of electronic and thermal Energies=              -641.018952
 Sum of electronic and thermal Enthalpies=            -641.018008
 Sum of electronic and thermal Free Energies=         -641.078338

                     E (Thermal)             CV                S
                      KCal/Mol        Cal/Mol-Kelvin    Cal/Mol-Kelvin
 Total                  246.627             62.663            126.977
 Electronic               0.000              0.000              0.000
 Translational            0.889              2.981             42.057
 Rotational               0.889              2.981             32.751
 Vibrational            244.849             56.702             52.168
 Vibration     1          0.593              1.985              6.280
 Vibration     2          0.594              1.981              5.264
 Vibration     3          0.596              1.974              4.509
 Vibration     4          0.601              1.958              3.720
 Vibration     5          0.605              1.945              3.362
 Vibration     6          0.612              1.923              2.935
 Vibration     7          0.623              1.886              2.501
 Vibration     8          0.635              1.849              2.191
 Vibration     9          0.648              1.809              1.951
 Vibration    10          0.651              1.799              1.896
 Vibration    11          0.656              1.783              1.821
 Vibration    12          0.662              1.766              1.744
 Vibration    13          0.708              1.628              1.292
 Vibration    14          0.723              1.585              1.189
 Vibration    15          0.735              1.553              1.119
 Vibration    16          0.758              1.491              0.998
 Vibration    17          0.801              1.381              0.823
 Vibration    18          0.818              1.337              0.764
 Vibration    19          0.833              1.302              0.719
 Vibration    20          0.859              1.241              0.648
 Vibration    21          0.879              1.197              0.601

                           ! Non-Optimized Parameters !
 Normal termination of Gaussian 16 at Thu Dec 10 21:31:26 2020.

 ----------------------------------------------------------------------
 # B3LYP/6-311++G(d,p) empiricaldispersion=gd3bj scf=xqc pop=npa geom=c
 heck
 ----------------------------------------------------------------------

 ---------------------------------------
 CID_116324779_JID_6161_Energie_neutraal
 ---------------------------------------
 Structure from the checkpoint file:  "JID_6161.chk"
 Charge =  0 Multiplicity = 1

 SCF Done:  E(RB3LYP) =  -641.583777075     A.U. after   14 cycles
 Normal termination of Gaussian 16 at Thu Dec 10 21:40:25 2020.

 ----------------------------------------------------------------------
 # B3LYP/6-311++G(d,p) empiricaldispersion=gd3bj scf=xqc pop=npa geom=c
 heck
 ----------------------------------------------------------------------

 -------------------------------------
 CID_116324779_JID_6161_Energie_kation
 -------------------------------------
 Structure from the checkpoint file:  "JID_6161.chk"
 Charge =  1 Multiplicity = 2

 SCF Done:  E(UB3LYP) =  -641.293391483     A.U. after   23 cycles
 Normal termination of Gaussian 16 at Thu Dec 10 21:59:35 2020.
 Gaussian 16:  ES64L-G16RevA.03 25-Dec-2016

 ----------------------------------------------------------------------
 # B3LYP/6-311++G(d,p) empiricaldispersion=gd3bj scf=xqc pop=npa geom=c
 heck
 ----------------------------------------------------------------------

 ------------------------------------
 CID_116324779_JID_6161_Energie_anion
 ------------------------------------
 Structure from the checkpoint file:  "JID_6161.chk"
 Charge = -1 Multiplicity = 2

                         Standard orientation:
 ---------------------------------------------------------------------
 Center     Atomic      Atomic             Coordinates (Angstroms)
 Number     Number       Type             X           Y           Z
 ---------------------------------------------------------------------
      1          6           0       -1.781576    2.246656   -0.074057
      2          6           0       -1.811175    0.762512    0.299711
      3          6           0       -2.782652   -0.005252   -0.586622
      4          6           0       -3.112834   -1.481831   -0.221881
      5          6           0       -4.588403   -1.205133   -0.612569
      6          6           0       -4.298191    0.313084   -0.485882
      7          7           0       -0.475654    0.172123    0.150973
      8          6           0        0.458794    0.406125    1.259840
      9          6           0        0.171100   -0.489162    2.476048
     10          6           0        1.928985    0.288046    0.807792
     11          6           0        2.343129    1.327581   -0.276535
     12          6           0        3.042430    0.456376   -1.370767
     13          6           0        2.100189   -0.767904   -1.372761
     14          6           0        2.341879   -1.073682    0.125785
     15          6           0        3.865155   -1.072849    0.153583
     16          6           0        4.281200   -0.155142   -0.729750
     17          1           0       -1.471005    2.362456   -1.118208
     18          1           0       -1.077104    2.805956    0.550497
     19          1           0       -2.771445    2.699225    0.053018
     20          1           0       -2.181409    0.675411    1.339900
     21          1           0       -2.442410    0.061762   -1.628010
     22          1           0       -2.585151   -2.276836   -0.758913
     23          1           0       -3.004829   -1.655071    0.855802
     24          1           0       -5.369663   -1.628610    0.025727
     25          1           0       -4.791644   -1.492992   -1.649090
     26          1           0       -4.556285    0.691839    0.510162
     27          1           0       -4.730120    0.982793   -1.235586
     28          1           0       -0.573048   -0.833332    0.019935
     29          1           0        0.316846    1.449300    1.570143
     30          1           0        0.324625   -1.546480    2.227541
     31          1           0        0.830842   -0.246143    3.317047
     32          1           0       -0.863521   -0.372465    2.816566
     33          1           0        2.536573    0.421531    1.709945
     34          1           0        1.451354    1.802322   -0.698106
     35          1           0        2.999641    2.108375    0.118789
     36          1           0        3.193516    0.969791   -2.323338
     37          1           0        2.453343   -1.573641   -2.023798
     38          1           0        1.065026   -0.506284   -1.602638
     39          1           0        1.859030   -1.961908    0.541072
     40          1           0        4.469910   -1.625402    0.865919
     41          1           0        5.298326    0.186996   -0.892776
 ---------------------------------------------------------------------

 SCF Done:  E(UB3LYP) =  -641.567964012     A.U. after   33 cycles
 SCF Done:  E(UB3LYP) =  -641.567964012     a.u. after    1 cycles

 The electronic state is 2-A.
 Alpha  occ. eigenvalues --  -14.19658 -10.10133 -10.10046 -10.08072 -10.08004
 Alpha  occ. eigenvalues --  -10.07744 -10.07483 -10.07399 -10.07236 -10.07190
 Alpha  occ. eigenvalues --  -10.07124 -10.07028 -10.06600 -10.06345 -10.06251
 Alpha  occ. eigenvalues --  -10.06036  -0.81843  -0.78427  -0.75138  -0.68372
 Alpha  occ. eigenvalues --   -0.64251  -0.62973  -0.61142  -0.59697  -0.57329
 Alpha  occ. eigenvalues --   -0.56403  -0.52207  -0.49024  -0.47596  -0.45964
 Alpha  occ. eigenvalues --   -0.45003  -0.42266  -0.42057  -0.40034  -0.38817
 Alpha  occ. eigenvalues --   -0.38256  -0.36742  -0.34471  -0.33689  -0.32389
 Alpha  occ. eigenvalues --   -0.31360  -0.30538  -0.29893  -0.29426  -0.28659
 Alpha  occ. eigenvalues --   -0.28315  -0.27692  -0.26722  -0.25643  -0.25523
 Alpha  occ. eigenvalues --   -0.25170  -0.24316  -0.24266  -0.22749  -0.22320
 Alpha  occ. eigenvalues --   -0.21814  -0.21496  -0.20698  -0.20086  -0.14741
 Alpha  occ. eigenvalues --   -0.13029   0.04289
 Alpha virt. eigenvalues --    0.05938   0.06650   0.06744   0.07527   0.07846
 Alpha virt. eigenvalues --    0.08169   0.08716   0.09177   0.09447   0.09660
 Alpha virt. eigenvalues --    0.09934   0.10471   0.10843   0.11181   0.11927

  Beta  occ. eigenvalues --  -14.19652 -10.10126 -10.10034 -10.08068 -10.07995
  Beta  occ. eigenvalues --  -10.07740 -10.07479 -10.07380 -10.07217 -10.07172
  Beta  occ. eigenvalues --  -10.07115 -10.07020 -10.06592 -10.06339 -10.06238
  Beta  occ. eigenvalues --  -10.06005  -0.81829  -0.78412  -0.75117  -0.68349
  Beta  occ. eigenvalues --   -0.64231  -0.62949  -0.61115  -0.59670  -0.57293
  Beta  occ. eigenvalues --   -0.56355  -0.52167  -0.48983  -0.47573  -0.45926
  Beta  occ. eigenvalues --   -0.44968  -0.42230  -0.42030  -0.40002  -0.38769
  Beta  occ. eigenvalues --   -0.38233  -0.36714  -0.34447  -0.33671  -0.32356
  Beta  occ. eigenvalues --   -0.31333  -0.30513  -0.29871  -0.29399  -0.28637
  Beta  occ. eigenvalues --   -0.28292  -0.27666  -0.26696  -0.25619  -0.25498
  Beta  occ. eigenvalues --   -0.25148  -0.24293  -0.24248  -0.22732  -0.22293
  Beta  occ. eigenvalues --   -0.21790  -0.21469  -0.20674  -0.20065  -0.14725
  Beta  occ. eigenvalues --   -0.13007
  Beta virt. eigenvalues --    0.06148   0.06652   0.07225   0.07229   0.07975
  Beta virt. eigenvalues --    0.08299   0.08513   0.08957   0.09496   0.09746
  Beta virt. eigenvalues --    0.09880   0.10229   0.10710   0.11135   0.11547

 Mulliken charges and spin densities:
               1          2
     1  C    0.178199  -0.731173
     2  C    0.368198  -1.135690
     3  C   -1.306234   2.013841
     4  C    0.447904  -0.835041
     5  C    0.104037  -0.557875
     6  C    0.389536  -0.887999
     7  N    0.289357   0.005457
     8  C   -1.027913   0.456926
     9  C    0.434354  -1.110867
    10  C    0.693619  -0.008867
    11  C   -0.117016  -0.539082
    12  C   -0.176065   0.388989
    13  C   -0.013347  -0.677577
    14  C   -0.244650   0.465950
    15  C   -0.063159  -0.533259
    16  C    0.132656  -0.408510
    17  H    0.101987   0.053241
    18  H   -0.107186   0.230231
    19  H   -0.131859   0.285534
    20  H    0.153944  -0.031676
    21  H   -0.077615   0.258260
    22  H   -0.154761   0.289803
    23  H    0.030404   0.126423
    24  H   -0.247151   0.401329
    25  H   -0.031237   0.167349
    26  H   -0.194612   0.332455
    27  H   -0.068350   0.205850
    28  H    0.314571  -0.108316
    29  H    0.095954   0.055526
    30  H    0.015143   0.124379
    31  H   -0.330850   0.477384
    32  H   -0.358096   0.499484
    33  H    0.210333   0.054245
    34  H    0.216489  -0.067852
    35  H   -0.162386   0.304963
    36  H   -0.015492   0.232965
    37  H   -0.100817   0.260350
    38  H    0.348998  -0.185495
    39  H   -0.014100   0.264728
    40  H   -0.340403   0.474169
    41  H   -0.242383   0.389450
 Sum of Mulliken charges =  -1.00000   1.00000

 Dipole moment (field-independent basis, Debye):
    X=              1.1897    Y=              1.2999    Z=             -2.1735  Tot=              2.7981
 Quadrupole moment (field-independent basis, Debye-Ang):
   XX=           -198.8407   YY=           -144.0348   ZZ=           -146.3127
   XY=              0.0414   XZ=              0.4709   YZ=              0.6007

 Summary of Natural Population Analysis:

                                       Natural Population
                Natural  -----------------------------------------------
    Atom  No    Charge         Core      Valence    Rydberg      Total
 -----------------------------------------------------------------------
      C    1   -0.28645      0.99964     2.28056    0.00625     3.28645
      C    2   -0.00907      0.99956     1.99705    0.01247     3.00907
      C    3   -0.10866      0.99958     2.09770    0.01138     3.10866
      C    4   -0.19120      0.99963     2.18322    0.00836     3.19120
      C    5   -0.18613      0.99965     2.17933    0.00715     3.18613
      C    6   -0.18631      0.99963     2.17873    0.00795     3.18631
      N    7   -0.34806      0.99972     2.83768    0.01066     3.84806
      C    8   -0.00693      0.99957     1.99454    0.01282     3.00693
      C    9   -0.29222      0.99964     2.28676    0.00581     3.29222
      C   10   -0.10356      0.99957     2.09191    0.01208     3.10356
      C   11   -0.18649      0.99961     2.17839    0.00849     3.18649
      C   12   -0.12810      0.99960     2.11645    0.01205     3.12810
      C   13   -0.18457      0.99963     2.17601    0.00893     3.18457
      C   14   -0.12897      0.99959     2.11707    0.01231     3.12897
      C   15   -0.09292      0.99952     2.08199    0.01141     3.09292
      C   16   -0.09826      0.99952     2.08823    0.01052     3.09826
      H   17    0.09901      0.00000     0.39997    0.00102     0.40099
      H   18    0.09892      0.00000     0.40017    0.00092     0.40108
      H   19    0.09944      0.00000     0.39973    0.00084     0.40056
      H   20    0.07910      0.00000     0.41834    0.00255     0.42090
      H   21    0.09850      0.00000     0.40019    0.00130     0.40150
      H   22    0.09706      0.00000     0.40181    0.00113     0.40294
      H   23    0.09809      0.00000     0.40033    0.00158     0.40191
      H   24    0.09566      0.00000     0.40296    0.00138     0.40434
      H   25    0.09409      0.00000     0.40446    0.00145     0.40591
      H   26    0.09726      0.00000     0.40128    0.00146     0.40274
      H   27    0.09663      0.00000     0.40237    0.00101     0.40337
      H   28    0.17444      0.00000     0.32161    0.00396     0.32556
      H   29    0.09313      0.00000     0.40508    0.00179     0.40687
      H   30    0.09633      0.00000     0.40220    0.00147     0.40367
      H   31    0.10064      0.00000     0.39825    0.00112     0.39936
      H   32    0.10103      0.00000     0.39781    0.00115     0.39897
      H   33    0.10068      0.00000     0.39802    0.00130     0.39932
      H   34    0.10572      0.00000     0.39280    0.00148     0.39428
      H   35    0.09822      0.00000     0.40091    0.00086     0.40178
      H   36    0.10088      0.00000     0.39822    0.00091     0.39912
      H   37    0.09848      0.00000     0.40051    0.00101     0.40152
      H   38    0.10911      0.00000     0.38926    0.00163     0.39089
      H   39    0.10454      0.00000     0.39388    0.00158     0.39546
      H   40    0.10118      0.00000     0.39780    0.00102     0.39882
      H   41    0.09976      0.00000     0.39928    0.00095     0.40024
 =======================================================================
   * Total *    0.00000     15.99365    44.81286    0.19348    61.00000

 Normal termination of Gaussian 16 at Thu Dec 10 22:29:03 2020.
