 Gaussian 16, Revision A.03,

 -----------------------------------------------------------
 # opt freq B3LYP/6-31G(d) empiricaldispersion=gd3bj scf=xqc
 -----------------------------------------------------------

 -------------------------------
 CID_105454216_JID_5435_neutraal
 -------------------------------
 Symbolic Z-matrix:
 Charge =  0 Multiplicity = 1

 SCF Done:  E(RB3LYP) =  -685.168633022     A.U. after   15 cycles
 SCF Done:  E(RB3LYP) =  -685.171183247     A.U. after   13 cycles
 SCF Done:  E(RB3LYP) =  -685.171480998     A.U. after   11 cycles
 SCF Done:  E(RB3LYP) =  -685.171498189     A.U. after   11 cycles
 SCF Done:  E(RB3LYP) =  -685.171627168     A.U. after   11 cycles
 SCF Done:  E(RB3LYP) =  -685.171753193     A.U. after   12 cycles
 SCF Done:  E(RB3LYP) =  -685.171678288     A.U. after   14 cycles
 SCF Done:  E(RB3LYP) =  -685.171983003     A.U. after   12 cycles
 SCF Done:  E(RB3LYP) =  -685.172094527     A.U. after   12 cycles
 SCF Done:  E(RB3LYP) =  -685.172144742     A.U. after   11 cycles
 SCF Done:  E(RB3LYP) =  -685.172215871     A.U. after   10 cycles
 SCF Done:  E(RB3LYP) =  -685.172219722     A.U. after    9 cycles
 SCF Done:  E(RB3LYP) =  -685.172220098     A.U. after    8 cycles
 SCF Done:  E(RB3LYP) =  -685.172220269     A.U. after    8 cycles
 SCF Done:  E(RB3LYP) =  -685.172220298     A.U. after    7 cycles
 Optimization completed.
    -- Stationary point found.
 Normal termination of Gaussian 16 at Thu Dec 10 16:06:45 2020.

 --------------------------------------------------------------------
 #N Geom=AllCheck Guess=TCheck SCRF=Check GenChk RB3LYP/6-31G(d) Freq
 --------------------------------------------------------------------

 Structure from the checkpoint file:  "JID_5435.chk"
 -------------------------------
 CID_105454216_JID_5435_neutraal
 -------------------------------
 Charge =  0 Multiplicity = 1

 SCF Done:  E(RB3LYP) =  -685.172220298     A.U. after    1 cycles

  Exact polarizability: 177.518   0.151 127.224 -10.419 -12.859  81.466
 Approx polarizability: 272.599   2.523 217.318 -16.981 -31.429 134.792

                      1                      2                      3
                      A                      A                      A
 Frequencies --     32.0364                47.9024                71.7327
 Red. masses --      5.4557                 4.0462                 4.9173
 Frc consts  --      0.0033                 0.0055                 0.0149
 IR Inten    --      1.1295                 3.7219                 1.3999

                      4                      5                      6
                      A                      A                      A
 Frequencies --    109.7815               142.4349               180.6128
 Red. masses --      3.7039                 1.1890                 5.5171
 Frc consts  --      0.0263                 0.0142                 0.1060
 IR Inten    --      0.1590                 0.1288                 0.7949

                      7                      8                      9
                      A                      A                      A
 Frequencies --    198.7795               240.4357               295.0669
 Red. masses --      4.2443                 4.5184                 5.1077
 Frc consts  --      0.0988                 0.1539                 0.2620
 IR Inten    --      0.4558                 0.6212                 1.5062

                     10                     11                     12
                      A                      A                      A
 Frequencies --    306.3800               330.3715               372.2936
 Red. masses --      5.7248                 5.6414                 1.1043
 Frc consts  --      0.3166                 0.3628                 0.0902
 IR Inten    --      0.1078                 4.9418               114.9066

                     13                     14                     15
                      A                      A                      A
 Frequencies --    397.8862               448.5197               464.3890
 Red. masses --      5.0030                 4.2638                 3.2513
 Frc consts  --      0.4667                 0.5054                 0.4131
 IR Inten    --      2.2947                 7.0487                 1.9991

                     16                     17                     18
                      A                      A                      A
 Frequencies --    537.0826               543.6868               559.7686
 Red. masses --      5.6268                 3.6521                 1.8874
 Frc consts  --      0.9563                 0.6361                 0.3484
 IR Inten    --      3.1261                16.0395                30.0840

                     19                     20                     21
                      A                      A                      A
 Frequencies --    587.3982               623.3696               644.5162
 Red. masses --      2.7507                 4.1610                 4.3014
 Frc consts  --      0.5592                 0.9527                 1.0528
 IR Inten    --      5.6784                16.0414                 4.9978

                     22                     23                     24
                      A                      A                      A
 Frequencies --    695.1796               701.1350               711.3127
 Red. masses --      3.8260                 3.4270                 2.9019
 Frc consts  --      1.0894                 0.9926                 0.8651
 IR Inten    --     12.4633                25.5864                 3.7985

                     25                     26                     27
                      A                      A                      A
 Frequencies --    730.1068               804.7180               867.0138
 Red. masses --      4.1760                 1.4283                 1.4978
 Frc consts  --      1.3116                 0.5450                 0.6634
 IR Inten    --      6.3272                27.2265                23.1437

                     28                     29                     30
                      A                      A                      A
 Frequencies --    893.7927               899.9788               908.4101
 Red. masses --      6.2924                 1.3824                 1.3465
 Frc consts  --      2.9617                 0.6597                 0.6547
 IR Inten    --     20.6466                 0.1968                14.3091

                     31                     32                     33
                      A                      A                      A
 Frequencies --    952.6030               976.0353               982.9636
 Red. masses --      4.8416                 1.2651                 2.2307
 Frc consts  --      2.5886                 0.7101                 1.2699
 IR Inten    --     58.3530                 0.1300                 8.2624

                     34                     35                     36
                      A                      A                      A
 Frequencies --   1017.8888              1052.8053              1056.8541
 Red. masses --      5.9065                 1.9297                 2.3695
 Frc consts  --      3.6057                 1.2602                 1.5593
 IR Inten    --      4.1315                 6.3976                 3.8567

                     37                     38                     39
                      A                      A                      A
 Frequencies --   1111.8053              1120.2805              1137.5908
 Red. masses --      1.7444                 2.0818                 3.0290
 Frc consts  --      1.2705                 1.5394                 2.3095
 IR Inten    --      6.6488                 9.4182                28.9775

                     40                     41                     42
                      A                      A                      A
 Frequencies --   1197.3427              1215.2248              1220.0332
 Red. masses --      1.1374                 1.3250                 2.0637
 Frc consts  --      0.9607                 1.1529                 1.8098
 IR Inten    --     24.4052               144.1505                38.4427

                     43                     44                     45
                      A                      A                      A
 Frequencies --   1267.2196              1291.7047              1329.0138
 Red. masses --      2.4632                 2.6305                 2.6504
 Frc consts  --      2.3305                 2.5859                 2.7581
 IR Inten    --     41.3561                59.6373                42.4192

                     46                     47                     48
                      A                      A                      A
 Frequencies --   1363.8077              1373.1205              1399.5112
 Red. masses --      1.6426                 4.8906                 2.1484
 Frc consts  --      1.8000                 5.4328                 2.4793
 IR Inten    --      3.2019                16.4229                 1.5459

                     49                     50                     51
                      A                      A                      A
 Frequencies --   1421.4026              1466.4484              1482.7686
 Red. masses --      1.8727                 3.6039                 2.2130
 Frc consts  --      2.2293                 4.5663                 2.8667
 IR Inten    --     27.1821                54.9974                39.9964

                     52                     53                     54
                      A                      A                      A
 Frequencies --   1494.4546              1507.0591              1517.9368
 Red. masses --      1.2311                 1.0883                 3.9566
 Frc consts  --      1.6200                 1.4563                 5.3713
 IR Inten    --     13.7456                21.6901               161.0724

                     55                     56                     57
                      A                      A                      A
 Frequencies --   1551.2521              1613.0773              1655.8157
 Red. masses --      2.7198                 4.7352                 5.7572
 Frc consts  --      3.8561                 7.2593                 9.3001
 IR Inten    --     19.4845                31.8892                42.4133

                     58                     59                     60
                      A                      A                      A
 Frequencies --   1667.6749              1763.4849              3066.0088
 Red. masses --      6.0651                10.7351                 1.0367
 Frc consts  --      9.9383                19.6698                 5.7418
 IR Inten    --     74.3938               235.7652                 3.8276

                     61                     62                     63
                      A                      A                      A
 Frequencies --   3130.1699              3167.3022              3184.6791
 Red. masses --      1.0982                 1.1042                 1.0907
 Frc consts  --      6.3398                 6.5266                 6.5174
 IR Inten    --      8.9964                13.9227                 8.6416

                     64                     65                     66
                      A                      A                      A
 Frequencies --   3197.1685              3212.5925              3225.3827
 Red. masses --      1.0870                 1.0927                 1.0949
 Frc consts  --      6.5463                 6.6446                 6.7112
 IR Inten    --      5.8040                 8.7887                 6.8628

                     67                     68                     69
                      A                      A                      A
 Frequencies --   3283.3166              3649.5466              3749.6749
 Red. masses --      1.0967                 1.0812                 1.0660
 Frc consts  --      6.9656                 8.4848                 8.8305
 IR Inten    --      1.1201                70.7117                41.5956

 - Thermochemistry -
 -------------------
 Temperature   298.150 Kelvin.  Pressure   1.00000 Atm.
 Atom     1 has atomic number  6 and mass  12.00000

 Molecular mass:   202.07423 amu.
 Principal axes and moments of inertia in atomic units:
                           1         2         3
     Eigenvalues --  1806.743104346.891925419.39471
           X            0.99999   0.00400  -0.00312
           Y           -0.00402   0.99997  -0.00673
           Z            0.00309   0.00674   0.99997
 This molecule is an asymmetric top.
 Rotational symmetry number  1.
 Warning -- assumption of classical behavior for rotation
           may cause significant error
 Rotational temperatures (Kelvin)      0.04794     0.01993     0.01598
 Rotational constants (GHZ):           0.99889     0.41518     0.33302
 Zero-point vibrational energy     510919.8 (Joules/Mol)
                                  122.11275 (Kcal/Mol)
 Warning -- explicit consideration of  19 degrees of freedom as
           vibrations may cause significant error
 Vibrational temperatures:     46.09    68.92   103.21   157.95   204.93
          (Kelvin)            259.86   286.00   345.93   424.54   440.81
                              475.33   535.65   572.47   645.32   668.15
                              772.74   782.24   805.38   845.13   896.89
                              927.32  1000.21  1008.78  1023.42  1050.46
                             1157.81  1247.44  1285.97  1294.87  1307.00
                             1370.58  1404.30  1414.27  1464.51  1514.75
                             1520.58  1599.64  1611.83  1636.74  1722.71
                             1748.44  1755.36  1823.25  1858.47  1912.15
                             1962.22  1975.61  2013.58  2045.08  2109.89
                             2133.37  2150.19  2168.32  2183.97  2231.91
                             2320.86  2382.35  2399.41  2537.26  4411.30
                             4503.62  4557.04  4582.04  4600.01  4622.20
                             4640.61  4723.96  5250.88  5394.95

 Zero-point correction=                           0.194599 (Hartree/Particle)
 Thermal correction to Energy=                    0.207551
 Thermal correction to Enthalpy=                  0.208495
 Thermal correction to Gibbs Free Energy=         0.154043
 Sum of electronic and zero-point Energies=           -684.977621
 Sum of electronic and thermal Energies=              -684.964670
 Sum of electronic and thermal Enthalpies=            -684.963726
 Sum of electronic and thermal Free Energies=         -685.018177

                     E (Thermal)             CV                S
                      KCal/Mol        Cal/Mol-Kelvin    Cal/Mol-Kelvin
 Total                  130.240             49.349            114.603
 Electronic               0.000              0.000              0.000
 Translational            0.889              2.981             41.815
 Rotational               0.889              2.981             32.121
 Vibrational            128.463             43.387             40.668
 Vibration     1          0.594              1.983              5.699
 Vibration     2          0.595              1.978              4.902
 Vibration     3          0.598              1.967              4.105
 Vibration     4          0.606              1.941              3.273
 Vibration     5          0.616              1.911              2.771
 Vibration     6          0.630              1.866              2.322
 Vibration     7          0.637              1.842              2.144
 Vibration     8          0.658              1.779              1.800
 Vibration     9          0.689              1.683              1.445
 Vibration    10          0.697              1.662              1.382
 Vibration    11          0.713              1.615              1.258
 Vibration    12          0.744              1.529              1.070
 Vibration    13          0.764              1.475              0.970
 Vibration    14          0.808              1.364              0.800
 Vibration    15          0.822              1.329              0.753
 Vibration    16          0.892              1.168              0.572
 Vibration    17          0.899              1.154              0.557
 Vibration    18          0.915              1.118              0.524
 Vibration    19          0.945              1.059              0.472

 Optimization completed.
    -- Stationary point found.
 Normal termination of Gaussian 16 at Thu Dec 10 16:14:13 2020.

 ----------------------------------------------------------------------
 # B3LYP/6-311++G(d,p) empiricaldispersion=gd3bj scf=xqc pop=npa geom=c
 heck
 ----------------------------------------------------------------------

 ---------------------------------------
 CID_105454216_JID_5435_Energie_neutraal
 ---------------------------------------
 Structure from the checkpoint file:  "JID_5435.chk"
 Charge =  0 Multiplicity = 1

 SCF Done:  E(RB3LYP) =  -685.367790937     A.U. after   16 cycles
 Normal termination of Gaussian 16 at Thu Dec 10 16:18:11 2020.

 ----------------------------------------------------------------------
 # B3LYP/6-311++G(d,p) empiricaldispersion=gd3bj scf=xqc pop=npa geom=c
 heck
 ----------------------------------------------------------------------

 -------------------------------------
 CID_105454216_JID_5435_Energie_kation
 -------------------------------------
 Structure from the checkpoint file:  "JID_5435.chk"
 Charge =  1 Multiplicity = 2

 SCF Done:  E(UB3LYP) =  -685.054607605     A.U. after   31 cycles
 Normal termination of Gaussian 16 at Thu Dec 10 16:31:38 2020.
 Gaussian 16:  ES64L-G16RevA.03 25-Dec-2016

 ----------------------------------------------------------------------
 # B3LYP/6-311++G(d,p) empiricaldispersion=gd3bj scf=xqc pop=npa geom=c
 heck
 ----------------------------------------------------------------------

 ------------------------------------
 CID_105454216_JID_5435_Energie_anion
 ------------------------------------
 Structure from the checkpoint file:  "JID_5435.chk"
 Charge = -1 Multiplicity = 2

                         Standard orientation:
 ---------------------------------------------------------------------
 Center     Atomic      Atomic             Coordinates (Angstroms)
 Number     Number       Type             X           Y           Z
 ---------------------------------------------------------------------
      1          6           0        0.899501    2.212054    0.961305
      2          6           0        2.077573    1.477328    0.344683
      3          8           0        3.158877    2.036559    0.213575
      4          6           0        1.927592    0.069411   -0.066092
      5          6           0        0.813183   -0.778094   -0.116691
      6          7           0        1.309853   -1.999227   -0.446016
      7          7           0        2.654114   -2.021931   -0.631384
      8          6           0        3.026539   -0.771467   -0.401265
      9          6           0       -0.632764   -0.590032    0.076590
     10          6           0       -1.325183    0.364739   -0.680768
     11          6           0       -2.701665    0.525458   -0.516896
     12          6           0       -3.399546   -0.274590    0.396039
     13          6           0       -2.710477   -1.228796    1.136752
     14          6           0       -1.332425   -1.395307    0.985016
     15          8           0       -3.424280    1.438719   -1.227025
     16          1           0        1.278800    3.092151    1.484319
     17          1           0        0.331476    1.576243    1.646955
     18          1           0        0.205103    2.543544    0.181341
     19          1           0        0.770902   -2.833541   -0.629744
     20          1           0        4.066847   -0.483554   -0.453475
     21          1           0       -0.785041    0.965014   -1.408581
     22          1           0       -4.469434   -0.133127    0.505636
     23          1           0       -3.252084   -1.846438    1.847044
     24          1           0       -0.794732   -2.123331    1.584052
     25          1           0       -2.830344    1.924695   -1.820175
 ---------------------------------------------------------------------

 SCF Done:  E(UB3LYP) =  -685.376581540     A.U. after   33 cycles
 SCF Done:  E(UB3LYP) =  -685.376581540     a.u. after    1 cycles

 The electronic state is 2-A.
 Alpha  occ. eigenvalues --  -19.04378 -18.93778 -14.24624 -14.20187 -10.11208
 Alpha  occ. eigenvalues --  -10.09158 -10.07249 -10.05699 -10.05045 -10.05041
 Alpha  occ. eigenvalues --  -10.04375 -10.04073 -10.03575 -10.03001 -10.02638
 Alpha  occ. eigenvalues --   -0.95332  -0.91419  -0.87689  -0.73418  -0.69384
 Alpha  occ. eigenvalues --   -0.66183  -0.61943  -0.61565  -0.59415  -0.51519
 Alpha  occ. eigenvalues --   -0.50049  -0.48103  -0.47027  -0.43491  -0.39586
 Alpha  occ. eigenvalues --   -0.37728  -0.36177  -0.34809  -0.32064  -0.31553
 Alpha  occ. eigenvalues --   -0.31298  -0.30413  -0.29794  -0.29261  -0.28816
 Alpha  occ. eigenvalues --   -0.27590  -0.26137  -0.25172  -0.24352  -0.22311
 Alpha  occ. eigenvalues --   -0.21901  -0.21620  -0.17125  -0.14829  -0.12951
 Alpha  occ. eigenvalues --   -0.11741  -0.10454  -0.09981   0.04670
 Alpha virt. eigenvalues --    0.07546   0.08501   0.09828   0.10316   0.10796
 Alpha virt. eigenvalues --    0.11087   0.11521   0.11963   0.12467   0.13538
 Alpha virt. eigenvalues --    0.14046   0.14201   0.14598   0.15891   0.16543

  Beta  occ. eigenvalues --  -19.04376 -18.93423 -14.24455 -14.20230 -10.11268
  Beta  occ. eigenvalues --  -10.08926 -10.07019 -10.05678 -10.05014 -10.04846
  Beta  occ. eigenvalues --  -10.04341 -10.03900 -10.03322 -10.03020 -10.02605
  Beta  occ. eigenvalues --   -0.95324  -0.91237  -0.87042  -0.73076  -0.69156
  Beta  occ. eigenvalues --   -0.65814  -0.61612  -0.61269  -0.59235  -0.51161
  Beta  occ. eigenvalues --   -0.49781  -0.47749  -0.46892  -0.43353  -0.39349
  Beta  occ. eigenvalues --   -0.37486  -0.35819  -0.34622  -0.31932  -0.31300
  Beta  occ. eigenvalues --   -0.30863  -0.30272  -0.29546  -0.28849  -0.28604
  Beta  occ. eigenvalues --   -0.27465  -0.26009  -0.24863  -0.24211  -0.22024
  Beta  occ. eigenvalues --   -0.21451  -0.20231  -0.17030  -0.13860  -0.11995
  Beta  occ. eigenvalues --   -0.10948  -0.09723  -0.09505
  Beta virt. eigenvalues --    0.07630   0.08474   0.09743   0.09950   0.10700
  Beta virt. eigenvalues --    0.10982   0.11392   0.11945   0.12289   0.12741
  Beta virt. eigenvalues --    0.13502   0.14188   0.14467   0.15031   0.15921

 Mulliken charges and spin densities:
               1          2
     1  C   -0.399481  -0.085977
     2  C   -0.444717   0.131493
     3  O   -0.390227   0.123974
     4  C    0.360326  -0.000002
     5  C   -0.707743   0.165216
     6  N    0.026367   0.056862
     7  N   -0.228172  -0.016724
     8  C   -0.039572   0.024760
     9  C    1.252016   0.053462
    10  C   -0.718407   0.459534
    11  C   -0.508794  -0.209032
    12  C    0.197742   0.037326
    13  C   -0.448053   0.040332
    14  C   -0.184774   0.043391
    15  O   -0.255768   0.000455
    16  H    0.161839  -0.010907
    17  H    0.124981   0.000030
    18  H    0.012535   0.124189
    19  H    0.284099  -0.004033
    20  H    0.176207  -0.000926
    21  H    0.158592  -0.016557
    22  H    0.130988  -0.011799
    23  H    0.121820  -0.000759
    24  H    0.152114   0.003761
    25  H    0.166082   0.091932
 Sum of Mulliken charges =  -1.00000   1.00000

 Dipole moment (field-independent basis, Debye):
    X=             -4.1140    Y=             -2.0552    Z=             -0.2052  Tot=              4.6034
 Quadrupole moment (field-independent basis, Debye-Ang):
   XX=           -144.6036   YY=           -108.4089   ZZ=            -94.0893
   XY=             -3.7565   XZ=              0.5267   YZ=             -4.1642

 Summary of Natural Population Analysis:

                                       Natural Population
                Natural  -----------------------------------------------
    Atom  No    Charge         Core      Valence    Rydberg      Total
 -----------------------------------------------------------------------
      C    1   -0.33023      0.99964     2.32496    0.00563     3.33023
      C    2    0.29661      0.99964     1.68443    0.01933     2.70339
      O    3   -0.27733      0.99988     3.27090    0.00654     4.27733
      C    4   -0.11506      0.99944     2.10686    0.00877     3.11506
      C    5    0.13407      0.99951     1.85446    0.01196     2.86593
      N    6   -0.15078      0.99965     2.63927    0.01186     3.65078
      N    7   -0.17903      0.99974     2.66475    0.01454     3.67903
      C    8    0.00943      0.99962     1.97501    0.01594     2.99057
      C    9   -0.00474      0.99950     1.99654    0.00870     3.00474
      C   10   -0.10022      0.99948     2.09125    0.00949     3.10022
      C   11    0.14600      0.99938     1.84229    0.01233     2.85400
      C   12   -0.08895      0.99953     2.07988    0.00954     3.08895
      C   13   -0.09697      0.99958     2.08812    0.00927     3.09697
      C   14   -0.10795      0.99953     2.09943    0.00899     3.10795
      O   15   -0.34853      0.99987     3.34186    0.00680     4.34853
      H   16    0.10094      0.00000     0.39797    0.00109     0.39906
      H   17    0.10634      0.00000     0.39259    0.00107     0.39366
      H   18    0.10705      0.00000     0.39083    0.00212     0.39295
      H   19    0.19057      0.00000     0.30725    0.00218     0.30943
      H   20    0.09892      0.00000     0.39990    0.00119     0.40108
      H   21    0.09631      0.00000     0.40246    0.00123     0.40369
      H   22    0.09503      0.00000     0.40371    0.00126     0.40497
      H   23    0.09141      0.00000     0.40751    0.00108     0.40859
      H   24    0.09581      0.00000     0.40300    0.00119     0.40419
      H   25    0.23130      0.00000     0.26597    0.00274     0.26870
 =======================================================================
   * Total *   -0.00000     14.99399    37.83118    0.17483    53.00000

 Normal termination of Gaussian 16 at Thu Dec 10 16:44:45 2020.
