 Gaussian 16, Revision A.03,

 -----------------------------------------------------------
 # opt freq B3LYP/6-31G(d) empiricaldispersion=gd3bj scf=xqc
 -----------------------------------------------------------

 -------------------------------
 CID_116869630_JID_3253_neutraal
 -------------------------------
 Symbolic Z-matrix:
 Charge =  0 Multiplicity = 1

 SCF Done:  E(RB3LYP) =  -918.239974323     A.U. after   15 cycles
 SCF Done:  E(RB3LYP) =  -918.247004262     A.U. after   13 cycles
 SCF Done:  E(RB3LYP) =  -918.244178505     A.U. after   12 cycles
 SCF Done:  E(RB3LYP) =  -918.246601930     A.U. after   12 cycles
 SCF Done:  E(RB3LYP) =  -918.248269662     A.U. after   10 cycles
 SCF Done:  E(RB3LYP) =  -918.248340706     A.U. after   12 cycles
 SCF Done:  E(RB3LYP) =  -918.248731544     A.U. after   12 cycles
 SCF Done:  E(RB3LYP) =  -918.249058208     A.U. after   12 cycles
 SCF Done:  E(RB3LYP) =  -918.249084982     A.U. after   11 cycles
 SCF Done:  E(RB3LYP) =  -918.249099576     A.U. after   10 cycles
 SCF Done:  E(RB3LYP) =  -918.249108662     A.U. after    9 cycles
 SCF Done:  E(RB3LYP) =  -918.249110585     A.U. after    9 cycles
 SCF Done:  E(RB3LYP) =  -918.249112335     A.U. after    9 cycles
 SCF Done:  E(RB3LYP) =  -918.249113094     A.U. after    9 cycles
 SCF Done:  E(RB3LYP) =  -918.249113183     A.U. after    7 cycles
 Optimization completed.
    -- Stationary point found.
 Normal termination of Gaussian 16 at Wed Dec  9 22:34:01 2020.

 --------------------------------------------------------------------
 #N Geom=AllCheck Guess=TCheck SCRF=Check GenChk RB3LYP/6-31G(d) Freq
 --------------------------------------------------------------------

 Structure from the checkpoint file:  "JID_3253.chk"
 -------------------------------
 CID_116869630_JID_3253_neutraal
 -------------------------------
 Charge =  0 Multiplicity = 1

 SCF Done:  E(RB3LYP) =  -918.249113183     A.U. after    1 cycles

  Exact polarizability: 144.248  -0.869 123.901  -5.229  14.924  99.865
 Approx polarizability: 215.008   1.371 196.135  -9.710  35.489 160.381

                      1                      2                      3
                      A                      A                      A
 Frequencies --     30.8104                68.6208               102.0438
 Red. masses --      4.3000                 2.9780                 4.5810
 Frc consts  --      0.0024                 0.0083                 0.0281
 IR Inten    --      0.5353                 0.0639                 0.0968

                      4                      5                      6
                      A                      A                      A
 Frequencies --    139.2039               161.2846               192.0079
 Red. masses --      5.0078                 4.3079                 2.8368
 Frc consts  --      0.0572                 0.0660                 0.0616
 IR Inten    --      8.8602                 0.3656                 1.0818

                      7                      8                      9
                      A                      A                      A
 Frequencies --    213.8022               221.0800               253.0411
 Red. masses --      1.8769                 1.6543                 2.4130
 Frc consts  --      0.0506                 0.0476                 0.0910
 IR Inten    --      1.2461                 2.6284                 2.4060

                     10                     11                     12
                      A                      A                      A
 Frequencies --    286.5929               329.0814               333.0844
 Red. masses --      2.4957                 2.8939                 1.4730
 Frc consts  --      0.1208                 0.1846                 0.0963
 IR Inten    --      8.3109                 2.5382                26.9245

                     13                     14                     15
                      A                      A                      A
 Frequencies --    355.2679               374.0397               424.0904
 Red. masses --      2.1626                 3.1717                 2.5352
 Frc consts  --      0.1608                 0.2614                 0.2686
 IR Inten    --     10.1717                 2.5398                 3.0269

                     16                     17                     18
                      A                      A                      A
 Frequencies --    477.4682               517.7710               545.1674
 Red. masses --      2.7066                 4.6936                 4.0811
 Frc consts  --      0.3635                 0.7414                 0.7146
 IR Inten    --      3.8872                 1.5904                 8.1310

                     19                     20                     21
                      A                      A                      A
 Frequencies --    594.4536               639.9338               694.5557
 Red. masses --      2.8615                 2.7399                 5.4068
 Frc consts  --      0.5958                 0.6611                 1.5368
 IR Inten    --      2.6678                 7.0966                 0.1593

                     22                     23                     24
                      A                      A                      A
 Frequencies --    721.5942               745.1880               836.2839
 Red. masses --      1.4334                 2.9222                 3.0101
 Frc consts  --      0.4398                 0.9561                 1.2403
 IR Inten    --     34.1510                 1.8768                16.6749

                     25                     26                     27
                      A                      A                      A
 Frequencies --    850.7369               860.6462               890.4861
 Red. masses --      3.0958                 2.6879                 1.3277
 Frc consts  --      1.3201                 1.1730                 0.6203
 IR Inten    --     25.2084                13.6054                 9.9621

                     28                     29                     30
                      A                      A                      A
 Frequencies --    891.7682               926.3821               942.3292
 Red. masses --      2.0331                 1.4142                 2.5726
 Frc consts  --      0.9526                 0.7151                 1.3459
 IR Inten    --     28.2708                92.6618                41.5956

                     31                     32                     33
                      A                      A                      A
 Frequencies --    979.5650               997.2260              1021.7855
 Red. masses --      1.9421                 2.7641                 2.0377
 Frc consts  --      1.0980                 1.6195                 1.2535
 IR Inten    --     29.6338                15.0368                 5.0183

                     34                     35                     36
                      A                      A                      A
 Frequencies --   1031.0978              1040.3476              1047.0187
 Red. masses --      1.7755                 5.5916                 3.9584
 Frc consts  --      1.1122                 3.5657                 2.5567
 IR Inten    --     43.8158                37.1656                46.3280

                     37                     38                     39
                      A                      A                      A
 Frequencies --   1063.5661              1079.8194              1103.9512
 Red. masses --      1.7295                 1.4773                 1.6522
 Frc consts  --      1.1527                 1.0149                 1.1864
 IR Inten    --      1.9361                 2.1159                12.0606

                     40                     41                     42
                      A                      A                      A
 Frequencies --   1141.5110              1167.0742              1176.5292
 Red. masses --      1.5170                 1.1684                 1.8717
 Frc consts  --      1.1647                 0.9377                 1.5265
 IR Inten    --      1.8129                 2.5730                 1.6482

                     43                     44                     45
                      A                      A                      A
 Frequencies --   1189.0575              1228.2363              1249.0101
 Red. masses --      1.3456                 2.1298                 1.7029
 Frc consts  --      1.1209                 1.8930                 1.5652
 IR Inten    --      0.8311                 2.0748                16.8307

                     46                     47                     48
                      A                      A                      A
 Frequencies --   1264.1754              1317.8979              1336.4747
 Red. masses --      1.7994                 1.2534                 1.7760
 Frc consts  --      1.6943                 1.2826                 1.8690
 IR Inten    --      2.6343                 1.1483                 2.8331

                     49                     50                     51
                      A                      A                      A
 Frequencies --   1374.5901              1389.3367              1411.0123
 Red. masses --      1.5204                 1.4432                 2.5213
 Frc consts  --      1.6926                 1.6413                 2.9576
 IR Inten    --      1.4044                 4.9859                 7.0148

                     52                     53                     54
                      A                      A                      A
 Frequencies --   1419.5772              1421.8229              1450.0850
 Red. masses --      1.3780                 1.1772                 1.2215
 Frc consts  --      1.6361                 1.4022                 1.5133
 IR Inten    --      7.8997                 1.2864                 1.0486

                     55                     56                     57
                      A                      A                      A
 Frequencies --   1488.8648              1515.2748              1522.7125
 Red. masses --      4.4525                 1.0827                 1.0930
 Frc consts  --      5.8153                 1.4647                 1.4932
 IR Inten    --      3.1633                 3.3371                 2.5965

                     58                     59                     60
                      A                      A                      A
 Frequencies --   1528.2019              1534.5423              1551.0842
 Red. masses --      1.1798                 1.0772                 1.0849
 Frc consts  --      1.6233                 1.4945                 1.5378
 IR Inten    --     11.0816                 2.8456                 6.6284

                     61                     62                     63
                      A                      A                      A
 Frequencies --   1569.0009              1604.7895              1711.1641
 Red. masses --      1.0939                 5.3947                 1.0860
 Frc consts  --      1.5867                 8.1857                 1.8736
 IR Inten    --      2.3539                 2.1607                32.4802

                     64                     65                     66
                      A                      A                      A
 Frequencies --   3028.6865              3036.4223              3042.2155
 Red. masses --      1.0617                 1.0615                 1.0613
 Frc consts  --      5.7380                 5.7661                 5.7872
 IR Inten    --     30.5073                56.3886                11.2360

                     67                     68                     69
                      A                      A                      A
 Frequencies --   3044.0545              3051.7358              3071.1601
 Red. masses --      1.0474                 1.0668                 1.0988
 Frc consts  --      5.7184                 5.8539                 6.1064
 IR Inten    --     25.7596                70.0587                54.8499

                     70                     71                     72
                      A                      A                      A
 Frequencies --   3086.6303              3103.9060              3108.1218
 Red. masses --      1.1037                 1.0943                 1.1050
 Frc consts  --      6.1957                 6.2114                 6.2895
 IR Inten    --     49.7375                16.5891                42.2309

                     73                     74                     75
                      A                      A                      A
 Frequencies --   3128.4606              3148.6469              3211.4233
 Red. masses --      1.0987                 1.1008                 1.0910
 Frc consts  --      6.3357                 6.4301                 6.6296
 IR Inten    --     27.3674                 0.2102                 9.7643

                     76                     77                     78
                      A                      A                      A
 Frequencies --   3270.8402              3475.1898              3556.0014
 Red. masses --      1.0968                 1.0499                 1.0913
 Frc consts  --      6.9133                 7.4709                 8.1307
 IR Inten    --      0.8750                 0.6238                 0.0732

 - Thermochemistry -
 -------------------
 Temperature   298.150 Kelvin.  Pressure   1.00000 Atm.
 Atom     1 has atomic number  6 and mass  12.00000

 Molecular mass:   197.08744 amu.
 Principal axes and moments of inertia in atomic units:
                           1         2         3
     Eigenvalues --  2106.039932560.029403650.46043
           X            0.99186  -0.12664  -0.01290
           Y            0.12679   0.99186   0.01159
           Z            0.01133  -0.01313   0.99985
 This molecule is an asymmetric top.
 Rotational symmetry number  1.
 Warning -- assumption of classical behavior for rotation
           may cause significant error
 Rotational temperatures (Kelvin)      0.04113     0.03383     0.02373
 Rotational constants (GHZ):           0.85694     0.70497     0.49439
 Zero-point vibrational energy     627493.5 (Joules/Mol)
                                  149.97454 (Kcal/Mol)
 Warning -- explicit consideration of  19 degrees of freedom as
           vibrations may cause significant error
 Vibrational temperatures:     44.33    98.73   146.82   200.28   232.05
          (Kelvin)            276.26   307.61   318.08   364.07   412.34
                              473.47   479.23   511.15   538.16   610.17
                              686.97   744.96   784.37   855.29   920.72
                              999.31  1038.21  1072.16  1203.23  1224.02
                             1238.28  1281.21  1283.06  1332.86  1355.80
                             1409.38  1434.79  1470.12  1483.52  1496.83
                             1506.43  1530.23  1553.62  1588.34  1642.38
                             1679.16  1692.76  1710.79  1767.16  1797.05
                             1818.87  1896.16  1922.89  1977.73  1998.95
                             2030.13  2042.45  2045.69  2086.35  2142.14
                             2180.14  2190.84  2198.74  2207.86  2231.66
                             2257.44  2308.93  2461.98  4357.60  4368.73
                             4377.07  4379.72  4390.77  4418.71  4440.97
                             4465.83  4471.89  4501.16  4530.20  4620.52
                             4706.01  5000.02  5116.29

 Zero-point correction=                           0.239000 (Hartree/Particle)
 Thermal correction to Energy=                    0.251993
 Thermal correction to Enthalpy=                  0.252937
 Thermal correction to Gibbs Free Energy=         0.199402
 Sum of electronic and zero-point Energies=           -918.010114
 Sum of electronic and thermal Energies=              -917.997120
 Sum of electronic and thermal Enthalpies=            -917.996176
 Sum of electronic and thermal Free Energies=         -918.049711

                     E (Thermal)             CV                S
                      KCal/Mol        Cal/Mol-Kelvin    Cal/Mol-Kelvin
 Total                  158.128             49.927            112.674
 Electronic               0.000              0.000              0.000
 Translational            0.889              2.981             41.740
 Rotational               0.889              2.981             31.354
 Vibrational            156.350             43.966             39.579
 Vibration     1          0.594              1.984              5.777
 Vibration     2          0.598              1.969              4.193
 Vibration     3          0.604              1.948              3.415
 Vibration     4          0.615              1.914              2.815
 Vibration     5          0.622              1.890              2.535
 Vibration     6          0.634              1.851              2.208
 Vibration     7          0.644              1.820              2.011
 Vibration     8          0.648              1.809              1.950
 Vibration     9          0.664              1.758              1.709
 Vibration    10          0.684              1.699              1.494
 Vibration    11          0.712              1.617              1.265
 Vibration    12          0.715              1.609              1.245
 Vibration    13          0.731              1.564              1.143
 Vibration    14          0.745              1.525              1.063
 Vibration    15          0.786              1.418              0.878
 Vibration    16          0.834              1.300              0.717
 Vibration    17          0.873              1.211              0.615
 Vibration    18          0.900              1.150              0.554
 Vibration    19          0.952              1.044              0.459

 Optimization completed.
    -- Stationary point found.
 Normal termination of Gaussian 16 at Wed Dec  9 22:42:46 2020.

 ----------------------------------------------------------------------
 # B3LYP/6-311++G(d,p) empiricaldispersion=gd3bj scf=xqc pop=npa geom=c
 heck
 ----------------------------------------------------------------------

 ---------------------------------------
 CID_116869630_JID_3253_Energie_neutraal
 ---------------------------------------
 Structure from the checkpoint file:  "JID_3253.chk"
 Charge =  0 Multiplicity = 1

 SCF Done:  E(RB3LYP) =  -918.424987981     A.U. after   15 cycles
 Normal termination of Gaussian 16 at Wed Dec  9 22:46:56 2020.

 ----------------------------------------------------------------------
 # B3LYP/6-311++G(d,p) empiricaldispersion=gd3bj scf=xqc pop=npa geom=c
 heck
 ----------------------------------------------------------------------

 -------------------------------------
 CID_116869630_JID_3253_Energie_kation
 -------------------------------------
 Structure from the checkpoint file:  "JID_3253.chk"
 Charge =  1 Multiplicity = 2

 SCF Done:  E(UB3LYP) =  -918.133154761     A.U. after   23 cycles
 Normal termination of Gaussian 16 at Wed Dec  9 22:56:01 2020.
 Gaussian 16:  ES64L-G16RevA.03 25-Dec-2016

 ----------------------------------------------------------------------
 # B3LYP/6-311++G(d,p) empiricaldispersion=gd3bj scf=xqc pop=npa geom=c
 heck
 ----------------------------------------------------------------------

 ------------------------------------
 CID_116869630_JID_3253_Energie_anion
 ------------------------------------
 Structure from the checkpoint file:  "JID_3253.chk"
 Charge = -1 Multiplicity = 2

                         Standard orientation:
 ---------------------------------------------------------------------
 Center     Atomic      Atomic             Coordinates (Angstroms)
 Number     Number       Type             X           Y           Z
 ---------------------------------------------------------------------
      1          6           0       -1.168649    2.238413    1.136870
      2          6           0       -1.424391    0.906306    0.470960
      3          6           0       -0.496312    0.071631   -0.121593
      4         16           0       -1.301998   -1.311209   -0.856761
      5          6           0       -2.857246   -0.777952   -0.319361
      6          6           0       -2.762439    0.395564    0.365885
      7          6           0        0.983505    0.268086   -0.375180
      8          6           0        1.237208    1.426666   -1.393909
      9          8           0        1.704186    2.309973   -0.349142
     10          6           0        1.723687    1.225317    0.601353
     11          6           0        1.760725   -1.032844   -0.639756
     12          6           0        2.087385   -1.863746    0.621632
     13          7           0        0.986287   -2.351930    1.449511
     14          1           0       -2.068661    2.858523    1.074281
     15          1           0       -0.934917    2.123819    2.203207
     16          1           0       -0.349247    2.786140    0.666278
     17          1           0       -3.739968   -1.364273   -0.534807
     18          1           0       -3.617673    0.911537    0.790324
     19          1           0        2.024430    1.217163   -2.131043
     20          1           0        0.349664    1.821363   -1.897887
     21          1           0        1.229520    1.479399    1.541883
     22          1           0        2.752153    0.905966    0.812932
     23          1           0        1.231488   -1.653705   -1.374259
     24          1           0        2.715854   -0.762515   -1.109592
     25          1           0        2.680398   -2.731728    0.308675
     26          1           0        2.744982   -1.272495    1.271538
     27          1           0        0.362677   -2.930747    0.890083
     28          1           0        0.412925   -1.570029    1.761730
 ---------------------------------------------------------------------

 SCF Done:  E(UB3LYP) =  -918.409959141     A.U. after   33 cycles
 SCF Done:  E(UB3LYP) =  -918.409959141     a.u. after    1 cycles

 The electronic state is 2-A.
 Alpha  occ. eigenvalues --  -88.76942 -19.02861 -14.18873 -10.12479 -10.12343
 Alpha  occ. eigenvalues --  -10.10665 -10.09984 -10.09404 -10.09209 -10.08176
 Alpha  occ. eigenvalues --  -10.07456 -10.07078 -10.06704  -7.85583  -5.81868
 Alpha  occ. eigenvalues --   -5.81497  -5.81184  -0.95414  -0.78789  -0.77665
 Alpha  occ. eigenvalues --   -0.70304  -0.66609  -0.62654  -0.60311  -0.59719
 Alpha  occ. eigenvalues --   -0.56951  -0.51862  -0.48439  -0.45393  -0.43099
 Alpha  occ. eigenvalues --   -0.40687  -0.39253  -0.38199  -0.36505  -0.35717
 Alpha  occ. eigenvalues --   -0.33711  -0.32889  -0.32275  -0.31297  -0.30620
 Alpha  occ. eigenvalues --   -0.30182  -0.28496  -0.27307  -0.26802  -0.25660
 Alpha  occ. eigenvalues --   -0.24705  -0.23891  -0.23107  -0.20737  -0.16691
 Alpha  occ. eigenvalues --   -0.15414  -0.13977  -0.12339   0.04553
 Alpha virt. eigenvalues --    0.06366   0.07030   0.07355   0.08076   0.08476
 Alpha virt. eigenvalues --    0.08853   0.10024   0.10257   0.11106   0.11444
 Alpha virt. eigenvalues --    0.11600   0.12375   0.12691   0.13166   0.14172

  Beta  occ. eigenvalues --  -88.76932 -19.02860 -14.18858 -10.12458 -10.12308
  Beta  occ. eigenvalues --  -10.10671 -10.09937 -10.09381 -10.09150 -10.08163
  Beta  occ. eigenvalues --  -10.07435 -10.07067 -10.06683  -7.85573  -5.81863
  Beta  occ. eigenvalues --   -5.81491  -5.81157  -0.95400  -0.78743  -0.77613
  Beta  occ. eigenvalues --   -0.70264  -0.66553  -0.62583  -0.60259  -0.59668
  Beta  occ. eigenvalues --   -0.56881  -0.51798  -0.48356  -0.45320  -0.43047
  Beta  occ. eigenvalues --   -0.40649  -0.39190  -0.38160  -0.36470  -0.35668
  Beta  occ. eigenvalues --   -0.33671  -0.32844  -0.32228  -0.31244  -0.30583
  Beta  occ. eigenvalues --   -0.30135  -0.28445  -0.27265  -0.26684  -0.25625
  Beta  occ. eigenvalues --   -0.24651  -0.23845  -0.23043  -0.20712  -0.16673
  Beta  occ. eigenvalues --   -0.15326  -0.13874  -0.12139
  Beta virt. eigenvalues --    0.06823   0.07509   0.07678   0.07782   0.08461
  Beta virt. eigenvalues --    0.09094   0.09382   0.10294   0.10552   0.11473
  Beta virt. eigenvalues --    0.11612   0.11959   0.12661   0.12934   0.13458

 Mulliken charges and spin densities:
               1          2
     1  C    1.799372  -2.665117
     2  C   -1.657706   1.709600
     3  C   -0.081812   0.757096
     4  S    0.631171  -1.238856
     5  C   -0.121025  -0.091974
     6  C    0.913179  -0.920341
     7  C   -0.027372   0.335390
     8  C    0.216813  -0.676326
     9  O   -0.139921   0.005340
    10  C    0.124840  -0.493868
    11  C   -0.276268   0.171619
    12  C    0.510865  -1.114486
    13  N   -0.382866  -0.001199
    14  H   -0.008054   0.142109
    15  H   -0.156700   0.327846
    16  H    0.214156  -0.027853
    17  H   -0.872056   1.110235
    18  H   -0.585773   0.753246
    19  H   -0.144010   0.294495
    20  H    0.054664   0.119466
    21  H   -0.038386   0.252714
    22  H   -0.298010   0.435301
    23  H   -0.216256   0.377452
    24  H   -0.396290   0.556029
    25  H   -0.363194   0.527492
    26  H    0.022726   0.159060
    27  H    0.071543   0.162396
    28  H    0.206371   0.033137
 Sum of Mulliken charges =  -1.00000   1.00000

 Dipole moment (field-independent basis, Debye):
    X=              0.7202    Y=              1.7563    Z=             -1.1004  Tot=              2.1941
 Quadrupole moment (field-independent basis, Debye-Ang):
   XX=           -156.7207   YY=           -133.1435   ZZ=           -122.1747
   XY=              2.2899   XZ=              1.7279   YZ=             -0.1168

 Summary of Natural Population Analysis:

                                       Natural Population
                Natural  -----------------------------------------------
    Atom  No    Charge         Core      Valence    Rydberg      Total
 -----------------------------------------------------------------------
      C    1   -0.29892      0.99962     2.29350    0.00580     3.29892
      C    2   -0.04159      0.99943     2.03120    0.01096     3.04159
      C    3   -0.09245      0.99940     2.07715    0.01591     3.09245
      S    4    0.19955      4.99941     2.78062    0.02041     7.80045
      C    5   -0.18408      0.99953     2.17243    0.01212     3.18408
      C    6   -0.12151      0.99949     2.11079    0.01123     3.12151
      C    7   -0.07907      0.99950     2.06416    0.01540     3.07907
      C    8    0.01189      0.99958     1.97644    0.01208     2.98811
      O    9   -0.30808      0.99991     3.30043    0.00774     4.30808
      C   10    0.00098      0.99958     1.98641    0.01303     2.99902
      C   11   -0.19853      0.99959     2.18801    0.01093     3.19853
      C   12   -0.08910      0.99963     2.07822    0.01125     3.08910
      N   13   -0.41834      0.99978     2.90955    0.00901     3.91834
      H   14    0.10312      0.00000     0.39593    0.00095     0.39688
      H   15    0.10494      0.00000     0.39381    0.00124     0.39506
      H   16    0.11175      0.00000     0.38616    0.00209     0.38825
      H   17    0.11105      0.00000     0.38700    0.00195     0.38895
      H   18    0.10596      0.00000     0.39241    0.00163     0.39404
      H   19    0.08223      0.00000     0.41634    0.00144     0.41777
      H   20    0.08794      0.00000     0.41081    0.00125     0.41206
      H   21    0.09156      0.00000     0.40675    0.00169     0.40844
      H   22    0.08594      0.00000     0.41225    0.00181     0.41406
      H   23    0.10116      0.00000     0.39683    0.00202     0.39884
      H   24    0.10416      0.00000     0.39354    0.00229     0.39584
      H   25    0.09227      0.00000     0.40653    0.00120     0.40773
      H   26    0.08853      0.00000     0.41002    0.00145     0.41147
      H   27    0.17299      0.00000     0.32435    0.00266     0.32701
      H   28    0.17564      0.00000     0.32189    0.00247     0.32436
 =======================================================================
   * Total *    0.00000     16.99446    35.82352    0.18202    53.00000

 Normal termination of Gaussian 16 at Wed Dec  9 23:09:08 2020.
