 Gaussian 16, Revision A.03,

 -----------------------------------------------------------
 # opt freq B3LYP/6-31G(d) empiricaldispersion=gd3bj scf=xqc
 -----------------------------------------------------------

 ------------------------------
 CID_96660304_JID_7921_neutraal
 ------------------------------
 Symbolic Z-matrix:
 Charge =  0 Multiplicity = 1

 SCF Done:  E(RB3LYP) =  -679.554807295     A.U. after   13 cycles
 SCF Done:  E(RB3LYP) =  -679.559090285     A.U. after   12 cycles
 SCF Done:  E(RB3LYP) =  -679.551710119     A.U. after   13 cycles
 SCF Done:  E(RB3LYP) =  -679.558354135     A.U. after   12 cycles
 SCF Done:  E(RB3LYP) =  -679.560204884     A.U. after    9 cycles
 SCF Done:  E(RB3LYP) =  -679.560777881     A.U. after   12 cycles
 SCF Done:  E(RB3LYP) =  -679.561741835     A.U. after   11 cycles
 SCF Done:  E(RB3LYP) =  -679.562216793     A.U. after   11 cycles
 SCF Done:  E(RB3LYP) =  -679.562446575     A.U. after   11 cycles
 SCF Done:  E(RB3LYP) =  -679.562614068     A.U. after   10 cycles
 SCF Done:  E(RB3LYP) =  -679.564991045     A.U. after    7 cycles
 SCF Done:  E(RB3LYP) =  -679.564991236     A.U. after    7 cycles
 SCF Done:  E(RB3LYP) =  -679.564991381     A.U. after    6 cycles
 SCF Done:  E(RB3LYP) =  -679.564991438     A.U. after    7 cycles
 SCF Done:  E(RB3LYP) =  -679.564991473     A.U. after    6 cycles
 Optimization completed.
    -- Stationary point found.
 Normal termination of Gaussian 16 at Fri Dec 11 13:37:36 2020.

 --------------------------------------------------------------------
 #N Geom=AllCheck Guess=TCheck SCRF=Check GenChk RB3LYP/6-31G(d) Freq
 --------------------------------------------------------------------

 Structure from the checkpoint file:  "JID_7921.chk"
 ------------------------------
 CID_96660304_JID_7921_neutraal
 ------------------------------
 Charge =  0 Multiplicity = 1

 SCF Done:  E(RB3LYP) =  -679.564991473     A.U. after    1 cycles

  Exact polarizability: 180.547  11.048 186.762  22.115  -2.731 140.427
 Approx polarizability: 248.863  15.888 281.057  45.592  -7.465 220.812

                      1                      2                      3
                      A                      A                      A
 Frequencies --     16.6840                54.3661                73.8092
 Red. masses --      4.0012                 3.6257                 3.0693
 Frc consts  --      0.0007                 0.0063                 0.0099
 IR Inten    --      0.0790                 0.0619                 0.3393

                      4                      5                      6
                      A                      A                      A
 Frequencies --     80.9342               109.2077               130.2485
 Red. masses --      3.0898                 2.6245                 2.2864
 Frc consts  --      0.0119                 0.0184                 0.0229
 IR Inten    --      0.1077                 0.3144                 0.0356

                      7                      8                      9
                      A                      A                      A
 Frequencies --    137.7866               154.9153               163.1816
 Red. masses --      1.7571                 2.1814                 1.4840
 Frc consts  --      0.0197                 0.0308                 0.0233
 IR Inten    --      0.2083                 1.6896                 0.7114

                     10                     11                     12
                      A                      A                      A
 Frequencies --    167.8708               194.9950               198.3329
 Red. masses --      1.1438                 1.3620                 1.4788
 Frc consts  --      0.0190                 0.0305                 0.0343
 IR Inten    --      0.5392                 0.2625                 1.8442

                     13                     14                     15
                      A                      A                      A
 Frequencies --    216.8462               232.4475               307.3594
 Red. masses --      2.6557                 1.3475                 2.5597
 Frc consts  --      0.0736                 0.0429                 0.1425
 IR Inten    --      0.9822                 0.6352                 0.4372

                     16                     17                     18
                      A                      A                      A
 Frequencies --    313.9549               339.7556               351.0330
 Red. masses --      2.6698                 2.4941                 2.9884
 Frc consts  --      0.1550                 0.1696                 0.2170
 IR Inten    --      0.5482                 1.3166                 1.7768

                     19                     20                     21
                      A                      A                      A
 Frequencies --    362.7664               377.7646               396.3947
 Red. masses --      2.5592                 2.4850                 2.4054
 Frc consts  --      0.1984                 0.2089                 0.2227
 IR Inten    --      2.8264                 0.1911                 0.9908

                     22                     23                     24
                      A                      A                      A
 Frequencies --    429.6229               442.9520               452.5739
 Red. masses --      2.4256                 2.5190                 4.7996
 Frc consts  --      0.2638                 0.2912                 0.5792
 IR Inten    --      0.1211                 0.1896                 0.0211

                     25                     26                     27
                      A                      A                      A
 Frequencies --    484.2650               515.2234               548.8429
 Red. masses --      3.2564                 3.1049                 2.5190
 Frc consts  --      0.4499                 0.4856                 0.4471
 IR Inten    --      0.6946                 1.2998                 0.3374

                     28                     29                     30
                      A                      A                      A
 Frequencies --    558.3341               595.5265               635.7822
 Red. masses --      3.8444                 3.3759                 2.9498
 Frc consts  --      0.7061                 0.7054                 0.7025
 IR Inten    --      0.6654                 0.1063                 0.5029

                     31                     32                     33
                      A                      A                      A
 Frequencies --    689.0770               726.4700               749.0242
 Red. masses --      3.6989                 1.8097                 2.0750
 Frc consts  --      1.0348                 0.5627                 0.6859
 IR Inten    --      0.7411                47.8435                21.2535

                     34                     35                     36
                      A                      A                      A
 Frequencies --    777.4125               796.6310               816.2009
 Red. masses --      1.1567                 1.8648                 1.5052
 Frc consts  --      0.4119                 0.6973                 0.5908
 IR Inten    --      5.6844                 4.6465                 7.3017

                     37                     38                     39
                      A                      A                      A
 Frequencies --    833.8082               855.3814               882.6425
 Red. masses --      2.4004                 2.3226                 1.3566
 Frc consts  --      0.9833                 1.0013                 0.6227
 IR Inten    --      1.3684                 2.7041                 6.4103

                     40                     41                     42
                      A                      A                      A
 Frequencies --    884.0307               925.0529               957.2121
 Red. masses --      1.9660                 2.2212                 2.4239
 Frc consts  --      0.9052                 1.1199                 1.3085
 IR Inten    --      6.4743                 2.7080                 7.9933

                     43                     44                     45
                      A                      A                      A
 Frequencies --    969.4161              1008.1441              1029.2044
 Red. masses --      2.1920                 1.6630                 1.3205
 Frc consts  --      1.2137                 0.9958                 0.8241
 IR Inten    --      2.9894                 2.4848                 1.8004

                     46                     47                     48
                      A                      A                      A
 Frequencies --   1036.4639              1042.3933              1052.7783
 Red. masses --      1.6060                 1.5467                 1.4837
 Frc consts  --      1.0165                 0.9902                 0.9689
 IR Inten    --     14.9021                 4.4328                 9.6003

                     49                     50                     51
                      A                      A                      A
 Frequencies --   1053.6243              1055.3541              1058.5795
 Red. masses --      1.4173                 1.8522                 1.6418
 Frc consts  --      0.9270                 1.2155                 1.0840
 IR Inten    --      0.5200                 1.8869                 4.8126

                     52                     53                     54
                      A                      A                      A
 Frequencies --   1077.7997              1078.8875              1084.5343
 Red. masses --      1.5565                 1.4331                 1.5776
 Frc consts  --      1.0653                 0.9828                 1.0933
 IR Inten    --      0.9501                 5.3820                 0.3784

                     55                     56                     57
                      A                      A                      A
 Frequencies --   1100.7849              1104.2755              1120.0991
 Red. masses --      2.4114                 1.9973                 2.1210
 Frc consts  --      1.7216                 1.4350                 1.5679
 IR Inten    --      3.2238                 1.5832                 0.9979

                     58                     59                     60
                      A                      A                      A
 Frequencies --   1135.8698              1144.1077              1192.3652
 Red. masses --      1.2756                 2.6208                 1.5973
 Frc consts  --      0.9696                 2.0212                 1.3380
 IR Inten    --      2.6862                13.1530                14.6615

                     61                     62                     63
                      A                      A                      A
 Frequencies --   1205.7712              1232.4428              1241.7356
 Red. masses --      1.3638                 1.3157                 4.4585
 Frc consts  --      1.1682                 1.1775                 4.0504
 IR Inten    --      0.2023                 1.4555                 1.6221

                     64                     65                     66
                      A                      A                      A
 Frequencies --   1247.0597              1270.0312              1277.6094
 Red. masses --      1.8578                 1.6223                 1.4080
 Frc consts  --      1.7022                 1.5417                 1.3541
 IR Inten    --      6.4915                 5.9132                 0.0537

                     67                     68                     69
                      A                      A                      A
 Frequencies --   1322.6852              1324.3108              1334.5291
 Red. masses --      5.4309                 1.3220                 3.8399
 Frc consts  --      5.5981                 1.3661                 4.0292
 IR Inten    --      0.2542                 2.5084                 1.6045

                     70                     71                     72
                      A                      A                      A
 Frequencies --   1370.2174              1387.2141              1400.2563
 Red. masses --      1.4656                 1.3449                 1.4171
 Frc consts  --      1.6212                 1.5249                 1.6370
 IR Inten    --      8.7040                11.9360                 6.9070

                     73                     74                     75
                      A                      A                      A
 Frequencies --   1436.0738              1438.7021              1439.3568
 Red. masses --      1.4516                 1.3457                 1.2874
 Frc consts  --      1.7638                 1.6411                 1.5714
 IR Inten    --      0.0105                 0.5527                 0.9975

                     76                     77                     78
                      A                      A                      A
 Frequencies --   1447.6494              1450.1511              1453.9050
 Red. masses --      2.1057                 1.2450                 1.3471
 Frc consts  --      2.6000                 1.5426                 1.6778
 IR Inten    --      0.1375                 0.8828                 1.0208

                     79                     80                     81
                      A                      A                      A
 Frequencies --   1491.1690              1495.7537              1503.3244
 Red. masses --      1.0962                 2.1019                 1.0889
 Frc consts  --      1.4362                 2.7707                 1.4499
 IR Inten    --      2.4423                 6.1806                 0.8479

                     82                     83                     84
                      A                      A                      A
 Frequencies --   1510.6132              1514.3103              1515.6137
 Red. masses --      1.0491                 1.1792                 1.0918
 Frc consts  --      1.4106                 1.5932                 1.4776
 IR Inten    --      0.5418                 7.1377                 3.4132

                     85                     86                     87
                      A                      A                      A
 Frequencies --   1523.8662              1525.4044              1526.2256
 Red. masses --      1.1268                 1.2756                 1.1372
 Frc consts  --      1.5416                 1.7488                 1.5607
 IR Inten    --      5.2297                12.8875                 4.0966

                     88                     89                     90
                      A                      A                      A
 Frequencies --   1533.3424              1535.0092              1538.6715
 Red. masses --      1.0562                 1.0900                 1.4030
 Frc consts  --      1.4631                 1.5133                 1.9570
 IR Inten    --     17.6393                 7.8760                27.6138

                     91                     92                     93
                      A                      A                      A
 Frequencies --   1539.7107              1547.4767              1562.1034
 Red. masses --      1.0666                 1.0826                 1.1453
 Frc consts  --      1.4898                 1.5274                 1.6466
 IR Inten    --      6.4139                 9.0792                12.5198

                     94                     95                     96
                      A                      A                      A
 Frequencies --   1622.7045              1663.8988              2979.7525
 Red. masses --      5.3962                 5.7890                 1.0706
 Frc consts  --      8.3717                 9.4430                 5.6007
 IR Inten    --      1.9544                 2.4782                37.9818

                     97                     98                     99
                      A                      A                      A
 Frequencies --   3035.9649              3037.5383              3040.4643
 Red. masses --      1.0390                 1.0395                 1.0499
 Frc consts  --      5.6423                 5.6507                 5.7184
 IR Inten    --     39.5473                25.5762                27.1953

                    100                    101                    102
                      A                      A                      A
 Frequencies --   3046.7401              3047.4818              3055.4354
 Red. masses --      1.0491                 1.0766                 1.0754
 Frc consts  --      5.7375                 5.8910                 5.9154
 IR Inten    --     30.0519                10.7864                37.1202

                    103                    104                    105
                      A                      A                      A
 Frequencies --   3066.2310              3082.7698              3086.1312
 Red. masses --      1.0712                 1.1000                 1.0992
 Frc consts  --      5.9338                 6.1594                 6.1681
 IR Inten    --     83.8597                25.8725                25.0036

                    106                    107                    108
                      A                      A                      A
 Frequencies --   3088.6075              3099.8250              3104.0519
 Red. masses --      1.0974                 1.0917                 1.0975
 Frc consts  --      6.1682                 6.1806                 6.2301
 IR Inten    --     20.8150                30.9295                 8.0087

                    109                    110                    111
                      A                      A                      A
 Frequencies --   3125.5560              3126.6590              3135.1254
 Red. masses --      1.0999                 1.0993                 1.0919
 Frc consts  --      6.3305                 6.3317                 6.3235
 IR Inten    --     21.1228                16.4482                29.2449

                    112                    113                    114
                      A                      A                      A
 Frequencies --   3139.6652              3141.5713              3145.4413
 Red. masses --      1.0514                 1.0706                 1.0767
 Frc consts  --      6.1062                 6.2253                 6.2761
 IR Inten    --     19.3121                22.8641                17.0904

                    115                    116                    117
                      A                      A                      A
 Frequencies --   3155.6226              3170.5486              3170.8348
 Red. masses --      1.0959                 1.0895                 1.0899
 Frc consts  --      6.4296                 6.4529                 6.4561
 IR Inten    --     16.8251                31.5382                26.1810

                    118                    119                    120
                      A                      A                      A
 Frequencies --   3213.7601              3228.3412              3537.0350
 Red. masses --      1.1188                 1.1155                 1.0723
 Frc consts  --      6.8082                 6.8498                 7.9041
 IR Inten    --      3.6495                31.5869                 1.3902

 - Thermochemistry -
 -------------------
 Temperature   298.150 Kelvin.  Pressure   1.00000 Atm.
 Atom     1 has atomic number  6 and mass  12.00000

 Molecular mass:   231.19870 amu.
 Principal axes and moments of inertia in atomic units:
                           1         2         3
     Eigenvalues --  3069.730744807.173996105.74366
           X            0.99939   0.03213   0.01357
           Y           -0.03220   0.99947   0.00499
           Z           -0.01340  -0.00542   0.99990
 This molecule is an asymmetric top.
 Rotational symmetry number  1.
 Warning -- assumption of classical behavior for rotation
           may cause significant error
 Rotational temperatures (Kelvin)      0.02822     0.01802     0.01419
 Rotational constants (GHZ):           0.58792     0.37543     0.29558
 Zero-point vibrational energy     997514.8 (Joules/Mol)
                                  238.41176 (Kcal/Mol)
 Warning -- explicit consideration of  29 degrees of freedom as
           vibrations may cause significant error
 Vibrational temperatures:     24.00    78.22   106.19   116.45   157.13
          (Kelvin)            187.40   198.24   222.89   234.78   241.53
                              280.55   285.36   311.99   334.44   442.22
                              451.71   488.83   505.06   521.94   543.52
                              570.32   618.13   637.31   651.15   696.75
                              741.29   789.66   803.32   856.83   914.75
                              991.43  1045.23  1077.68  1118.52  1146.17
                             1174.33  1199.66  1230.70  1269.93  1271.92
                             1330.94  1377.21  1394.77  1450.49  1480.80
                             1491.24  1499.77  1514.71  1515.93  1518.42
                             1523.06  1550.71  1552.28  1560.40  1583.78
                             1588.81  1611.57  1634.26  1646.12  1715.55
                             1734.84  1773.21  1786.58  1794.24  1827.29
                             1838.19  1903.05  1905.39  1920.09  1971.44
                             1995.89  2014.66  2066.19  2069.97  2070.91
                             2082.84  2086.44  2091.85  2145.46  2152.06
                             2162.95  2173.44  2178.75  2180.63  2192.50
                             2194.72  2195.90  2206.14  2208.54  2213.81
                             2215.30  2226.47  2247.52  2334.71  2393.98
                             4287.20  4368.08  4370.34  4374.55  4383.58
                             4384.65  4396.09  4411.62  4435.42  4440.25
                             4443.82  4459.96  4466.04  4496.98  4498.56
                             4510.75  4517.28  4520.02  4525.59  4540.24
                             4561.71  4562.12  4623.88  4644.86  5089.00

 Zero-point correction=                           0.379933 (Hartree/Particle)
 Thermal correction to Energy=                    0.398288
 Thermal correction to Enthalpy=                  0.399233
 Thermal correction to Gibbs Free Energy=         0.333840
 Sum of electronic and zero-point Energies=           -679.185058
 Sum of electronic and thermal Energies=              -679.166703
 Sum of electronic and thermal Enthalpies=            -679.165759
 Sum of electronic and thermal Free Energies=         -679.231151

                     E (Thermal)             CV                S
                      KCal/Mol        Cal/Mol-Kelvin    Cal/Mol-Kelvin
 Total                  249.930             70.926            137.630
 Electronic               0.000              0.000              0.000
 Translational            0.889              2.981             42.216
 Rotational               0.889              2.981             32.866
 Vibrational            248.152             64.965             62.548
 Vibration     1          0.593              1.986              6.994
 Vibration     2          0.596              1.976              4.652
 Vibration     3          0.599              1.966              4.049
 Vibration     4          0.600              1.962              3.868
 Vibration     5          0.606              1.942              3.283
 Vibration     6          0.612              1.923              2.942
 Vibration     7          0.614              1.916              2.834
 Vibration     8          0.620              1.897              2.611
 Vibration     9          0.623              1.888              2.513
 Vibration    10          0.625              1.882              2.459
 Vibration    11          0.636              1.847              2.180
 Vibration    12          0.637              1.842              2.149
 Vibration    13          0.646              1.815              1.985
 Vibration    14          0.653              1.791              1.860
 Vibration    15          0.697              1.660              1.377
 Vibration    16          0.702              1.647              1.341
 Vibration    17          0.720              1.596              1.213
 Vibration    18          0.728              1.573              1.162
 Vibration    19          0.737              1.549              1.110
 Vibration    20          0.748              1.518              1.048
 Vibration    21          0.763              1.478              0.976
 Vibration    22          0.791              1.406              0.860
 Vibration    23          0.803              1.376              0.817
 Vibration    24          0.811              1.355              0.788
 Vibration    25          0.840              1.285              0.699
 Vibration    26          0.870              1.216              0.621
 Vibration    27          0.904              1.142              0.547
 Vibration    28          0.914              1.121              0.527
 Vibration    29          0.953              1.041              0.457

                           ! Non-Optimized Parameters !
 Normal termination of Gaussian 16 at Fri Dec 11 13:58:25 2020.

 ----------------------------------------------------------------------
 # B3LYP/6-311++G(d,p) empiricaldispersion=gd3bj scf=xqc pop=npa geom=c
 heck
 ----------------------------------------------------------------------

 --------------------------------------
 CID_96660304_JID_7921_Energie_neutraal
 --------------------------------------
 Structure from the checkpoint file:  "JID_7921.chk"
 Charge =  0 Multiplicity = 1

 SCF Done:  E(RB3LYP) =  -679.745662738     A.U. after   14 cycles
 Normal termination of Gaussian 16 at Fri Dec 11 14:07:38 2020.

 ----------------------------------------------------------------------
 # B3LYP/6-311++G(d,p) empiricaldispersion=gd3bj scf=xqc pop=npa geom=c
 heck
 ----------------------------------------------------------------------

 ------------------------------------
 CID_96660304_JID_7921_Energie_kation
 ------------------------------------
 Structure from the checkpoint file:  "JID_7921.chk"
 Charge =  1 Multiplicity = 2

 SCF Done:  E(UB3LYP) =  -679.468849597     A.U. after   24 cycles
 Normal termination of Gaussian 16 at Fri Dec 11 14:29:54 2020.
 Gaussian 16:  ES64L-G16RevA.03 25-Dec-2016

 ----------------------------------------------------------------------
 # B3LYP/6-311++G(d,p) empiricaldispersion=gd3bj scf=xqc pop=npa geom=c
 heck
 ----------------------------------------------------------------------

 -----------------------------------
 CID_96660304_JID_7921_Energie_anion
 -----------------------------------
 Structure from the checkpoint file:  "JID_7921.chk"
 Charge = -1 Multiplicity = 2

                         Standard orientation:
 ---------------------------------------------------------------------
 Center     Atomic      Atomic             Coordinates (Angstroms)
 Number     Number       Type             X           Y           Z
 ---------------------------------------------------------------------
      1          6           0       -0.363436    3.296362    0.491511
      2          6           0       -0.905448    1.894214    0.352362
      3          6           0       -1.989634    1.658458   -0.487574
      4          6           0       -2.546489    0.389155   -0.633915
      5          6           0       -1.975947   -0.691498    0.060039
      6          6           0       -0.840028   -0.488962    0.878439
      7          6           0       -0.326532    0.816283    1.054077
      8          6           0        0.812446    1.157816    1.993149
      9          6           0       -0.153120   -1.698846    1.491880
     10          6           0        0.537941   -2.622713    0.454859
     11          6           0        1.353878   -1.892607   -0.610379
     12          7           0        2.505170   -1.190361   -0.041512
     13          6           0        3.192028   -0.378507   -1.014384
     14          6           0        2.591396    0.911135   -1.544276
     15          6           0        3.782384    0.936395   -0.605435
     16          6           0       -2.610029   -2.056002   -0.104358
     17          6           0       -3.739392    0.200360   -1.540118
     18          1           0       -0.409781    3.654363    1.527948
     19          1           0        0.688462    3.359511    0.183710
     20          1           0       -0.932848    3.995565   -0.127615
     21          1           0       -2.423416    2.492030   -1.035766
     22          1           0        1.236036    0.298548    2.512237
     23          1           0        1.629748    1.663587    1.465682
     24          1           0        0.472288    1.856460    2.768217
     25          1           0        0.589484   -1.387532    2.226935
     26          1           0       -0.873598   -2.299440    2.060456
     27          1           0        1.188648   -3.323066    0.992454
     28          1           0       -0.217731   -3.222975   -0.061833
     29          1           0        1.737531   -2.627551   -1.330331
     30          1           0        0.691978   -1.213623   -1.175133
     31          1           0        2.191503   -0.593699    0.718793
     32          1           0        3.765588   -0.974356   -1.723175
     33          1           0        2.749904    1.184809   -2.584215
     34          1           0        1.622674    1.202262   -1.145459
     35          1           0        3.621674    1.266130    0.418480
     36          1           0        4.753545    1.215825   -1.004294
     37          1           0       -2.331535   -2.521520   -1.059589
     38          1           0       -2.330186   -2.749805    0.689459
     39          1           0       -3.702199   -1.980974   -0.099450
     40          1           0       -3.557343   -0.567942   -2.301562
     41          1           0       -4.632147   -0.112877   -0.983051
     42          1           0       -3.984571    1.132530   -2.057580
 ---------------------------------------------------------------------

 SCF Done:  E(UB3LYP) =  -679.730630902     A.U. after   33 cycles
 SCF Done:  E(UB3LYP) =  -679.730630902     a.u. after    1 cycles

 The electronic state is 2-A.
 Alpha  occ. eigenvalues --  -14.20652 -10.10954 -10.09268 -10.08381 -10.08330
 Alpha  occ. eigenvalues --  -10.08198 -10.08014 -10.07956 -10.07881 -10.07733
 Alpha  occ. eigenvalues --  -10.07671 -10.07505 -10.07374 -10.07180 -10.06885
 Alpha  occ. eigenvalues --  -10.06663 -10.06656  -0.82859  -0.77158  -0.74175
 Alpha  occ. eigenvalues --   -0.70489  -0.70011  -0.65520  -0.63234  -0.61994
 Alpha  occ. eigenvalues --   -0.59259  -0.56684  -0.54599  -0.51535  -0.50601
 Alpha  occ. eigenvalues --   -0.49814  -0.46319  -0.45541  -0.41320  -0.40783
 Alpha  occ. eigenvalues --   -0.39600  -0.37871  -0.37109  -0.35115  -0.33958
 Alpha  occ. eigenvalues --   -0.33581  -0.33231  -0.33072  -0.32087  -0.30743
 Alpha  occ. eigenvalues --   -0.30567  -0.30458  -0.29713  -0.29610  -0.29116
 Alpha  occ. eigenvalues --   -0.28134  -0.27823  -0.27675  -0.26989  -0.25482
 Alpha  occ. eigenvalues --   -0.24922  -0.23307  -0.23246  -0.22590  -0.21531
 Alpha  occ. eigenvalues --   -0.20408  -0.14054  -0.13394  -0.12835   0.04216
 Alpha virt. eigenvalues --    0.05960   0.06351   0.06628   0.07733   0.08243
 Alpha virt. eigenvalues --    0.08319   0.08505   0.08856   0.08975   0.09809
 Alpha virt. eigenvalues --    0.10193   0.10489   0.10738   0.11096   0.11109

  Beta  occ. eigenvalues --  -14.20648 -10.10948 -10.09261 -10.08380 -10.08329
  Beta  occ. eigenvalues --  -10.08184 -10.08012 -10.07953 -10.07881 -10.07719
  Beta  occ. eigenvalues --  -10.07650 -10.07494 -10.07363 -10.07154 -10.06852
  Beta  occ. eigenvalues --  -10.06646 -10.06629  -0.82848  -0.77145  -0.74161
  Beta  occ. eigenvalues --   -0.70470  -0.69993  -0.65498  -0.63196  -0.61954
  Beta  occ. eigenvalues --   -0.59222  -0.56647  -0.54551  -0.51499  -0.50572
  Beta  occ. eigenvalues --   -0.49789  -0.46289  -0.45504  -0.41305  -0.40753
  Beta  occ. eigenvalues --   -0.39581  -0.37836  -0.37083  -0.35090  -0.33930
  Beta  occ. eigenvalues --   -0.33552  -0.33201  -0.33051  -0.32055  -0.30719
  Beta  occ. eigenvalues --   -0.30540  -0.30426  -0.29685  -0.29579  -0.29088
  Beta  occ. eigenvalues --   -0.28105  -0.27802  -0.27651  -0.26968  -0.25460
  Beta  occ. eigenvalues --   -0.24902  -0.23286  -0.23224  -0.22570  -0.21513
  Beta  occ. eigenvalues --   -0.20392  -0.14036  -0.13377  -0.12821
  Beta virt. eigenvalues --    0.06101   0.06754   0.06846   0.07163   0.08112
  Beta virt. eigenvalues --    0.08429   0.08649   0.08931   0.09063   0.09170
  Beta virt. eigenvalues --    0.10036   0.10541   0.10831   0.11068   0.11422

 Mulliken charges and spin densities:
               1          2
     1  C    1.110503  -1.696103
     2  C   -0.937735   1.271942
     3  C    0.382691  -1.025510
     4  C   -0.972543   1.363801
     5  C   -2.314107   2.334531
     6  C    1.289178  -0.848708
     7  C   -0.269188   0.332876
     8  C   -0.087108  -0.688536
     9  C   -0.959715   0.683207
    10  C   -0.009958  -0.109705
    11  C    0.021500  -0.496647
    12  N    0.094538  -0.061066
    13  C   -0.862018   0.681174
    14  C    0.110119  -0.497811
    15  C    0.158656  -0.514158
    16  C    1.889304  -2.583257
    17  C    1.372981  -1.998453
    18  H   -0.014349   0.167692
    19  H   -0.250411   0.408312
    20  H   -0.266203   0.408004
    21  H   -0.198558   0.345300
    22  H   -0.214453   0.313972
    23  H    0.526565  -0.376436
    24  H   -0.131318   0.307321
    25  H    0.086338   0.045426
    26  H   -0.174983   0.359948
    27  H   -0.029994   0.210521
    28  H   -0.022715   0.133357
    29  H    0.013851   0.151851
    30  H    0.134056  -0.013304
    31  H    0.442637  -0.296680
    32  H   -0.080287   0.281572
    33  H   -0.205236   0.375090
    34  H    0.702789  -0.563792
    35  H   -0.259651   0.388602
    36  H   -0.108189   0.261702
    37  H   -0.080510   0.285045
    38  H   -0.215571   0.363738
    39  H   -0.095801   0.242019
    40  H   -0.183921   0.349061
    41  H   -0.106934   0.271862
    42  H   -0.284251   0.432240
 Sum of Mulliken charges =  -1.00000   1.00000

 Dipole moment (field-independent basis, Debye):
    X=              2.4697    Y=             -0.6721    Z=              1.3906  Tot=              2.9129
 Quadrupole moment (field-independent basis, Debye-Ang):
   XX=           -181.9432   YY=           -167.5056   ZZ=           -149.2817
   XY=             -6.4521   XZ=             -3.1054   YZ=              1.0375

 Summary of Natural Population Analysis:

                                       Natural Population
                Natural  -----------------------------------------------
    Atom  No    Charge         Core      Valence    Rydberg      Total
 -----------------------------------------------------------------------
      C    1   -0.29430      0.99964     2.28903    0.00563     3.29430
      C    2   -0.01362      0.99947     2.00466    0.00949     3.01362
      C    3   -0.09676      0.99946     2.08812    0.00918     3.09676
      C    4   -0.01101      0.99947     2.00197    0.00957     3.01101
      C    5   -0.01348      0.99943     2.00407    0.00998     3.01348
      C    6   -0.01216      0.99944     2.00148    0.01124     3.01216
      C    7   -0.02242      0.99943     2.01287    0.01012     3.02242
      C    8   -0.30072      0.99963     2.29460    0.00649     3.30072
      C    9   -0.20162      0.99959     2.19339    0.00864     3.20162
      C   10   -0.19027      0.99962     2.18229    0.00836     3.19027
      C   11   -0.08755      0.99962     2.07807    0.00986     3.08755
      N   12   -0.34035      0.99973     2.82961    0.01101     3.84035
      C   13   -0.01189      0.99958     1.99950    0.01281     3.01189
      C   14   -0.21327      0.99962     2.20575    0.00790     3.21327
      C   15   -0.20320      0.99962     2.19574    0.00784     3.20320
      C   16   -0.29856      0.99964     2.29274    0.00618     3.29856
      C   17   -0.29388      0.99964     2.28881    0.00544     3.29388
      H   18    0.10314      0.00000     0.39579    0.00107     0.39686
      H   19    0.10409      0.00000     0.39455    0.00135     0.39591
      H   20    0.10280      0.00000     0.39625    0.00095     0.39720
      H   21    0.09603      0.00000     0.40264    0.00133     0.40397
      H   22    0.10054      0.00000     0.39845    0.00100     0.39946
      H   23    0.10300      0.00000     0.39536    0.00164     0.39700
      H   24    0.10775      0.00000     0.39131    0.00094     0.39225
      H   25    0.09867      0.00000     0.39999    0.00134     0.40133
      H   26    0.10589      0.00000     0.39294    0.00116     0.39411
      H   27    0.09797      0.00000     0.40089    0.00114     0.40203
      H   28    0.10062      0.00000     0.39820    0.00119     0.39938
      H   29    0.09096      0.00000     0.40787    0.00117     0.40904
      H   30    0.08753      0.00000     0.41066    0.00181     0.41247
      H   31    0.17375      0.00000     0.32082    0.00543     0.32625
      H   32    0.09516      0.00000     0.40374    0.00110     0.40484
      H   33    0.10098      0.00000     0.39789    0.00113     0.39902
      H   34    0.10756      0.00000     0.39091    0.00152     0.39244
      H   35    0.10025      0.00000     0.39858    0.00118     0.39975
      H   36    0.10207      0.00000     0.39704    0.00089     0.39793
      H   37    0.10576      0.00000     0.39288    0.00136     0.39424
      H   38    0.10352      0.00000     0.39543    0.00105     0.39648
      H   39    0.10587      0.00000     0.39305    0.00108     0.39413
      H   40    0.10492      0.00000     0.39386    0.00123     0.39508
      H   41    0.10420      0.00000     0.39461    0.00120     0.39580
      H   42    0.10205      0.00000     0.39691    0.00104     0.39795
 =======================================================================
   * Total *    0.00000     16.99263    46.82334    0.18402    64.00000

 Normal termination of Gaussian 16 at Fri Dec 11 15:00:41 2020.
