 Gaussian 16, Revision A.03,

 -----------------------------------------------------------
 # opt freq B3LYP/6-31G(d) empiricaldispersion=gd3bj scf=xqc
 -----------------------------------------------------------

 -------------------------------
 CID_100997873_JID_7434_neutraal
 -------------------------------
 Symbolic Z-matrix:
 Charge =  0 Multiplicity = 1

 SCF Done:  E(RB3LYP) =  -840.679394633     A.U. after   15 cycles
 SCF Done:  E(RB3LYP) =  -840.684877610     A.U. after   14 cycles
 SCF Done:  E(RB3LYP) =  -840.684672296     A.U. after   13 cycles
 SCF Done:  E(RB3LYP) =  -840.685562423     A.U. after   13 cycles
 SCF Done:  E(RB3LYP) =  -840.685942678     A.U. after   12 cycles
 SCF Done:  E(RB3LYP) =  -840.686434401     A.U. after   14 cycles
 SCF Done:  E(RB3LYP) =  -840.683955114     A.U. after   15 cycles
 SCF Done:  E(RB3LYP) =  -840.687288877     A.U. after   13 cycles
 SCF Done:  E(RB3LYP) =  -840.687866673     A.U. after   14 cycles
 SCF Done:  E(RB3LYP) =  -840.688500381     A.U. after   13 cycles
 SCF Done:  E(RB3LYP) =  -840.696404247     A.U. after   11 cycles
 SCF Done:  E(RB3LYP) =  -840.696489369     A.U. after   12 cycles
 SCF Done:  E(RB3LYP) =  -840.696514215     A.U. after   11 cycles
 SCF Done:  E(RB3LYP) =  -840.696518099     A.U. after   11 cycles
 SCF Done:  E(RB3LYP) =  -840.696518394     A.U. after    8 cycles
 Optimization completed.
    -- Stationary point found.
 Normal termination of Gaussian 16 at Fri Dec 11 12:22:16 2020.

 --------------------------------------------------------------------
 #N Geom=AllCheck Guess=TCheck SCRF=Check GenChk RB3LYP/6-31G(d) Freq
 --------------------------------------------------------------------

 Structure from the checkpoint file:  "JID_7434.chk"
 -------------------------------
 CID_100997873_JID_7434_neutraal
 -------------------------------
 Charge =  0 Multiplicity = 1

 SCF Done:  E(RB3LYP) =  -840.696518394     A.U. after    1 cycles

  Exact polarizability: 172.763  21.673 117.271  14.318 -21.201 104.564
 Approx polarizability: 247.361  37.556 186.021  28.762 -52.003 176.676

                      1                      2                      3
                      A                      A                      A
 Frequencies --     34.2524                39.8761                47.6987
 Red. masses --      5.1417                 4.2937                 6.8494
 Frc consts  --      0.0036                 0.0040                 0.0092
 IR Inten    --      0.2863                 0.2434                 0.9441

                      4                      5                      6
                      A                      A                      A
 Frequencies --     61.9974                97.9532               104.4735
 Red. masses --      4.2200                 1.4649                 2.9532
 Frc consts  --      0.0096                 0.0083                 0.0190
 IR Inten    --      0.9185                 0.1501                 4.5702

                      7                      8                      9
                      A                      A                      A
 Frequencies --    109.2080               119.1837               166.2549
 Red. masses --      4.5979                 6.0349                 4.7284
 Frc consts  --      0.0323                 0.0505                 0.0770
 IR Inten    --      0.8348                 1.3485                 1.0785

                     10                     11                     12
                      A                      A                      A
 Frequencies --    167.6826               243.7618               269.4524
 Red. masses --      4.8510                 8.1471                 2.5406
 Frc consts  --      0.0804                 0.2852                 0.1087
 IR Inten    --      1.0392                 0.8582                12.8356

                     13                     14                     15
                      A                      A                      A
 Frequencies --    275.7105               323.6251               353.7665
 Red. masses --      3.1897                 5.6142                 4.7469
 Frc consts  --      0.1429                 0.3464                 0.3500
 IR Inten    --     11.3561                15.1918                 4.9733

                     16                     17                     18
                      A                      A                      A
 Frequencies --    403.7492               417.8110               452.7648
 Red. masses --      5.0925                 2.9915                 4.0240
 Frc consts  --      0.4891                 0.3077                 0.4860
 IR Inten    --     16.4317                 0.0008                 1.8465

                     19                     20                     21
                      A                      A                      A
 Frequencies --    463.5994               484.1835               511.3065
 Red. masses --      6.1709                 3.2361                 4.4532
 Frc consts  --      0.7814                 0.4470                 0.6859
 IR Inten    --      2.5325                21.0080                 0.9179

                     22                     23                     24
                      A                      A                      A
 Frequencies --    575.1383               607.0092               633.8730
 Red. masses --      6.2157                 2.8696                 6.4064
 Frc consts  --      1.2114                 0.6230                 1.5166
 IR Inten    --     11.8664                12.0555                 0.6565

                     25                     26                     27
                      A                      A                      A
 Frequencies --    689.1712               699.1503               706.4961
 Red. masses --      5.6540                 3.7511                 5.4627
 Frc consts  --      1.5822                 1.0803                 1.6065
 IR Inten    --      2.1469                 0.1251                15.7482

                     28                     29                     30
                      A                      A                      A
 Frequencies --    723.1197               758.2380               814.1419
 Red. masses --      1.6680                 3.7479                 2.7758
 Frc consts  --      0.5139                 1.2695                 1.0840
 IR Inten    --     91.3759                 7.0169                 0.6898

                     31                     32                     33
                      A                      A                      A
 Frequencies --    845.8736               862.4843               870.4273
 Red. masses --      4.2110                 3.2993                 1.2459
 Frc consts  --      1.7752                 1.4460                 0.5561
 IR Inten    --      1.7914                10.7083                 0.4305

                     34                     35                     36
                      A                      A                      A
 Frequencies --    932.6785               958.8004               987.4279
 Red. masses --      2.1256                 1.3957                 1.3502
 Frc consts  --      1.0894                 0.7559                 0.7756
 IR Inten    --      1.9198                 1.8856                 0.2433

                     37                     38                     39
                      A                      A                      A
 Frequencies --   1010.6784              1012.5244              1023.4309
 Red. masses --      1.2771                 2.1963                 6.2394
 Frc consts  --      0.7686                 1.3267                 3.8505
 IR Inten    --      0.1312                 3.1451                 3.0024

                     40                     41                     42
                      A                      A                      A
 Frequencies --   1030.1498              1059.1965              1076.8090
 Red. masses --      4.8888                 2.1728                 2.4033
 Frc consts  --      3.0567                 1.4362                 1.6418
 IR Inten    --      1.3204                13.7853                 2.9863

                     43                     44                     45
                      A                      A                      A
 Frequencies --   1079.9679              1097.9969              1112.8015
 Red. masses --      1.8059                 4.1983                 1.6181
 Frc consts  --      1.2410                 2.9821                 1.1806
 IR Inten    --     13.4389                80.6729                22.3627

                     46                     47                     48
                      A                      A                      A
 Frequencies --   1151.1167              1196.3564              1208.6615
 Red. masses --      4.6098                 1.1028                 1.1544
 Frc consts  --      3.5989                 0.9299                 0.9936
 IR Inten    --    167.0774                 0.1603                32.6011

                     49                     50                     51
                      A                      A                      A
 Frequencies --   1241.0817              1284.4768              1298.5604
 Red. masses --      4.2419                 3.2630                 1.1954
 Frc consts  --      3.8496                 3.1719                 1.1876
 IR Inten    --     52.6040               186.2512                43.6212

                     52                     53                     54
                      A                      A                      A
 Frequencies --   1308.7712              1323.7454              1353.8052
 Red. masses --      2.2197                 1.5325                 1.5002
 Frc consts  --      2.2401                 1.5822                 1.6200
 IR Inten    --    335.8014                77.0697                10.9946

                     55                     56                     57
                      A                      A                      A
 Frequencies --   1371.4505              1392.5620              1400.9046
 Red. masses --      4.6632                 1.3729                 1.3648
 Frc consts  --      5.1677                 1.5686                 1.5781
 IR Inten    --      3.6489                26.2087                 4.6654

                     58                     59                     60
                      A                      A                      A
 Frequencies --   1427.9020              1479.4537              1481.4726
 Red. masses --      1.3771                 1.1039                 1.1100
 Frc consts  --      1.6543                 1.4236                 1.4354
 IR Inten    --     38.6799                25.2047                27.0116

                     61                     62                     63
                      A                      A                      A
 Frequencies --   1499.5325              1500.7545              1506.1609
 Red. masses --      2.2249                 1.0533                 1.0541
 Frc consts  --      2.9476                 1.3977                 1.4089
 IR Inten    --     13.9800                 9.3340                 7.3346

                     64                     65                     66
                      A                      A                      A
 Frequencies --   1543.9238              1644.0010              1664.5373
 Red. masses --      2.2619                 5.7319                 5.5661
 Frc consts  --      3.1768                 9.1275                 9.0864
 IR Inten    --      1.8231                 4.9647                16.5389

                     67                     68                     69
                      A                      A                      A
 Frequencies --   1794.9535              1818.2645              1827.1722
 Red. masses --     12.0138                12.2033                10.7146
 Frc consts  --     22.8054                23.7707                21.0759
 IR Inten    --    220.3372               170.3608               191.4003

                     70                     71                     72
                      A                      A                      A
 Frequencies --   3075.1778              3100.4055              3102.9339
 Red. masses --      1.0367                 1.0586                 1.0589
 Frc consts  --      5.7763                 5.9955                 6.0071
 IR Inten    --      2.8516                 5.8375                14.0506

                     73                     74                     75
                      A                      A                      A
 Frequencies --   3140.0575              3163.8103              3166.5087
 Red. masses --      1.1001                 1.1066                 1.1069
 Frc consts  --      6.3906                 6.5261                 6.5389
 IR Inten    --      1.3831                 3.8493                 4.0128

                     76                     77                     78
                      A                      A                      A
 Frequencies --   3186.1633              3191.0947              3202.8331
 Red. masses --      1.1039                 1.0860                 1.0899
 Frc consts  --      6.6028                 6.5157                 6.5874
 IR Inten    --      4.3554                 0.2607                13.2345

                     79                     80                     81
                      A                      A                      A
 Frequencies --   3212.8932              3229.9315              3233.1098
 Red. masses --      1.0947                 1.0932                 1.0934
 Frc consts  --      6.6578                 6.7196                 6.7342
 IR Inten    --     22.2217                 5.4475                 2.3939

 - Thermochemistry -
 -------------------
 Temperature   298.150 Kelvin.  Pressure   1.00000 Atm.
 Atom     1 has atomic number  6 and mass  12.00000

 Molecular mass:   236.06847 amu.
 Principal axes and moments of inertia in atomic units:
                           1         2         3
     Eigenvalues --  2108.936565482.575926470.73474
           X            0.99998   0.00551   0.00127
           Y           -0.00550   0.99994  -0.00977
           Z           -0.00132   0.00977   0.99995
 This molecule is an asymmetric top.
 Rotational symmetry number  1.
 Warning -- assumption of classical behavior for rotation
           may cause significant error
 Rotational temperatures (Kelvin)      0.04107     0.01580     0.01339
 Rotational constants (GHZ):           0.85576     0.32918     0.27891
 Zero-point vibrational energy     592393.4 (Joules/Mol)
                                  141.58541 (Kcal/Mol)
 Warning -- explicit consideration of  23 degrees of freedom as
           vibrations may cause significant error
 Vibrational temperatures:     49.28    57.37    68.63    89.20   140.93
          (Kelvin)            150.31   157.13   171.48   239.20   241.26
                              350.72   387.68   396.69   465.62   508.99
                              580.91   601.14   651.43   667.02   696.63
                              735.66   827.50   873.35   912.00   991.56
                             1005.92  1016.49  1040.41  1090.94  1171.37
                             1217.02  1240.92  1252.35  1341.92  1379.50
                             1420.69  1454.14  1456.80  1472.49  1482.16
                             1523.95  1549.29  1553.83  1579.77  1601.07
                             1656.20  1721.29  1738.99  1785.64  1848.08
                             1868.34  1883.03  1904.57  1947.82  1973.21
                             2003.59  2015.59  2054.43  2128.60  2131.51
                             2157.49  2159.25  2167.03  2221.36  2365.35
                             2394.90  2582.54  2616.08  2628.89  4424.50
                             4460.79  4464.43  4517.84  4552.02  4555.90
                             4584.18  4591.27  4608.16  4622.64  4647.15
                             4651.72

 Zero-point correction=                           0.225631 (Hartree/Particle)
 Thermal correction to Energy=                    0.241525
 Thermal correction to Enthalpy=                  0.242469
 Thermal correction to Gibbs Free Energy=         0.180547
 Sum of electronic and zero-point Energies=           -840.470888
 Sum of electronic and thermal Energies=              -840.454994
 Sum of electronic and thermal Enthalpies=            -840.454050
 Sum of electronic and thermal Free Energies=         -840.515971

                     E (Thermal)             CV                S
                      KCal/Mol        Cal/Mol-Kelvin    Cal/Mol-Kelvin
 Total                  151.559             58.022            130.325
 Electronic               0.000              0.000              0.000
 Translational            0.889              2.981             42.278
 Rotational               0.889              2.981             32.681
 Vibrational            149.782             52.061             55.366
 Vibration     1          0.594              1.983              5.567
 Vibration     2          0.594              1.981              5.265
 Vibration     3          0.595              1.978              4.911
 Vibration     4          0.597              1.972              4.393
 Vibration     5          0.603              1.951              3.495
 Vibration     6          0.605              1.946              3.369
 Vibration     7          0.606              1.942              3.283
 Vibration     8          0.609              1.933              3.114
 Vibration     9          0.624              1.884              2.477
 Vibration    10          0.624              1.882              2.461
 Vibration    11          0.659              1.773              1.775
 Vibration    12          0.674              1.729              1.600
 Vibration    13          0.677              1.718              1.560
 Vibration    14          0.708              1.628              1.292
 Vibration    15          0.730              1.568              1.149
 Vibration    16          0.769              1.462              0.949
 Vibration    17          0.781              1.432              0.899
 Vibration    18          0.811              1.355              0.787
 Vibration    19          0.821              1.331              0.756
 Vibration    20          0.840              1.285              0.699
 Vibration    21          0.866              1.225              0.630
 Vibration    22          0.931              1.085              0.494
 Vibration    23          0.966              1.017              0.438

                           ! Non-Optimized Parameters !
 Normal termination of Gaussian 16 at Fri Dec 11 12:32:29 2020.

 ----------------------------------------------------------------------
 # B3LYP/6-311++G(d,p) empiricaldispersion=gd3bj scf=xqc pop=npa geom=c
 heck
 ----------------------------------------------------------------------

 ---------------------------------------
 CID_100997873_JID_7434_Energie_neutraal
 ---------------------------------------
 Structure from the checkpoint file:  "JID_7434.chk"
 Charge =  0 Multiplicity = 1

 SCF Done:  E(RB3LYP) =  -840.937832844     A.U. after   16 cycles
 Normal termination of Gaussian 16 at Fri Dec 11 12:36:50 2020.

 ----------------------------------------------------------------------
 # B3LYP/6-311++G(d,p) empiricaldispersion=gd3bj scf=xqc pop=npa geom=c
 heck
 ----------------------------------------------------------------------

 -------------------------------------
 CID_100997873_JID_7434_Energie_kation
 -------------------------------------
 Structure from the checkpoint file:  "JID_7434.chk"
 Charge =  1 Multiplicity = 2

 SCF Done:  E(UB3LYP) =  -840.605158449     A.U. after   33 cycles
 SCF Done:  E(UB3LYP) =  -840.605158450     a.u. after    2 cycles
 Normal termination of Gaussian 16 at Fri Dec 11 12:58:54 2020.
 Gaussian 16:  ES64L-G16RevA.03 25-Dec-2016

 ----------------------------------------------------------------------
 # B3LYP/6-311++G(d,p) empiricaldispersion=gd3bj scf=xqc pop=npa geom=c
 heck
 ----------------------------------------------------------------------

 ------------------------------------
 CID_100997873_JID_7434_Energie_anion
 ------------------------------------
 Structure from the checkpoint file:  "JID_7434.chk"
 Charge = -1 Multiplicity = 2

                         Standard orientation:
 ---------------------------------------------------------------------
 Center     Atomic      Atomic             Coordinates (Angstroms)
 Number     Number       Type             X           Y           Z
 ---------------------------------------------------------------------
      1          6           0        0.404024   -2.844623   -0.346218
      2          6           0        1.525724   -1.842277   -0.306746
      3          8           0        2.514084   -1.899067    0.392953
      4          8           0        1.296360   -0.824764   -1.172005
      5          6           0        2.329042    0.167187   -1.236844
      6          6           0        2.681850    0.902381    0.056385
      7          8           0        3.724853    1.519792    0.094554
      8          6           0        1.798846    0.916609    1.305234
      9          8           0        0.451388    0.452011    1.160181
     10          6           0       -0.306143    1.142725    0.274409
     11          8           0        0.129946    2.078245   -0.369386
     12          6           0       -1.689115    0.615546    0.179058
     13          6           0       -2.533535    1.164322   -0.793707
     14          6           0       -3.836019    0.693005   -0.929780
     15          6           0       -4.301254   -0.324703   -0.093411
     16          6           0       -3.463240   -0.869264    0.882433
     17          6           0       -2.158348   -0.401578    1.021877
     18          1           0        0.597260   -3.636287    0.377934
     19          1           0        0.318769   -3.270489   -1.351184
     20          1           0       -0.543440   -2.346324   -0.119689
     21          1           0        3.255377   -0.274160   -1.613510
     22          1           0        1.959142    0.908687   -1.947272
     23          1           0        2.248760    0.242517    2.036006
     24          1           0        1.806533    1.939156    1.690930
     25          1           0       -2.148672    1.953024   -1.430970
     26          1           0       -4.488990    1.116992   -1.686775
     27          1           0       -5.318014   -0.691912   -0.200237
     28          1           0       -3.828060   -1.655520    1.536693
     29          1           0       -1.502711   -0.811399    1.781564
 ---------------------------------------------------------------------

 SCF Done:  E(UB3LYP) =  -840.949945233     A.U. after   30 cycles

 The electronic state is 2-A.
 Alpha  occ. eigenvalues --  -19.06926 -19.02286 -19.01817 -19.00986 -18.94126
 Alpha  occ. eigenvalues --  -10.20833 -10.16125 -10.13273 -10.11895 -10.11772
 Alpha  occ. eigenvalues --  -10.08017 -10.03010 -10.02787 -10.02178 -10.01876
 Alpha  occ. eigenvalues --  -10.01625 -10.01583  -1.01379  -0.96316  -0.94580
 Alpha  occ. eigenvalues --   -0.92575  -0.86335  -0.70864  -0.67990  -0.64011
 Alpha  occ. eigenvalues --   -0.61730  -0.60110  -0.59606  -0.50566  -0.49008
 Alpha  occ. eigenvalues --   -0.46261  -0.44867  -0.42226  -0.40946  -0.39574
 Alpha  occ. eigenvalues --   -0.39038  -0.36667  -0.35961  -0.34736  -0.34266
 Alpha  occ. eigenvalues --   -0.33414  -0.32626  -0.31135  -0.30649  -0.29823
 Alpha  occ. eigenvalues --   -0.28898  -0.28345  -0.28142  -0.27913  -0.27135
 Alpha  occ. eigenvalues --   -0.25263  -0.23728  -0.22266  -0.21401  -0.21009
 Alpha  occ. eigenvalues --   -0.19842  -0.18807  -0.18221  -0.14567  -0.12808
 Alpha  occ. eigenvalues --   -0.11716  -0.11506   0.04821
 Alpha virt. eigenvalues --    0.07677   0.07772   0.09027   0.09317   0.09662
 Alpha virt. eigenvalues --    0.10397   0.10773   0.11610   0.11759   0.12567
 Alpha virt. eigenvalues --    0.12853   0.13297   0.13669   0.14136   0.15241

  Beta  occ. eigenvalues --  -19.06925 -19.02202 -19.01812 -19.00961 -18.93781
  Beta  occ. eigenvalues --  -10.20828 -10.16081 -10.13273 -10.11778 -10.11545
  Beta  occ. eigenvalues --  -10.08010 -10.03085 -10.02844 -10.01997 -10.01705
  Beta  occ. eigenvalues --  -10.01390 -10.01232  -1.01371  -0.96022  -0.94494
  Beta  occ. eigenvalues --   -0.92568  -0.85784  -0.70457  -0.67964  -0.63782
  Beta  occ. eigenvalues --   -0.61565  -0.59764  -0.59235  -0.50350  -0.48495
  Beta  occ. eigenvalues --   -0.46037  -0.44604  -0.42094  -0.40894  -0.39430
  Beta  occ. eigenvalues --   -0.39025  -0.36605  -0.35820  -0.34560  -0.33914
  Beta  occ. eigenvalues --   -0.33304  -0.32433  -0.31026  -0.30426  -0.29636
  Beta  occ. eigenvalues --   -0.28714  -0.28197  -0.27936  -0.27127  -0.26907
  Beta  occ. eigenvalues --   -0.25050  -0.23525  -0.21664  -0.20872  -0.20730
  Beta  occ. eigenvalues --   -0.19691  -0.18786  -0.17222  -0.14261  -0.12443
  Beta  occ. eigenvalues --   -0.10739  -0.09666
  Beta virt. eigenvalues --    0.07671   0.07974   0.08970   0.09320   0.09595
  Beta virt. eigenvalues --    0.10369   0.10691   0.11176   0.11565   0.11709
  Beta virt. eigenvalues --    0.12720   0.12970   0.13242   0.13638   0.14071

 Mulliken charges and spin densities:
               1          2
     1  C   -0.417459  -0.085061
     2  C   -0.104272   0.043926
     3  O   -0.229410  -0.000111
     4  O    0.072800  -0.000730
     5  C   -0.156342  -0.023780
     6  C    0.008800   0.026705
     7  O   -0.266335   0.009575
     8  C   -0.198970  -0.027888
     9  O    0.005245   0.015339
    10  C   -0.847467   0.111391
    11  O   -0.296714   0.124308
    12  C    0.601023   0.100383
    13  C    0.021697   0.209677
    14  C   -0.414068  -0.030167
    15  C   -0.372738   0.291130
    16  C   -0.311177  -0.064439
    17  C   -0.030093   0.224216
    18  H    0.129690   0.019299
    19  H    0.121346   0.042260
    20  H    0.210873  -0.000650
    21  H    0.164687   0.035379
    22  H    0.243048   0.002086
    23  H    0.193790   0.014729
    24  H    0.215917  -0.003234
    25  H    0.174442  -0.009688
    26  H    0.108347   0.004259
    27  H    0.098909  -0.025015
    28  H    0.111704   0.008060
    29  H    0.162729  -0.011959
 Sum of Mulliken charges =  -1.00000   1.00000

 Dipole moment (field-independent basis, Debye):
    X=              1.9727    Y=             -3.9747    Z=             -0.6014  Tot=              4.4779
 Quadrupole moment (field-independent basis, Debye-Ang):
   XX=           -154.2731   YY=           -118.3431   ZZ=           -104.7028
   XY=             -1.4173   XZ=             -2.1015   YZ=              2.2815

 Summary of Natural Population Analysis:

                                       Natural Population
                Natural  -----------------------------------------------
    Atom  No    Charge         Core      Valence    Rydberg      Total
 -----------------------------------------------------------------------
      C    1   -0.33602      0.99961     2.33125    0.00517     3.33602
      C    2    0.41176      0.99973     1.56350    0.02501     2.58824
      O    3   -0.31055      0.99987     3.30495    0.00573     4.31055
      O    4   -0.27304      0.99986     3.26463    0.00855     4.27304
      C    5   -0.06351      0.99950     2.05081    0.01320     3.06351
      C    6    0.28893      0.99969     1.69000    0.02138     2.71107
      O    7   -0.29374      0.99987     3.28543    0.00844     4.29374
      C    8   -0.06006      0.99951     2.04826    0.01229     3.06006
      O    9   -0.28449      0.99986     3.27559    0.00904     4.28449
      C   10    0.44339      0.99963     1.53309    0.02389     2.55661
      O   11   -0.29866      0.99987     3.29361    0.00517     4.29866
      C   12   -0.05103      0.99945     2.04060    0.01098     3.05103
      C   13   -0.04646      0.99954     2.03847    0.00845     3.04646
      C   14   -0.12885      0.99958     2.11995    0.00933     3.12885
      C   15   -0.03325      0.99958     2.02399    0.00968     3.03325
      C   16   -0.13387      0.99957     2.12480    0.00950     3.13387
      C   17   -0.06005      0.99954     2.05199    0.00852     3.06005
      H   18    0.10477      0.00000     0.39383    0.00140     0.39523
      H   19    0.10925      0.00000     0.38964    0.00111     0.39075
      H   20    0.13117      0.00000     0.36734    0.00148     0.36883
      H   21    0.09671      0.00000     0.40106    0.00223     0.40329
      H   22    0.11803      0.00000     0.38112    0.00085     0.38197
      H   23    0.10595      0.00000     0.39306    0.00099     0.39405
      H   24    0.10213      0.00000     0.39658    0.00129     0.39787
      H   25    0.10184      0.00000     0.39715    0.00101     0.39816
      H   26    0.08922      0.00000     0.40968    0.00110     0.41078
      H   27    0.08317      0.00000     0.41529    0.00154     0.41683
      H   28    0.08913      0.00000     0.40974    0.00112     0.41087
      H   29    0.09812      0.00000     0.40091    0.00097     0.40188
 =======================================================================
   * Total *    0.00000     16.99427    44.79631    0.20942    62.00000

 Normal termination of Gaussian 16 at Fri Dec 11 13:08:29 2020.
