 Gaussian 16, Revision A.03,

 -----------------------------------------------------------
 # opt freq B3LYP/6-31G(d) empiricaldispersion=gd3bj scf=xqc
 -----------------------------------------------------------

 ----------------------------
 CID_919716_JID_4709_neutraal
 ----------------------------
 Symbolic Z-matrix:
 Charge =  0 Multiplicity = 1

 SCF Done:  E(RB3LYP) =  -686.799631167     A.U. after   15 cycles
 SCF Done:  E(RB3LYP) =  -686.801285645     A.U. after   14 cycles
 SCF Done:  E(RB3LYP) =  -686.801965479     A.U. after   13 cycles
 SCF Done:  E(RB3LYP) =  -686.802329068     A.U. after   12 cycles
 SCF Done:  E(RB3LYP) =  -686.802330812     A.U. after   12 cycles
 SCF Done:  E(RB3LYP) =  -686.802490846     A.U. after   12 cycles
 SCF Done:  E(RB3LYP) =  -686.802504963     A.U. after   11 cycles
 SCF Done:  E(RB3LYP) =  -686.802506009     A.U. after   10 cycles
 SCF Done:  E(RB3LYP) =  -686.802508011     A.U. after    8 cycles
 SCF Done:  E(RB3LYP) =  -686.802508101     A.U. after    7 cycles
 Optimization completed.
    -- Stationary point found.

 1\1\GINC-NODE313\FOpt\RB3LYP\6-31G(d)\C10H8O4\VSC10255\10-Dec-2020\0\\
 # opt freq B3LYP/6-31G(d) empiricaldispersion=gd3bj scf=xqc\\CID_91971
 6_JID_4709_neutraal\\0,1\C,-1.1632700098,1.2309215728,-0.1652310246\C,
 0.2005638323,1.0738925962,-0.3880679175\C,0.7003907659,-0.1679004313,-
 0.7965255706\C,-0.1687214404,-1.2566063388,-0.9636469374\C,-1.52193032
 17,-1.0924726661,-0.7257066059\C,-2.0465204463,0.1550588579,-0.3394086
 187\C,-3.5046815914,0.2457143832,-0.0793969098\O,-4.1890771288,-0.7545
 227296,0.1135861471\C,-4.2045476029,1.5668761379,-0.0784461373\C,-3.92

 Normal termination of Gaussian 16 at Thu Dec 10 10:19:46 2020.

 --------------------------------------------------------------------
 #N Geom=AllCheck Guess=TCheck SCRF=Check GenChk RB3LYP/6-31G(d) Freq
 --------------------------------------------------------------------

 Structure from the checkpoint file:  "JID_4709.chk"
 ----------------------------
 CID_919716_JID_4709_neutraal
 ----------------------------
 Charge =  0 Multiplicity = 1

 SCF Done:  E(RB3LYP) =  -686.802508101     A.U. after    1 cycles

  Exact polarizability: 169.182  -4.323 127.391   8.668   4.144  57.700
 Approx polarizability: 232.654 -11.181 249.052  16.056   2.302  95.886

                      1                      2                      3
                      A                      A                      A
 Frequencies --     38.7603                48.6355                67.5596
 Red. masses --      7.7771                 6.3368                 5.6459
 Frc consts  --      0.0069                 0.0088                 0.0152
 IR Inten    --      1.9041                 1.6514                 0.6953

                      4                      5                      6
                      A                      A                      A
 Frequencies --    104.4735               152.4895               170.8687
 Red. masses --      7.5595                 6.1045                 2.7503
 Frc consts  --      0.0486                 0.0836                 0.0473
 IR Inten    --      1.9445                 2.0444                 4.9771

                      7                      8                      9
                      A                      A                      A
 Frequencies --    195.5037               221.3209               296.9777
 Red. masses --      6.8726                 6.6451                 6.0275
 Frc consts  --      0.1548                 0.1918                 0.3132
 IR Inten    --      2.3175                 0.7005                 1.5481

                     10                     11                     12
                      A                      A                      A
 Frequencies --    361.1017               404.1228               413.3776
 Red. masses --      8.3504                 1.1332                 4.1631
 Frc consts  --      0.6415                 0.1090                 0.4191
 IR Inten    --      0.0345               117.3278                19.1115

                     13                     14                     15
                      A                      A                      A
 Frequencies --    427.0445               441.8708               516.8228
 Red. masses --      3.0973                 7.4356                 3.2876
 Frc consts  --      0.3328                 0.8554                 0.5174
 IR Inten    --      6.6626                 7.1879                 9.0969

                     16                     17                     18
                      A                      A                      A
 Frequencies --    531.4692               581.9189               599.1175
 Red. masses --      3.4657                 2.1935                 2.2729
 Frc consts  --      0.5768                 0.4376                 0.4807
 IR Inten    --      3.5251               103.8963                67.2585

                     19                     20                     21
                      A                      A                      A
 Frequencies --    628.7863               655.9588               668.1148
 Red. masses --      3.3000                 5.4797                 3.3912
 Frc consts  --      0.7687                 1.3892                 0.8919
 IR Inten    --     25.3339                 6.7481                 7.8243

                     22                     23                     24
                      A                      A                      A
 Frequencies --    717.6603               731.1133               784.7020
 Red. masses --      4.1557                 4.4908                 5.5653
 Frc consts  --      1.2611                 1.4143                 2.0190
 IR Inten    --      7.0599                 6.4346                64.0521

                     25                     26                     27
                      A                      A                      A
 Frequencies --    819.8159               855.4962               861.1403
 Red. masses --      1.3569                 4.8876                 1.7181
 Frc consts  --      0.5373                 2.1076                 0.7507
 IR Inten    --      8.4291                15.6638                20.7168

                     28                     29                     30
                      A                      A                      A
 Frequencies --    915.0928               926.3084               961.8122
 Red. masses --      2.5480                 4.2051                 1.2871
 Frc consts  --      1.2571                 2.1259                 0.7015
 IR Inten    --      2.7412                 8.9935                 2.0707

                     31                     32                     33
                      A                      A                      A
 Frequencies --    990.0576              1031.0801              1034.3400
 Red. masses --      1.3156                 2.7806                 1.1254
 Frc consts  --      0.7598                 1.7417                 0.7094
 IR Inten    --      0.7970                 7.3901                37.3014

                     34                     35                     36
                      A                      A                      A
 Frequencies --   1091.7425              1141.3921              1194.6333
 Red. masses --      3.6735                 1.3257                 1.7308
 Frc consts  --      2.5797                 1.0176                 1.4553
 IR Inten    --     32.2545                 8.9644               599.7383

                     37                     38                     39
                      A                      A                      A
 Frequencies --   1209.7786              1213.5380              1281.4310
 Red. masses --      1.2464                 1.3428                 1.3295
 Frc consts  --      1.0747                 1.1651                 1.2862
 IR Inten    --     10.1229               107.5461                 6.5949

                     40                     41                     42
                      A                      A                      A
 Frequencies --   1315.9307              1326.1058              1330.5909
 Red. masses --      3.1254                 3.6294                 1.4572
 Frc consts  --      3.1887                 3.7604                 1.5200
 IR Inten    --    231.3971               130.7622                 9.5874

                     43                     44                     45
                      A                      A                      A
 Frequencies --   1347.3924              1397.3360              1400.2665
 Red. masses --      1.5913                 3.3246                 3.0401
 Frc consts  --      1.7021                 3.8246                 3.5121
 IR Inten    --     46.5759                13.6493                85.7112

                     46                     47                     48
                      A                      A                      A
 Frequencies --   1486.4928              1563.3504              1637.8196
 Red. masses --      2.9822                 2.7196                 5.9323
 Frc consts  --      3.8825                 3.9162                 9.3758
 IR Inten    --      4.3710                24.5432                95.0121

                     49                     50                     51
                      A                      A                      A
 Frequencies --   1668.9725              1696.0317              1735.6396
 Red. masses --      5.8474                 6.8851                11.4213
 Frc consts  --      9.5965                11.6689                20.2715
 IR Inten    --    213.8328                 2.7846               164.0168

                     52                     53                     54
                      A                      A                      A
 Frequencies --   1825.8644              3176.7087              3215.2771
 Red. masses --      9.2457                 1.0899                 1.0922
 Frc consts  --     18.1604                 6.4803                 6.6528
 IR Inten    --    319.7060                17.1692                 0.0557

                     55                     56                     57
                      A                      A                      A
 Frequencies --   3217.0174              3225.4839              3230.9048
 Red. masses --      1.0885                 1.0909                 1.0897
 Frc consts  --      6.6370                 6.6866                 6.7020
 IR Inten    --      2.5450                 4.8326                 0.9454

                     58                     59                     60
                      A                      A                      A
 Frequencies --   3231.5584              3702.0951              3745.5771
 Red. masses --      1.0942                 1.0643                 1.0659
 Frc consts  --      6.7325                 8.5940                 8.8107
 IR Inten    --      3.9664                78.2739                62.1746

 - Thermochemistry -
 -------------------
 Temperature   298.150 Kelvin.  Pressure   1.00000 Atm.
 Atom     1 has atomic number  6 and mass  12.00000

 Molecular mass:   192.04226 amu.
 Principal axes and moments of inertia in atomic units:
                           1         2         3
     Eigenvalues --  1317.376285614.059896692.62890
           X            0.99998  -0.00519   0.00307
           Y            0.00513   0.99984   0.01705
           Z           -0.00316  -0.01704   0.99985
 This molecule is an asymmetric top.
 Rotational symmetry number  1.
 Warning -- assumption of classical behavior for rotation
           may cause significant error
 Rotational temperatures (Kelvin)      0.06575     0.01543     0.01294
 Rotational constants (GHZ):           1.36995     0.32147     0.26966
 Zero-point vibrational energy     429243.1 (Joules/Mol)
                                  102.59157 (Kcal/Mol)
 Warning -- explicit consideration of  18 degrees of freedom as
           vibrations may cause significant error
 Vibrational temperatures:     55.77    69.98    97.20   150.31   219.40
          (Kelvin)            245.84   281.29   318.43   427.28   519.54
                              581.44   594.76   614.42   635.75   743.59
                              764.67   837.25   862.00   904.68   943.78
                              961.27  1032.55  1051.91  1129.01  1179.53
                             1230.87  1238.99  1316.61  1332.75  1383.83
                             1424.47  1483.49  1488.18  1570.77  1642.21
                             1718.81  1740.60  1746.01  1843.69  1893.33
                             1907.97  1914.42  1938.60  2010.45  2014.67
                             2138.73  2249.31  2356.46  2401.28  2440.21
                             2497.20  2627.01  4570.58  4626.07  4628.57
                             4640.75  4648.55  4649.49  5326.49  5389.05

 Zero-point correction=                           0.163490 (Hartree/Particle)
 Thermal correction to Energy=                    0.175880
 Thermal correction to Enthalpy=                  0.176824
 Thermal correction to Gibbs Free Energy=         0.123309
 Sum of electronic and zero-point Energies=           -686.639018
 Sum of electronic and thermal Energies=              -686.626628
 Sum of electronic and thermal Enthalpies=            -686.625684
 Sum of electronic and thermal Free Energies=         -686.679199

                     E (Thermal)             CV                S
                      KCal/Mol        Cal/Mol-Kelvin    Cal/Mol-Kelvin
 Total                  110.366             46.251            112.631
 Electronic               0.000              0.000              0.000
 Translational            0.889              2.981             41.663
 Rotational               0.889              2.981             32.271
 Vibrational            108.589             40.289             38.697
 Vibration     1          0.594              1.981              5.321
 Vibration     2          0.595              1.978              4.872
 Vibration     3          0.598              1.970              4.223
 Vibration     4          0.605              1.946              3.369
 Vibration     5          0.619              1.900              2.641
 Vibration     6          0.626              1.878              2.426
 Vibration     7          0.636              1.846              2.175
 Vibration     8          0.648              1.809              1.948
 Vibration     9          0.691              1.679              1.434
 Vibration    10          0.735              1.552              1.117
 Vibration    11          0.769              1.461              0.948
 Vibration    12          0.777              1.441              0.915
 Vibration    13          0.789              1.411              0.868
 Vibration    14          0.802              1.379              0.821
 Vibration    15          0.872              1.213              0.617
 Vibration    16          0.886              1.180              0.584
 Vibration    17          0.939              1.070              0.482
 Vibration    18          0.957              1.034              0.451

 Optimization completed.
    -- Stationary point found.

 1\1\GINC-NODE313\Freq\RB3LYP\6-31G(d)\C10H8O4\VSC10255\10-Dec-2020\0\\
 #N Geom=AllCheck Guess=TCheck SCRF=Check GenChk RB3LYP/6-31G(d) Freq\\
 CID_919716_JID_4709_neutraal\\0,1\C,-1.1632700098,1.2309215728,-0.1652
 310246\C,0.2005638323,1.0738925962,-0.3880679175\C,0.7003907659,-0.167
 9004313,-0.7965255706\C,-0.1687214404,-1.2566063388,-0.9636469374\C,-1
 .5219303217,-1.0924726661,-0.7257066059\C,-2.0465204463,0.1550588579,-
 0.3394086187\C,-3.5046815914,0.2457143832,-0.0793969098\O,-4.189077128
 8,-0.7545227296,0.1135861471\C,-4.2045476029,1.5668761379,-0.078446137

 Normal termination of Gaussian 16 at Thu Dec 10 10:24:23 2020.

 ----------------------------------------------------------------------
 # B3LYP/6-311++G(d,p) empiricaldispersion=gd3bj scf=xqc pop=npa geom=c
 heck
 ----------------------------------------------------------------------

 ------------------------------------
 CID_919716_JID_4709_Energie_neutraal
 ------------------------------------
 Structure from the checkpoint file:  "JID_4709.chk"
 Charge =  0 Multiplicity = 1

 SCF Done:  E(RB3LYP) =  -687.014124537     A.U. after   16 cycles
 Normal termination of Gaussian 16 at Thu Dec 10 10:26:06 2020.

 ----------------------------------------------------------------------
 # B3LYP/6-311++G(d,p) empiricaldispersion=gd3bj scf=xqc pop=npa geom=c
 heck
 ----------------------------------------------------------------------

 ----------------------------------
 CID_919716_JID_4709_Energie_kation
 ----------------------------------
 Structure from the checkpoint file:  "JID_4709.chk"
 Charge =  1 Multiplicity = 2

 SCF Done:  E(UB3LYP) =  -686.691632861     A.U. after   27 cycles
 Normal termination of Gaussian 16 at Thu Dec 10 10:30:06 2020.
 Gaussian 16:  ES64L-G16RevA.03 25-Dec-2016

 ---------------------------------
 CID_919716_JID_4709_Energie_anion
 ---------------------------------
 Structure from the checkpoint file:  "JID_4709.chk"
 Charge = -1 Multiplicity = 2

                         Standard orientation:
 ---------------------------------------------------------------------
 Center     Atomic      Atomic             Coordinates (Angstroms)
 Number     Number       Type             X           Y           Z
 ---------------------------------------------------------------------
      1          6           0        0.932758   -0.612264   -0.607856
      2          6           0        2.129873   -1.319167   -0.568342
      3          6           0        3.267609   -0.729904   -0.005280
      4          6           0        3.206275    0.576840    0.501894
      5          6           0        2.013456    1.275873    0.444742
      6          6           0        0.852492    0.690686   -0.094216
      7          6           0       -0.382170    1.512480   -0.142417
      8          8           0       -0.348975    2.734061   -0.029494
      9          6           0       -1.725158    0.873637   -0.295857
     10          6           0       -2.090939   -0.284555    0.272405
     11          6           0       -3.463224   -0.834612    0.225277
     12          8           0       -3.781804   -1.894100    0.725858
     13          8           0       -4.341592   -0.046664   -0.444021
     14          8           0        4.463700   -1.371456    0.072737
     15          1           0        0.064443   -1.070754   -1.067044
     16          1           0        2.184438   -2.325041   -0.979119
     17          1           0        4.102502    1.015096    0.927998
     18          1           0        1.948331    2.291521    0.819813
     19          1           0       -2.463650    1.491878   -0.798162
     20          1           0       -1.391879   -0.898592    0.829755
     21          1           0       -5.196910   -0.512883   -0.409012
     22          1           0        4.376270   -2.260030   -0.306965
 ---------------------------------------------------------------------

 SCF Done:  E(UB3LYP) =  -687.055120021     A.U. after   24 cycles

 The electronic state is 2-A.
 Alpha  occ. eigenvalues --  -19.05902 -19.03124 -18.95892 -18.92640 -10.14600
 Alpha  occ. eigenvalues --  -10.12256 -10.07641 -10.06386 -10.05835 -10.05806
 Alpha  occ. eigenvalues --  -10.05106 -10.04544 -10.01928 -10.01722  -0.97080
 Alpha  occ. eigenvalues --   -0.96699  -0.87359  -0.86751  -0.73768  -0.65072
 Alpha  occ. eigenvalues --   -0.63670  -0.62587  -0.53850  -0.51037  -0.49864
 Alpha  occ. eigenvalues --   -0.45244  -0.43759  -0.41902  -0.36643  -0.35350
 Alpha  occ. eigenvalues --   -0.34666  -0.33363  -0.32215  -0.31454  -0.31304
 Alpha  occ. eigenvalues --   -0.30954  -0.28862  -0.27918  -0.26625  -0.25167
 Alpha  occ. eigenvalues --   -0.24771  -0.23120  -0.22155  -0.20772  -0.19144
 Alpha  occ. eigenvalues --   -0.14646  -0.14192  -0.13525  -0.11581  -0.09121
 Alpha  occ. eigenvalues --    0.02118
 Alpha virt. eigenvalues --    0.06530   0.09109   0.09346   0.09609   0.09793
 Alpha virt. eigenvalues --    0.10344   0.12924   0.13131   0.13419   0.14429
 Alpha virt. eigenvalues --    0.15152   0.15968   0.16539   0.17283   0.17742

  Beta  occ. eigenvalues --  -19.05866 -19.03087 -18.95628 -18.92044 -10.14469
  Beta  occ. eigenvalues --  -10.12115 -10.07416 -10.06421 -10.05855 -10.05775
  Beta  occ. eigenvalues --  -10.04989 -10.04573 -10.01734 -10.01500  -0.96984
  Beta  occ. eigenvalues --   -0.96500  -0.86984  -0.85706  -0.73647  -0.64571
  Beta  occ. eigenvalues --   -0.63508  -0.62298  -0.53269  -0.50707  -0.49728
  Beta  occ. eigenvalues --   -0.44835  -0.43653  -0.41572  -0.36541  -0.35059
  Beta  occ. eigenvalues --   -0.34369  -0.33197  -0.32020  -0.31354  -0.30974
  Beta  occ. eigenvalues --   -0.30119  -0.28677  -0.27614  -0.26283  -0.24430
  Beta  occ. eigenvalues --   -0.24023  -0.22924  -0.21910  -0.19389  -0.18171
  Beta  occ. eigenvalues --   -0.14389  -0.13866  -0.11753  -0.10714  -0.08349
  Beta virt. eigenvalues --    0.06526   0.08244   0.09158   0.09597   0.09929
  Beta virt. eigenvalues --    0.10355   0.10980   0.12926   0.13226   0.13432
  Beta virt. eigenvalues --    0.14463   0.15255   0.16198   0.16546   0.17466

 Mulliken charges and spin densities:
               1          2
     1  C   -0.820891   0.018524
     2  C   -0.063580  -0.039331
     3  C   -0.360884   0.084752
     4  C   -0.315437  -0.040624
     5  C    0.169730   0.108488
     6  C    1.325202   0.027329
     7  C   -1.226842   0.128327
     8  O   -0.372089   0.211959
     9  C    0.290987   0.170156
    10  C   -0.152294   0.143551
    11  C   -0.111375   0.116025
    12  O   -0.396766   0.085603
    13  O   -0.220232   0.008567
    14  O   -0.252294   0.007356
    15  H    0.177220  -0.008952
    16  H    0.102470   0.002648
    17  H    0.152459   0.002392
    18  H    0.190506  -0.009369
    19  H    0.222937  -0.003398
    20  H    0.162744  -0.013948
    21  H    0.249233   0.000136
    22  H    0.249195  -0.000188
 Sum of Mulliken charges =  -1.00000   1.00000

 Dipole moment (field-independent basis, Debye):
    X=              4.4027    Y=             -3.7541    Z=             -1.6723  Tot=              6.0227
 Quadrupole moment (field-independent basis, Debye-Ang):
   XX=           -116.5195   YY=           -105.6189   ZZ=            -88.1735
   XY=            -10.6831   XZ=              4.0054   YZ=              6.9934

 Summary of Natural Population Analysis:

                                       Natural Population
                Natural  -----------------------------------------------
    Atom  No    Charge         Core      Valence    Rydberg      Total
 -----------------------------------------------------------------------
      C    1   -0.06788      0.99955     2.06007    0.00827     3.06788
      C    2   -0.16206      0.99953     2.15348    0.00905     3.16206
      C    3    0.17805      0.99941     1.81044    0.01210     2.82195
      C    4   -0.14658      0.99953     2.13805    0.00900     3.14658
      C    5   -0.04891      0.99955     2.04008    0.00928     3.04891
      C    6   -0.07398      0.99948     2.06486    0.00965     3.07398
      C    7    0.26882      0.99960     1.71098    0.02060     2.73118
      O    8   -0.23524      0.99988     3.22865    0.00671     4.23524
      C    9   -0.05566      0.99952     2.04592    0.01022     3.05566
      C   10   -0.11848      0.99948     2.10993    0.00907     3.11848
      C   11    0.39891      0.99969     1.57684    0.02456     2.60109
      O   12   -0.30376      0.99987     3.29669    0.00720     4.30376
      O   13   -0.35550      0.99988     3.34711    0.00851     4.35550
      O   14   -0.34112      0.99988     3.33498    0.00627     4.34112
      H   15    0.10752      0.00000     0.39099    0.00149     0.39248
      H   16    0.09185      0.00000     0.40690    0.00125     0.40815
      H   17    0.09937      0.00000     0.39956    0.00107     0.40063
      H   18    0.10852      0.00000     0.39010    0.00137     0.39148
      H   19    0.10027      0.00000     0.39842    0.00131     0.39973
      H   20    0.09681      0.00000     0.40204    0.00115     0.40319
      H   21    0.23073      0.00000     0.26623    0.00304     0.26927
      H   22    0.22833      0.00000     0.26923    0.00244     0.27167
 =======================================================================
   * Total *    0.00000     13.99484    35.84154    0.16362    50.00000

 Normal termination of Gaussian 16 at Thu Dec 10 10:34:14 2020.
