 Gaussian 16, Revision A.03,

 -----------------------------------------------------------
 # opt freq B3LYP/6-31G(d) empiricaldispersion=gd3bj scf=xqc
 -----------------------------------------------------------

 ------------------------------
 CID_82935094_JID_3050_neutraal
 ------------------------------
 Symbolic Z-matrix:
 Charge =  0 Multiplicity = 1

 SCF Done:  E(RB3LYP) =  -572.825083646     A.U. after   15 cycles
 SCF Done:  E(RB3LYP) =  -572.829689663     A.U. after   12 cycles
 SCF Done:  E(RB3LYP) =  -572.830835933     A.U. after   12 cycles
 SCF Done:  E(RB3LYP) =  -572.831527287     A.U. after   11 cycles
 SCF Done:  E(RB3LYP) =  -572.831928758     A.U. after   11 cycles
 SCF Done:  E(RB3LYP) =  -572.832166503     A.U. after   11 cycles
 SCF Done:  E(RB3LYP) =  -572.832295905     A.U. after   11 cycles
 SCF Done:  E(RB3LYP) =  -572.832380018     A.U. after   11 cycles
 SCF Done:  E(RB3LYP) =  -572.832490585     A.U. after   11 cycles
 SCF Done:  E(RB3LYP) =  -572.832549354     A.U. after   11 cycles
 SCF Done:  E(RB3LYP) =  -572.832769379     A.U. after    8 cycles
 SCF Done:  E(RB3LYP) =  -572.832769989     A.U. after    8 cycles
 SCF Done:  E(RB3LYP) =  -572.832769936     A.U. after    8 cycles
 SCF Done:  E(RB3LYP) =  -572.832769821     A.U. after    7 cycles
 SCF Done:  E(RB3LYP) =  -572.832770353     A.U. after    8 cycles
 SCF Done:  E(RB3LYP) =  -572.832769831     A.U. after    8 cycles
 Optimization completed.
    -- Stationary point found.

 1\1\GINC-NODE310\FOpt\RB3LYP\6-31G(d)\C9H18N4\VSC10255\09-Dec-2020\0\\
 # opt freq B3LYP/6-31G(d) empiricaldispersion=gd3bj scf=xqc\\CID_82935
 094_JID_3050_neutraal\\0,1\C,1.0728282143,0.1955610309,0.1269960324\C,
 0.7265813928,1.5890583684,-0.4035543016\C,1.4048566986,1.9328358862,-1
 .7403359092\C,1.0704233004,0.9523545142,-2.8824572233\C,-0.4203435049,
 0.8006945089,-3.2065173334\C,1.0930784879,3.3767277619,-2.1719176352\N
 ,1.5649415438,4.3624145676,-1.209978346\C,0.8511896681,5.0987646871,-0
 .306441079\C,1.832498242,5.8046037819,0.3692635567\N,3.0525755485,5.46

 Normal termination of Gaussian 16 at Wed Dec  9 22:30:02 2020.

 --------------------------------------------------------------------
 #N Geom=AllCheck Guess=TCheck SCRF=Check GenChk RB3LYP/6-31G(d) Freq
 --------------------------------------------------------------------

 Structure from the checkpoint file:  "JID_3050.chk"
 ------------------------------
 CID_82935094_JID_3050_neutraal
 ------------------------------
 Charge =  0 Multiplicity = 1

 SCF Done:  E(RB3LYP) =  -572.832769831     A.U. after    1 cycles

  Exact polarizability: 145.309 -10.356  97.162  -2.703  -4.437 111.002
 Approx polarizability: 188.038 -20.426 139.764  -3.698 -11.554 185.111

                      1                      2                      3
                      A                      A                      A
 Frequencies --     33.8535                55.7476                63.9628
 Red. masses --      3.5723                 4.1833                 3.2574
 Frc consts  --      0.0024                 0.0077                 0.0079
 IR Inten    --      1.5348                 1.0831                 1.8203

                      4                      5                      6
                      A                      A                      A
 Frequencies --     83.8713               119.8009               133.8744
 Red. masses --      2.3807                 1.8475                 1.0550
 Frc consts  --      0.0099                 0.0156                 0.0111
 IR Inten    --      0.0401                 0.6249                 0.3246

                      7                      8                      9
                      A                      A                      A
 Frequencies --    161.4392               178.4581               210.7681
 Red. masses --      1.4913                 1.8733                 1.7908
 Frc consts  --      0.0229                 0.0352                 0.0469
 IR Inten    --     24.6615                16.6766                 0.3273

                     10                     11                     12
                      A                      A                      A
 Frequencies --    231.5956               240.6201               259.4333
 Red. masses --      1.3079                 1.9714                 2.3959
 Frc consts  --      0.0413                 0.0672                 0.0950
 IR Inten    --      0.0205                 0.0988                 6.2011

                     13                     14                     15
                      A                      A                      A
 Frequencies --    285.0280               291.8785               311.4569
 Red. masses --      2.5325                 3.1935                 1.8609
 Frc consts  --      0.1212                 0.1603                 0.1064
 IR Inten    --      2.3427                 1.1844                 2.7505

                     16                     17                     18
                      A                      A                      A
 Frequencies --    342.5309               365.5321               481.7076
 Red. masses --      2.4232                 3.4807                 2.5410
 Frc consts  --      0.1675                 0.2740                 0.3474
 IR Inten    --      1.9910                 2.2392                 6.6690

                     19                     20                     21
                      A                      A                      A
 Frequencies --    512.1468               528.2986               640.0461
 Red. masses --      3.5241                 2.4571                 4.5949
 Frc consts  --      0.5446                 0.4040                 1.1090
 IR Inten    --      2.1192                 0.3952                 3.1418

                     22                     23                     24
                      A                      A                      A
 Frequencies --    671.5659               708.0417               745.5072
 Red. masses --      5.1365                 7.4910                 4.6032
 Frc consts  --      1.3649                 2.2126                 1.5073
 IR Inten    --     22.9547                 8.2526                 2.1363

                     25                     26                     27
                      A                      A                      A
 Frequencies --    760.5554               783.8709               822.3293
 Red. masses --      1.6581                 1.4942                 2.6090
 Frc consts  --      0.5651                 0.5409                 1.0395
 IR Inten    --      4.7046                 1.2253                20.4638

                     28                     29                     30
                      A                      A                      A
 Frequencies --    832.8325               859.7291               904.6749
 Red. masses --      1.5037                 1.5164                 2.0168
 Frc consts  --      0.6145                 0.6604                 0.9725
 IR Inten    --      5.7492               191.5319                 2.2315

                     31                     32                     33
                      A                      A                      A
 Frequencies --    964.7793               989.3581               992.4725
 Red. masses --      1.4465                 2.0355                 2.1062
 Frc consts  --      0.7933                 1.1739                 1.2224
 IR Inten    --      1.3775                 8.2474                 1.8482

                     34                     35                     36
                      A                      A                      A
 Frequencies --   1035.3847              1038.3724              1074.1896
 Red. masses --      1.7428                 1.5109                 2.2058
 Frc consts  --      1.1008                 0.9598                 1.4996
 IR Inten    --      0.8661                 1.3467                 0.2185

                     37                     38                     39
                      A                      A                      A
 Frequencies --   1080.1605              1113.0358              1136.2950
 Red. masses --      1.4373                 2.1728                 2.1344
 Frc consts  --      0.9880                 1.5860                 1.6237
 IR Inten    --      2.1137                13.1800                 3.1377

                     40                     41                     42
                      A                      A                      A
 Frequencies --   1151.6040              1177.6573              1189.6097
 Red. masses --      2.0050                 3.0063                 2.0557
 Frc consts  --      1.5666                 2.4565                 1.7140
 IR Inten    --      0.6312                 9.7475                 5.0308

                     43                     44                     45
                      A                      A                      A
 Frequencies --   1206.3899              1266.9689              1301.8533
 Red. masses --      2.5501                 2.8501                 1.2971
 Frc consts  --      2.1867                 2.6955                 1.2953
 IR Inten    --      4.8461                27.6679                 2.2109

                     46                     47                     48
                      A                      A                      A
 Frequencies --   1315.4002              1322.7192              1341.0556
 Red. masses --      1.2375                 3.4000                 1.7611
 Frc consts  --      1.2616                 3.5049                 1.8661
 IR Inten    --      2.4652                27.2641                 8.6166

                     49                     50                     51
                      A                      A                      A
 Frequencies --   1358.9032              1377.7606              1393.3084
 Red. masses --      1.3220                 1.3417                 1.4385
 Frc consts  --      1.4383                 1.5006                 1.6453
 IR Inten    --     15.4869                 0.9936                10.2040

                     52                     53                     54
                      A                      A                      A
 Frequencies --   1412.7622              1421.3813              1427.1566
 Red. masses --      3.0639                 1.4497                 1.4915
 Frc consts  --      3.6030                 1.7257                 1.7899
 IR Inten    --     65.2720                 7.2581                 1.8873

                     55                     56                     57
                      A                      A                      A
 Frequencies --   1442.7009              1445.9174              1451.3409
 Red. masses --      1.2402                 1.2986                 1.3911
 Frc consts  --      1.5209                 1.5996                 1.7264
 IR Inten    --      1.5271                 2.8948                11.1530

                     58                     59                     60
                      A                      A                      A
 Frequencies --   1506.7784              1512.4567              1517.8804
 Red. masses --      1.3755                 1.1480                 1.0866
 Frc consts  --      1.8399                 1.5472                 1.4750
 IR Inten    --      1.2558                 8.0229                 3.9956

                     61                     62                     63
                      A                      A                      A
 Frequencies --   1521.7647              1525.5372              1531.7526
 Red. masses --      1.0995                 1.0614                 1.0667
 Frc consts  --      1.5002                 1.4554                 1.4746
 IR Inten    --      2.7639                 2.7948                 8.0668

                     64                     65                     66
                      A                      A                      A
 Frequencies --   1535.1332              1538.3231              1541.6043
 Red. masses --      1.0598                 1.1032                 1.7219
 Frc consts  --      1.4716                 1.5381                 2.4111
 IR Inten    --      2.2999                 3.0682                 6.2977

                     67                     68                     69
                      A                      A                      A
 Frequencies --   1547.4979              1656.1499              1686.0912
 Red. masses --      1.0876                 8.0715                 1.1258
 Frc consts  --      1.5346                13.0438                 1.8857
 IR Inten    --      3.4235                78.3002                37.3010

                     70                     71                     72
                      A                      A                      A
 Frequencies --   3029.6160              3038.9385              3039.8038
 Red. masses --      1.0674                 1.0441                 1.0651
 Frc consts  --      5.7724                 5.6813                 5.7989
 IR Inten    --     20.8049                30.3640                11.3147

                     73                     74                     75
                      A                      A                      A
 Frequencies --   3048.4746              3051.9612              3052.6104
 Red. masses --      1.0452                 1.0503                 1.0578
 Frc consts  --      5.7229                 5.7641                 5.8076
 IR Inten    --     18.2754                44.9274                 6.8175

                     76                     77                     78
                      A                      A                      A
 Frequencies --   3078.0396              3081.8638              3083.6655
 Red. masses --      1.0967                 1.0912                 1.0644
 Frc consts  --      6.1217                 6.1063                 5.9634
 IR Inten    --     11.8060                 8.4541                39.4703

                     79                     80                     81
                      A                      A                      A
 Frequencies --   3096.5907              3114.4744              3115.6293
 Red. masses --      1.0952                 1.1019                 1.1017
 Frc consts  --      6.1877                 6.2975                 6.3008
 IR Inten    --     13.9876                29.0813                48.1151

                     82                     83                     84
                      A                      A                      A
 Frequencies --   3119.7364              3121.9241              3132.9026
 Red. masses --      1.1016                 1.1023                 1.1023
 Frc consts  --      6.3169                 6.3297                 6.3747
 IR Inten    --     77.3542                17.7276                16.9753

                     85                     86                     87
                      A                      A                      A
 Frequencies --   3136.3205              3495.1006              3585.8614
 Red. masses --      1.1027                 1.0497                 1.0933
 Frc consts  --      6.3905                 7.5548                 8.2826
 IR Inten    --      9.3005                 2.9492                11.7029

 - Thermochemistry -
 -------------------
 Temperature   298.150 Kelvin.  Pressure   1.00000 Atm.
 Atom     1 has atomic number  6 and mass  12.00000

 Molecular mass:   182.15315 amu.
 Principal axes and moments of inertia in atomic units:
                           1         2         3
     Eigenvalues --  1256.590324322.856954338.40730
           X            0.99995  -0.00565   0.00835
           Y           -0.00291   0.63129   0.77554
           Z            0.00966   0.77553  -0.63124
 This molecule is an asymmetric top.
 Rotational symmetry number  1.
 Warning -- assumption of classical behavior for rotation
           may cause significant error
 Rotational temperatures (Kelvin)      0.06893     0.02004     0.01996
 Rotational constants (GHZ):           1.43622     0.41749     0.41599
 Zero-point vibrational energy     724304.0 (Joules/Mol)
                                  173.11282 (Kcal/Mol)
 Warning -- explicit consideration of  20 degrees of freedom as
           vibrations may cause significant error
 Vibrational temperatures:     48.71    80.21    92.03   120.67   172.37
          (Kelvin)            192.62   232.27   256.76   303.25   333.21
                              346.20   373.27   410.09   419.95   448.12
                              492.83   525.92   693.07   736.87   760.10
                              920.88   966.23  1018.71  1072.62  1094.27
                             1127.82  1183.15  1198.26  1236.96  1301.63
                             1388.10  1423.47  1427.95  1489.69  1493.99
                             1545.52  1554.11  1601.41  1634.88  1656.90
                             1694.39  1711.58  1735.73  1822.89  1873.08
                             1892.57  1903.10  1929.48  1955.16  1982.29
                             2004.66  2032.65  2045.05  2053.36  2075.72
                             2080.35  2088.16  2167.92  2176.09  2183.89
                             2189.48  2194.91  2203.85  2208.71  2213.30
                             2218.02  2226.50  2382.83  2425.91  4358.94
                             4372.35  4373.60  4386.07  4391.09  4392.03
                             4428.61  4434.11  4436.71  4455.30  4481.03
                             4482.70  4488.60  4491.75  4507.55  4512.47
                             5028.67  5159.25

 Zero-point correction=                           0.275873 (Hartree/Particle)
 Thermal correction to Energy=                    0.290656
 Thermal correction to Enthalpy=                  0.291600
 Thermal correction to Gibbs Free Energy=         0.233704
 Sum of electronic and zero-point Energies=           -572.556897
 Sum of electronic and thermal Energies=              -572.542114
 Sum of electronic and thermal Enthalpies=            -572.541170
 Sum of electronic and thermal Free Energies=         -572.599066

                     E (Thermal)             CV                S
                      KCal/Mol        Cal/Mol-Kelvin    Cal/Mol-Kelvin
 Total                  182.389             53.785            121.852
 Electronic               0.000              0.000              0.000
 Translational            0.889              2.981             41.506
 Rotational               0.889              2.981             31.533
 Vibrational            180.612             47.824             48.813
 Vibration     1          0.594              1.983              5.590
 Vibration     2          0.596              1.975              4.602
 Vibration     3          0.597              1.972              4.331
 Vibration     4          0.601              1.960              3.798
 Vibration     5          0.609              1.933              3.104
 Vibration     6          0.613              1.920              2.890
 Vibration     7          0.622              1.890              2.533
 Vibration     8          0.629              1.869              2.344
 Vibration     9          0.643              1.824              2.037
 Vibration    10          0.653              1.793              1.867
 Vibration    11          0.658              1.778              1.798
 Vibration    12          0.668              1.747              1.666
 Vibration    13          0.683              1.701              1.503
 Vibration    14          0.687              1.689              1.463
 Vibration    15          0.700              1.652              1.355
 Vibration    16          0.722              1.590              1.200
 Vibration    17          0.739              1.543              1.098
 Vibration    18          0.838              1.291              0.705
 Vibration    19          0.867              1.223              0.628
 Vibration    20          0.883              1.187              0.591

 Optimization completed.
    -- Stationary point found.

 1\1\GINC-NODE310\Freq\RB3LYP\6-31G(d)\C9H18N4\VSC10255\09-Dec-2020\0\\
 #N Geom=AllCheck Guess=TCheck SCRF=Check GenChk RB3LYP/6-31G(d) Freq\\
 CID_82935094_JID_3050_neutraal\\0,1\C,1.0728282143,0.1955610309,0.1269
 960324\C,0.7265813928,1.5890583684,-0.4035543016\C,1.4048566986,1.9328
 358862,-1.7403359092\C,1.0704233004,0.9523545142,-2.8824572233\C,-0.42
 03435049,0.8006945089,-3.2065173334\C,1.0930784879,3.3767277619,-2.171
 9176352\N,1.5649415438,4.3624145676,-1.209978346\C,0.8511896681,5.0987
 646871,-0.306441079\C,1.832498242,5.8046037819,0.3692635567\N,3.052575

 Normal termination of Gaussian 16 at Wed Dec  9 22:38:01 2020.

 ----------------------------------------------------------------------
 # B3LYP/6-311++G(d,p) empiricaldispersion=gd3bj scf=xqc pop=npa geom=c
 heck
 ----------------------------------------------------------------------

 --------------------------------------
 CID_82935094_JID_3050_Energie_neutraal
 --------------------------------------
 Structure from the checkpoint file:  "JID_3050.chk"
 Charge =  0 Multiplicity = 1

 SCF Done:  E(RB3LYP) =  -572.995575885     A.U. after   14 cycles
 Normal termination of Gaussian 16 at Wed Dec  9 22:41:05 2020.

 ----------------------------------------------------------------------
 # B3LYP/6-311++G(d,p) empiricaldispersion=gd3bj scf=xqc pop=npa geom=c
 heck
 ----------------------------------------------------------------------

 ------------------------------------
 CID_82935094_JID_3050_Energie_kation
 ------------------------------------
 Structure from the checkpoint file:  "JID_3050.chk"
 Charge =  1 Multiplicity = 2

 SCF Done:  E(UB3LYP) =  -572.701769192     A.U. after   22 cycles
 Normal termination of Gaussian 16 at Wed Dec  9 22:47:35 2020.
 Gaussian 16:  ES64L-G16RevA.03 25-Dec-2016

 -----------------------------------
 CID_82935094_JID_3050_Energie_anion
 -----------------------------------
 Structure from the checkpoint file:  "JID_3050.chk"
 Charge = -1 Multiplicity = 2

                         Standard orientation:
 ---------------------------------------------------------------------
 Center     Atomic      Atomic             Coordinates (Angstroms)
 Number     Number       Type             X           Y           Z
 ---------------------------------------------------------------------
      1          6           0        2.438344    2.319012    0.380557
      2          6           0        1.500101    1.119692    0.537202
      3          6           0        1.632124    0.075026   -0.583721
      4          6           0        3.049610   -0.515026   -0.725848
      5          6           0        3.612781   -1.189008    0.530731
      6          6           0        0.600527   -1.055251   -0.420702
      7          7           0       -0.771806   -0.572039   -0.473321
      8          6           0       -1.667242   -0.400464    0.544908
      9          6           0       -2.770119    0.140979   -0.094040
     10          7           0       -2.494034    0.284991   -1.418815
     11          7           0       -1.272208   -0.136870   -1.646402
     12          7           0       -3.984937    0.557166    0.477395
     13          6           0       -1.431118   -0.735922    1.977106
     14          1           0        3.491134    2.030160    0.471267
     15          1           0        2.236353    3.075053    1.146830
     16          1           0        2.305929    2.793512   -0.599088
     17          1           0        1.675721    0.641414    1.511066
     18          1           0        0.464419    1.478931    0.554240
     19          1           0        1.387721    0.572055   -1.531804
     20          1           0        3.041934   -1.238933   -1.551925
     21          1           0        3.731372    0.284502   -1.037744
     22          1           0        2.983270   -2.019616    0.870504
     23          1           0        4.609931   -1.596855    0.333576
     24          1           0        3.705571   -0.482046    1.362268
     25          1           0        0.719038   -1.789959   -1.222564
     26          1           0        0.724825   -1.574344    0.533233
     27          1           0       -4.514558   -0.218803    0.866318
     28          1           0       -4.553269    1.002967   -0.238065
     29          1           0       -0.481777   -0.329070    2.342488
     30          1           0       -2.233516   -0.297658    2.577781
     31          1           0       -1.423248   -1.818269    2.162454
 ---------------------------------------------------------------------

 SCF Done:  E(UB3LYP) =  -572.985226165     A.U. after   30 cycles

 The electronic state is 2-A.
 Alpha  occ. eigenvalues --  -14.29569 -14.25871 -14.22436 -14.21643 -10.12032
 Alpha  occ. eigenvalues --  -10.11982 -10.11237 -10.08576 -10.07994 -10.07701
 Alpha  occ. eigenvalues --  -10.07344 -10.07068 -10.06367  -0.99175  -0.82955
 Alpha  occ. eigenvalues --   -0.79788  -0.72932  -0.69857  -0.65843  -0.63891
 Alpha  occ. eigenvalues --   -0.61531  -0.57426  -0.53366  -0.51234  -0.48971
 Alpha  occ. eigenvalues --   -0.45750  -0.42592  -0.39985  -0.39096  -0.38084
 Alpha  occ. eigenvalues --   -0.36685  -0.35256  -0.33935  -0.32841  -0.32501
 Alpha  occ. eigenvalues --   -0.31757  -0.31299  -0.30066  -0.29781  -0.27932
 Alpha  occ. eigenvalues --   -0.26740  -0.26178  -0.24335  -0.23788  -0.23170
 Alpha  occ. eigenvalues --   -0.22586  -0.21438  -0.17661  -0.17066  -0.11936
 Alpha  occ. eigenvalues --    0.04092
 Alpha virt. eigenvalues --    0.05896   0.07057   0.07406   0.08384   0.08590
 Alpha virt. eigenvalues --    0.09457   0.09671   0.10387   0.10732   0.11123
 Alpha virt. eigenvalues --    0.11793   0.12115   0.12535   0.13400   0.13677

  Beta  occ. eigenvalues --  -14.29566 -14.25866 -14.22431 -14.21601 -10.12013
  Beta  occ. eigenvalues --  -10.11980 -10.11234 -10.08576 -10.07942 -10.07689
  Beta  occ. eigenvalues --  -10.07326 -10.07051 -10.06322  -0.99165  -0.82926
  Beta  occ. eigenvalues --   -0.79749  -0.72912  -0.69821  -0.65808  -0.63857
  Beta  occ. eigenvalues --   -0.61463  -0.57378  -0.53302  -0.51204  -0.48931
  Beta  occ. eigenvalues --   -0.45703  -0.42556  -0.39932  -0.39070  -0.38047
  Beta  occ. eigenvalues --   -0.36653  -0.35218  -0.33905  -0.32795  -0.32463
  Beta  occ. eigenvalues --   -0.31728  -0.31256  -0.30028  -0.29734  -0.27886
  Beta  occ. eigenvalues --   -0.26710  -0.26144  -0.24306  -0.23758  -0.23147
  Beta  occ. eigenvalues --   -0.22560  -0.21408  -0.17640  -0.17047  -0.11904
  Beta virt. eigenvalues --    0.06341   0.06936   0.07560   0.08058   0.08625
  Beta virt. eigenvalues --    0.08977   0.09867   0.10126   0.10836   0.11083
  Beta virt. eigenvalues --    0.11534   0.12123   0.12453   0.12959   0.13677

 Mulliken charges and spin densities:
               1          2
     1  C   -0.001081  -0.716716
     2  C   -0.592722   0.277034
     3  C    0.647606   0.092006
     4  C   -0.979176   0.565215
     5  C    1.164894  -1.727526
     6  C   -0.691818  -0.138090
     7  N    0.329536   0.053636
     8  C   -0.788174   0.908625
     9  C   -0.709658   0.351844
    10  N   -0.100788   0.010245
    11  N   -0.145771   0.021009
    12  N   -0.378781   0.030281
    13  C    2.667286  -3.292604
    14  H    0.094556   0.051624
    15  H   -0.076748   0.213837
    16  H    0.028700   0.113938
    17  H   -0.050517   0.220693
    18  H    0.245267  -0.064188
    19  H    0.239209  -0.016408
    20  H    0.102856   0.031274
    21  H   -0.104611   0.254806
    22  H   -0.578496   0.727966
    23  H   -0.420676   0.565879
    24  H   -0.192769   0.341315
    25  H   -0.178371   0.378683
    26  H    0.649591  -0.460323
    27  H   -0.239080   0.496509
    28  H    0.088024   0.159319
    29  H   -0.248207   0.393574
    30  H   -0.164393   0.335226
    31  H   -0.615688   0.821317
 Sum of Mulliken charges =  -1.00000   1.00000

 Dipole moment (field-independent basis, Debye):
    X=              0.8246    Y=              2.9685    Z=             -3.5643  Tot=              4.7113
 Quadrupole moment (field-independent basis, Debye-Ang):
   XX=           -159.7616   YY=           -118.8755   ZZ=           -127.1260
   XY=              5.1319   XZ=             -3.1026   YZ=              6.2319

 Summary of Natural Population Analysis:

                                       Natural Population
                Natural  -----------------------------------------------
    Atom  No    Charge         Core      Valence    Rydberg      Total
 -----------------------------------------------------------------------
      C    1   -0.28521      0.99967     2.28041    0.00513     3.28521
      C    2   -0.19559      0.99962     2.18770    0.00828     3.19559
      C    3   -0.11247      0.99958     2.10324    0.00965     3.11247
      C    4   -0.19020      0.99962     2.18143    0.00915     3.19020
      C    5   -0.28972      0.99966     2.28465    0.00540     3.28972
      C    6   -0.08380      0.99958     2.07212    0.01211     3.08380
      N    7   -0.10140      0.99962     2.58825    0.01352     3.60140
      C    8    0.05678      0.99946     1.93090    0.01286     2.94322
      C    9    0.12999      0.99946     1.85424    0.01631     2.87001
      N   10   -0.16013      0.99971     2.64668    0.01374     3.66013
      N   11   -0.05494      0.99978     2.53991    0.01525     3.55494
      N   12   -0.41023      0.99973     2.90020    0.01031     3.91023
      C   13   -0.30523      0.99964     2.29967    0.00591     3.30523
      H   14    0.09708      0.00000     0.40205    0.00087     0.40292
      H   15    0.09977      0.00000     0.39953    0.00070     0.40023
      H   16    0.09508      0.00000     0.40412    0.00080     0.40492
      H   17    0.09707      0.00000     0.40134    0.00159     0.40293
      H   18    0.10145      0.00000     0.39719    0.00136     0.39855
      H   19    0.10237      0.00000     0.39576    0.00187     0.39763
      H   20    0.09582      0.00000     0.40313    0.00105     0.40418
      H   21    0.09786      0.00000     0.40111    0.00103     0.40214
      H   22    0.09833      0.00000     0.40001    0.00166     0.40167
      H   23    0.10107      0.00000     0.39774    0.00119     0.39893
      H   24    0.09879      0.00000     0.39990    0.00131     0.40121
      H   25    0.10569      0.00000     0.39283    0.00148     0.39431
      H   26    0.10644      0.00000     0.39193    0.00163     0.39356
      H   27    0.18575      0.00000     0.31090    0.00335     0.31425
      H   28    0.18441      0.00000     0.31352    0.00207     0.31559
      H   29    0.10972      0.00000     0.38851    0.00176     0.39028
      H   30    0.11521      0.00000     0.38325    0.00154     0.38479
      H   31    0.11025      0.00000     0.38762    0.00213     0.38975
 =======================================================================
   * Total *   -0.00000     12.99513    36.83984    0.16503    50.00000

 Normal termination of Gaussian 16 at Wed Dec  9 22:56:26 2020.
