 Gaussian 16, Revision A.03,

 -----------------------------------------------------------
 # opt freq B3LYP/6-31G(d) empiricaldispersion=gd3bj scf=xqc
 -----------------------------------------------------------

 ------------------------------
 CID_65248185_JID_5726_neutraal
 ------------------------------
 Symbolic Z-matrix:
 Charge =  0 Multiplicity = 1

 SCF Done:  E(RB3LYP) =  -690.033105540     A.U. after   15 cycles
 SCF Done:  E(RB3LYP) =  -690.035030048     A.U. after   13 cycles
 SCF Done:  E(RB3LYP) =  -690.035935693     A.U. after   14 cycles
 SCF Done:  E(RB3LYP) =  -690.034527145     A.U. after   13 cycles
 SCF Done:  E(RB3LYP) =  -690.037932017     A.U. after   12 cycles
 SCF Done:  E(RB3LYP) =  -690.037207504     A.U. after   13 cycles
 SCF Done:  E(RB3LYP) =  -690.037503535     A.U. after   12 cycles
 SCF Done:  E(RB3LYP) =  -690.038465620     A.U. after    9 cycles
 SCF Done:  E(RB3LYP) =  -690.038804473     A.U. after   11 cycles
 SCF Done:  E(RB3LYP) =  -690.038219483     A.U. after   12 cycles
 SCF Done:  E(RB3LYP) =  -690.040022052     A.U. after    9 cycles
 SCF Done:  E(RB3LYP) =  -690.040023694     A.U. after    9 cycles
 SCF Done:  E(RB3LYP) =  -690.040023705     A.U. after    6 cycles
 SCF Done:  E(RB3LYP) =  -690.040023720     A.U. after    6 cycles
 Optimization completed.
    -- Stationary point found.
 Normal termination of Gaussian 16 at Thu Dec 10 17:12:40 2020.

 --------------------------------------------------------------------
 #N Geom=AllCheck Guess=TCheck SCRF=Check GenChk RB3LYP/6-31G(d) Freq
 --------------------------------------------------------------------

 Structure from the checkpoint file:  "JID_5726.chk"
 ------------------------------
 CID_65248185_JID_5726_neutraal
 ------------------------------
 Charge =  0 Multiplicity = 1

 SCF Done:  E(RB3LYP) =  -690.040023720     A.U. after    1 cycles

  Exact polarizability: 138.816  10.819 130.619  17.266  -4.228 111.001
 Approx polarizability: 183.700  19.971 202.966  30.431 -14.989 177.086

                      1                      2                      3
                      A                      A                      A
 Frequencies --     42.5295                61.7794                71.0583
 Red. masses --      5.5194                 3.2008                 4.1177
 Frc consts  --      0.0059                 0.0072                 0.0122
 IR Inten    --      0.7959                 0.2128                 0.7580

                      4                      5                      6
                      A                      A                      A
 Frequencies --     84.1501               118.3656               128.1184
 Red. masses --      1.1256                 5.4009                 3.6281
 Frc consts  --      0.0047                 0.0446                 0.0351
 IR Inten    --      0.7120                 4.8339                 0.3260

                      7                      8                      9
                      A                      A                      A
 Frequencies --    161.0192               183.4976               202.8571
 Red. masses --      1.2499                 3.2775                 2.4761
 Frc consts  --      0.0191                 0.0650                 0.0600
 IR Inten    --      0.1243                 3.1461                 2.1019

                     10                     11                     12
                      A                      A                      A
 Frequencies --    237.0099               253.1135               256.6199
 Red. masses --      3.3621                 1.7933                 1.4175
 Frc consts  --      0.1113                 0.0677                 0.0550
 IR Inten    --      4.5982                 0.4156                 0.4016

                     13                     14                     15
                      A                      A                      A
 Frequencies --    273.7558               287.0504               298.5242
 Red. masses --      2.3803                 1.6527                 2.5576
 Frc consts  --      0.1051                 0.0802                 0.1343
 IR Inten    --      2.7691                 0.4981                 1.2329

                     16                     17                     18
                      A                      A                      A
 Frequencies --    322.9276               348.5881               364.8463
 Red. masses --      1.5001                 3.5346                 2.6736
 Frc consts  --      0.0922                 0.2531                 0.2097
 IR Inten    --      0.6710                 0.4135                 3.2487

                     19                     20                     21
                      A                      A                      A
 Frequencies --    386.9664               476.1496               499.0342
 Red. masses --      2.2745                 2.3317                 4.2973
 Frc consts  --      0.2007                 0.3115                 0.6305
 IR Inten    --      0.3844                 4.2278                 9.1775

                     22                     23                     24
                      A                      A                      A
 Frequencies --    525.5360               565.2504               599.7312
 Red. masses --      2.8840                 3.3707                 3.6775
 Frc consts  --      0.4693                 0.6345                 0.7793
 IR Inten    --     19.1518                15.4906                 8.6051

                     25                     26                     27
                      A                      A                      A
 Frequencies --    615.0146               641.0743               676.2103
 Red. masses --      1.4032                 4.8259                 3.3066
 Frc consts  --      0.3127                 1.1685                 0.8908
 IR Inten    --     87.1971                 1.5247                 2.1587

                     28                     29                     30
                      A                      A                      A
 Frequencies --    681.3782               725.6313               770.8525
 Red. masses --      4.4554                 3.0088                 3.2866
 Frc consts  --      1.2187                 0.9334                 1.1506
 IR Inten    --      2.0658                16.1218                42.0516

                     31                     32                     33
                      A                      A                      A
 Frequencies --    790.3882               795.4666               840.5520
 Red. masses --      1.3632                 3.3187                 2.4511
 Frc consts  --      0.5017                 1.2373                 1.0203
 IR Inten    --     19.8656                 8.5167                13.3165

                     34                     35                     36
                      A                      A                      A
 Frequencies --    923.7728               959.1601               974.8175
 Red. masses --      2.1293                 1.9346                 1.4967
 Frc consts  --      1.0706                 1.0486                 0.8380
 IR Inten    --      7.4250                 3.0878                 3.0330

                     37                     38                     39
                      A                      A                      A
 Frequencies --   1001.8625              1012.9097              1025.6963
 Red. masses --      1.7146                 1.5675                 1.7965
 Frc consts  --      1.0140                 0.9475                 1.1136
 IR Inten    --      5.6451                 4.1652                 2.6670

                     40                     41                     42
                      A                      A                      A
 Frequencies --   1030.6321              1054.8568              1075.7915
 Red. masses --      1.7417                 2.0408                 2.2352
 Frc consts  --      1.0900                 1.3380                 1.5242
 IR Inten    --      2.5010                 5.5206                 2.0317

                     43                     44                     45
                      A                      A                      A
 Frequencies --   1076.5021              1082.0350              1138.0067
 Red. masses --      1.4932                 1.4719                 2.2470
 Frc consts  --      1.0195                 1.0153                 1.7145
 IR Inten    --      1.4213                 6.3241                 8.8590

                     46                     47                     48
                      A                      A                      A
 Frequencies --   1171.8492              1180.5528              1207.8174
 Red. masses --      2.9815                 1.5498                 2.3402
 Frc consts  --      2.4123                 1.2726                 2.0114
 IR Inten    --    138.8025                 3.7775                28.4789

                     49                     50                     51
                      A                      A                      A
 Frequencies --   1232.9695              1254.8614              1271.3029
 Red. masses --      1.9387                 2.4944                 3.1019
 Frc consts  --      1.7365                 2.3143                 2.9538
 IR Inten    --     12.1694                22.1526                 5.8661

                     52                     53                     54
                      A                      A                      A
 Frequencies --   1313.0859              1349.1841              1391.2743
 Red. masses --      1.4274                 1.8352                 2.4043
 Frc consts  --      1.4500                 1.9682                 2.7420
 IR Inten    --      5.0663                10.7675                 4.3334

                     55                     56                     57
                      A                      A                      A
 Frequencies --   1402.0700              1412.8711              1427.0763
 Red. masses --      1.4282                 1.9085                 1.4162
 Frc consts  --      1.6542                 2.2447                 1.6993
 IR Inten    --      2.9261                67.1839                 0.7906

                     58                     59                     60
                      A                      A                      A
 Frequencies --   1427.5325              1437.1805              1441.0063
 Red. masses --      1.4649                 1.5111                 1.3067
 Frc consts  --      1.7588                 1.8390                 1.5987
 IR Inten    --     15.1475                 5.9593                 7.0022

                     61                     62                     63
                      A                      A                      A
 Frequencies --   1459.8188              1482.0560              1501.2892
 Red. masses --      1.2648                 2.2443                 1.2837
 Frc consts  --      1.5880                 2.9044                 1.7047
 IR Inten    --     22.4285                32.7979                 2.8081

                     64                     65                     66
                      A                      A                      A
 Frequencies --   1509.1099              1512.9228              1513.6787
 Red. masses --      1.2151                 1.5630                 1.0466
 Frc consts  --      1.6304                 2.1078                 1.4128
 IR Inten    --      2.1642                17.5617                 4.8426

                     67                     68                     69
                      A                      A                      A
 Frequencies --   1519.8257              1521.1875              1526.6008
 Red. masses --      1.1055                 1.0674                 1.0521
 Frc consts  --      1.5045                 1.4552                 1.4446
 IR Inten    --     12.9034                 9.1493                 8.0352

                     70                     71                     72
                      A                      A                      A
 Frequencies --   1534.0596              1535.2797              1546.8275
 Red. masses --      1.0527                 1.3590                 1.5763
 Frc consts  --      1.4596                 1.8873                 2.2221
 IR Inten    --      2.3416                 2.7879                 2.6338

                     73                     74                     75
                      A                      A                      A
 Frequencies --   1557.8082              1615.8179              1811.8382
 Red. masses --      1.0654                 5.3490                 9.4200
 Frc consts  --      1.5233                 8.2282                18.2196
 IR Inten    --      9.8007                37.8754               185.5802

                     76                     77                     78
                      A                      A                      A
 Frequencies --   3046.4967              3050.9766              3051.2174
 Red. masses --      1.0383                 1.0418                 1.0479
 Frc consts  --      5.6780                 5.7138                 5.7479
 IR Inten    --     42.9899                 9.9593                17.7620

                     79                     80                     81
                      A                      A                      A
 Frequencies --   3051.3777              3057.1578              3067.0384
 Red. masses --      1.0463                 1.0449                 1.0693
 Frc consts  --      5.7401                 5.7540                 5.9265
 IR Inten    --      5.9314                52.3653                59.5600

                     82                     83                     84
                      A                      A                      A
 Frequencies --   3095.7967              3110.7980              3113.0460
 Red. masses --      1.1010                 1.0986                 1.0973
 Frc consts  --      6.2168                 6.2639                 6.2654
 IR Inten    --     22.9905                 5.8926                 8.1753

                     85                     86                     87
                      A                      A                      A
 Frequencies --   3118.7285              3123.8679              3140.2737
 Red. masses --      1.1010                 1.0999                 1.1007
 Frc consts  --      6.3097                 6.3240                 6.3952
 IR Inten    --      1.0013                45.9028                15.9955

                     88                     89                     90
                      A                      A                      A
 Frequencies --   3140.9085              3143.0761              3151.6089
 Red. masses --      1.1025                 1.0997                 1.0961
 Frc consts  --      6.4085                 6.4009                 6.4146
 IR Inten    --     13.6527                11.7346                 9.8750

                     91                     92                     93
                      A                      A                      A
 Frequencies --   3160.4811              3259.9721              3682.5499
 Red. masses --      1.1010                 1.0969                 1.0638
 Frc consts  --      6.4795                 6.8683                 8.4994
 IR Inten    --      0.9987                 4.5531                37.5051

 - Thermochemistry -
 -------------------
 Temperature   298.150 Kelvin.  Pressure   1.00000 Atm.
 Atom     1 has atomic number  6 and mass  12.00000

 Molecular mass:   210.13683 amu.
 Principal axes and moments of inertia in atomic units:
                           1         2         3
     Eigenvalues --  1998.731053553.688413933.74652
           X            0.99959   0.00986   0.02687
           Y           -0.00939   0.99981  -0.01735
           Z           -0.02704   0.01709   0.99949
 This molecule is an asymmetric top.
 Rotational symmetry number  1.
 Warning -- assumption of classical behavior for rotation
           may cause significant error
 Rotational temperatures (Kelvin)      0.04333     0.02437     0.02202
 Rotational constants (GHZ):           0.90294     0.50785     0.45878
 Zero-point vibrational energy     749312.2 (Joules/Mol)
                                  179.08991 (Kcal/Mol)
 Warning -- explicit consideration of  25 degrees of freedom as
           vibrations may cause significant error
 Vibrational temperatures:     61.19    88.89   102.24   121.07   170.30
          (Kelvin)            184.33   231.67   264.01   291.87   341.00
                              364.17   369.22   393.87   413.00   429.51
                              464.62   501.54   524.93   556.76   685.07
                              718.00   756.13   813.27   862.88   884.87
                              922.36   972.92   980.35  1044.02  1109.08
                             1137.19  1144.50  1209.37  1329.10  1380.02
                             1402.54  1441.46  1457.35  1475.75  1482.85
                             1517.70  1547.82  1548.85  1556.81  1637.34
                             1686.03  1698.55  1737.78  1773.97  1805.47
                             1829.12  1889.24  1941.18  2001.73  2017.27
                             2032.81  2053.24  2053.90  2067.78  2073.29
                             2100.35  2132.35  2160.02  2171.27  2176.76
                             2177.85  2186.69  2188.65  2196.44  2207.17
                             2208.93  2225.54  2241.34  2324.80  2606.83
                             4383.23  4389.67  4390.02  4390.25  4398.57
                             4412.78  4454.16  4475.74  4478.98  4487.15
                             4494.55  4518.15  4519.07  4522.19  4534.46
                             4547.23  4690.37  5298.37

 Zero-point correction=                           0.285398 (Hartree/Particle)
 Thermal correction to Energy=                    0.301393
 Thermal correction to Enthalpy=                  0.302337
 Thermal correction to Gibbs Free Energy=         0.242702
 Sum of electronic and zero-point Energies=           -689.754626
 Sum of electronic and thermal Energies=              -689.738631
 Sum of electronic and thermal Enthalpies=            -689.737687
 Sum of electronic and thermal Free Energies=         -689.797322

                     E (Thermal)             CV                S
                      KCal/Mol        Cal/Mol-Kelvin    Cal/Mol-Kelvin
 Total                  189.127             60.213            125.512
 Electronic               0.000              0.000              0.000
 Translational            0.889              2.981             41.932
 Rotational               0.889              2.981             31.702
 Vibrational            187.349             54.251             51.878
 Vibration     1          0.595              1.980              5.138
 Vibration     2          0.597              1.973              4.400
 Vibration     3          0.598              1.968              4.124
 Vibration     4          0.601              1.960              3.792
 Vibration     5          0.609              1.934              3.127
 Vibration     6          0.611              1.925              2.974
 Vibration     7          0.622              1.890              2.538
 Vibration     8          0.631              1.862              2.293
 Vibration     9          0.639              1.836              2.107
 Vibration    10          0.656              1.784              1.825
 Vibration    11          0.664              1.758              1.709
 Vibration    12          0.666              1.752              1.685
 Vibration    13          0.676              1.722              1.572
 Vibration    14          0.684              1.698              1.491
 Vibration    15          0.692              1.676              1.425
 Vibration    16          0.708              1.630              1.295
 Vibration    17          0.726              1.578              1.173
 Vibration    18          0.738              1.545              1.101
 Vibration    19          0.755              1.498              1.012
 Vibration    20          0.833              1.303              0.721
 Vibration    21          0.854              1.252              0.661
 Vibration    22          0.880              1.193              0.597
 Vibration    23          0.921              1.106              0.513
 Vibration    24          0.958              1.032              0.450
 Vibration    25          0.975              1.000              0.425

 Optimization completed.
    -- Stationary point found.
 Normal termination of Gaussian 16 at Thu Dec 10 17:26:06 2020.

 ----------------------------------------------------------------------
 # B3LYP/6-311++G(d,p) empiricaldispersion=gd3bj scf=xqc pop=npa geom=c
 heck
 ----------------------------------------------------------------------

 --------------------------------------
 CID_65248185_JID_5726_Energie_neutraal
 --------------------------------------
 Structure from the checkpoint file:  "JID_5726.chk"
 Charge =  0 Multiplicity = 1

 SCF Done:  E(RB3LYP) =  -690.238320574     A.U. after   16 cycles
 Normal termination of Gaussian 16 at Thu Dec 10 17:31:24 2020.

 ----------------------------------------------------------------------
 # B3LYP/6-311++G(d,p) empiricaldispersion=gd3bj scf=xqc pop=npa geom=c
 heck
 ----------------------------------------------------------------------

 ------------------------------------
 CID_65248185_JID_5726_Energie_kation
 ------------------------------------
 Structure from the checkpoint file:  "JID_5726.chk"
 Charge =  1 Multiplicity = 2

 SCF Done:  E(UB3LYP) =  -689.931169207     A.U. after   33 cycles
 SCF Done:  E(UB3LYP) =  -689.931882578     a.u. after    9 cycles
 Normal termination of Gaussian 16 at Thu Dec 10 18:58:51 2020.
 Gaussian 16:  ES64L-G16RevA.03 25-Dec-2016

 ----------------------------------------------------------------------
 # B3LYP/6-311++G(d,p) empiricaldispersion=gd3bj scf=xqc pop=npa geom=c
 heck
 ----------------------------------------------------------------------

 -----------------------------------
 CID_65248185_JID_5726_Energie_anion
 -----------------------------------
 Structure from the checkpoint file:  "JID_5726.chk"
 Charge = -1 Multiplicity = 2

                         Standard orientation:
 ---------------------------------------------------------------------
 Center     Atomic      Atomic             Coordinates (Angstroms)
 Number     Number       Type             X           Y           Z
 ---------------------------------------------------------------------
      1          6           0        0.967207   -2.687002    0.456916
      2          6           0        1.439630   -1.319693    0.088280
      3          6           0        2.460962   -0.542604    0.606315
      4          6           0        2.424238    0.673984   -0.118662
      5          7           0        1.448950    0.654944   -1.026035
      6          7           0        0.849573   -0.560107   -0.882525
      7          6           0       -0.286771   -0.881396   -1.731234
      8          6           0       -1.645601   -0.886519   -1.015401
      9          6           0       -1.983028    0.371727   -0.177740
     10          6           0       -1.767001    1.667244   -0.971818
     11          6           0       -3.459744    0.265605    0.267793
     12          6           0       -1.157578    0.312223    1.109629
     13          8           0       -1.126213   -0.652950    1.848989
     14          8           0       -0.496743    1.451716    1.397090
     15          6           0        3.303770    1.877606    0.020514
     16          1           0        0.050302   -2.633389    1.053993
     17          1           0        1.731008   -3.194927    1.051578
     18          1           0        0.766303   -3.302693   -0.428018
     19          1           0        3.147161   -0.826927    1.392133
     20          1           0       -0.266961   -0.135213   -2.526583
     21          1           0       -0.122090   -1.861791   -2.193363
     22          1           0       -2.415385   -1.000970   -1.789407
     23          1           0       -1.721436   -1.760369   -0.361587
     24          1           0       -2.345516    1.624494   -1.902661
     25          1           0       -2.112716    2.533284   -0.399732
     26          1           0       -0.713576    1.820662   -1.214675
     27          1           0       -3.633882   -0.659365    0.824765
     28          1           0       -3.735240    1.110605    0.908308
     29          1           0       -4.114256    0.279366   -0.610507
     30          1           0        0.008457    1.265279    2.210977
     31          1           0        3.011677    2.635621   -0.710916
     32          1           0        3.224918    2.318792    1.021721
     33          1           0        4.358714    1.626507   -0.142287
 ---------------------------------------------------------------------

 SCF Done:  E(UB3LYP) =  -690.223365300     A.U. after   33 cycles
 SCF Done:  E(UB3LYP) =  -690.223365300     a.u. after    1 cycles

 The electronic state is 2-A.
 Alpha  occ. eigenvalues --  -19.07184 -19.01324 -14.27831 -14.21663 -10.20552
 Alpha  occ. eigenvalues --  -10.11227 -10.10804 -10.10414 -10.09090 -10.07747
 Alpha  occ. eigenvalues --  -10.07201 -10.07126 -10.06936 -10.05790 -10.05436
 Alpha  occ. eigenvalues --   -1.01310  -0.94048  -0.92037  -0.75686  -0.72746
 Alpha  occ. eigenvalues --   -0.69738  -0.65087  -0.60454  -0.60208  -0.59488
 Alpha  occ. eigenvalues --   -0.56184  -0.54022  -0.48659  -0.46463  -0.43318
 Alpha  occ. eigenvalues --   -0.40353  -0.39857  -0.38998  -0.38483  -0.35456
 Alpha  occ. eigenvalues --   -0.34908  -0.33427  -0.33177  -0.32643  -0.32326
 Alpha  occ. eigenvalues --   -0.31710  -0.31002  -0.29987  -0.29289  -0.29162
 Alpha  occ. eigenvalues --   -0.28547  -0.27922  -0.26946  -0.26561  -0.25915
 Alpha  occ. eigenvalues --   -0.23891  -0.23466  -0.22130  -0.18721  -0.18171
 Alpha  occ. eigenvalues --   -0.13947  -0.13669   0.04440
 Alpha virt. eigenvalues --    0.06221   0.06941   0.07766   0.08247   0.08941
 Alpha virt. eigenvalues --    0.09174   0.09444   0.09964   0.10682   0.11218
 Alpha virt. eigenvalues --    0.11469   0.11759   0.11829   0.12291   0.13270

  Beta  occ. eigenvalues --  -19.07156 -19.01313 -14.27832 -14.21655 -10.20550
  Beta  occ. eigenvalues --  -10.11205 -10.10799 -10.10411 -10.09089 -10.07721
  Beta  occ. eigenvalues --  -10.07169 -10.07102 -10.06914 -10.05771 -10.05422
  Beta  occ. eigenvalues --   -1.01275  -0.94042  -0.92008  -0.75666  -0.72727
  Beta  occ. eigenvalues --   -0.69714  -0.65054  -0.60411  -0.60166  -0.59444
  Beta  occ. eigenvalues --   -0.56132  -0.53970  -0.48628  -0.46411  -0.43278
  Beta  occ. eigenvalues --   -0.40311  -0.39833  -0.38964  -0.38444  -0.35431
  Beta  occ. eigenvalues --   -0.34878  -0.33398  -0.33135  -0.32609  -0.32296
  Beta  occ. eigenvalues --   -0.31677  -0.30969  -0.29957  -0.29257  -0.29135
  Beta  occ. eigenvalues --   -0.28516  -0.27892  -0.26918  -0.26530  -0.25882
  Beta  occ. eigenvalues --   -0.23856  -0.23441  -0.22106  -0.18699  -0.18138
  Beta  occ. eigenvalues --   -0.13930  -0.13639
  Beta virt. eigenvalues --    0.06607   0.07276   0.07739   0.08200   0.08759
  Beta virt. eigenvalues --    0.09394   0.09630   0.09678   0.10316   0.10933
  Beta virt. eigenvalues --    0.11534   0.11730   0.11900   0.12381   0.12531

 Mulliken charges and spin densities:
               1          2
     1  C    1.590458  -2.202010
     2  C   -1.994255   1.958057
     3  C   -0.004760  -0.070055
     4  C   -0.003053  -0.125333
     5  N   -0.044748   0.028772
     6  N    0.208852  -0.004267
     7  C    0.518770  -1.104694
     8  C    0.067398  -0.489710
     9  C   -0.742528   1.838315
    10  C    0.192206  -0.883552
    11  C    0.416370  -0.857371
    12  C    0.402183  -1.075100
    13  O   -0.213555   0.044699
    14  O   -0.098728   0.062598
    15  C    0.598468  -1.212858
    16  H   -0.051356   0.251611
    17  H   -0.149052   0.307347
    18  H   -0.208807   0.374079
    19  H   -0.491373   0.653544
    20  H    0.266463  -0.065768
    21  H   -0.726802   0.933967
    22  H   -0.635945   0.811183
    23  H    0.268077  -0.052053
    24  H   -0.223009   0.370273
    25  H    0.102873   0.063933
    26  H    0.278828  -0.078017
    27  H   -0.041654   0.205146
    28  H   -0.069324   0.209932
    29  H   -0.096531   0.256211
    30  H   -0.002403   0.292894
    31  H    0.041080   0.102275
    32  H   -0.145195   0.306320
    33  H   -0.008948   0.149632
 Sum of Mulliken charges =  -1.00000   1.00000

 Dipole moment (field-independent basis, Debye):
    X=              0.5027    Y=              2.3943    Z=              0.9903  Tot=              2.6394
 Quadrupole moment (field-independent basis, Debye-Ang):
   XX=           -147.8045   YY=           -138.7993   ZZ=           -136.0535
   XY=             -3.1826   XZ=             -8.9091   YZ=             -5.3248

 Summary of Natural Population Analysis:

                                       Natural Population
                Natural  -----------------------------------------------
    Atom  No    Charge         Core      Valence    Rydberg      Total
 -----------------------------------------------------------------------
      C    1   -0.30675      0.99962     2.30187    0.00526     3.30675
      C    2    0.09869      0.99953     1.88909    0.01270     2.90131
      C    3   -0.16509      0.99944     2.15703    0.00862     3.16509
      C    4    0.07591      0.99959     1.91035    0.01415     2.92409
      N    5   -0.16551      0.99970     2.65498    0.01083     3.66551
      N    6   -0.12306      0.99962     2.60895    0.01449     3.62306
      C    7   -0.08341      0.99960     2.07165    0.01217     3.08341
      C    8   -0.19101      0.99959     2.18014    0.01128     3.19101
      C    9   -0.08356      0.99952     2.07049    0.01355     3.08356
      C   10   -0.29284      0.99963     2.28667    0.00654     3.29284
      C   11   -0.27691      0.99963     2.26995    0.00733     3.27691
      C   12    0.41553      0.99962     1.55723    0.02762     2.58447
      O   13   -0.31865      0.99987     3.31264    0.00615     4.31865
      O   14   -0.33694      0.99987     3.32989    0.00718     4.33694
      C   15   -0.29765      0.99963     2.29270    0.00532     3.29765
      H   16    0.11948      0.00000     0.37910    0.00143     0.38052
      H   17    0.10747      0.00000     0.39165    0.00088     0.39253
      H   18    0.10640      0.00000     0.39228    0.00132     0.39360
      H   19    0.10715      0.00000     0.39186    0.00099     0.39285
      H   20    0.10901      0.00000     0.38908    0.00190     0.39099
      H   21    0.10461      0.00000     0.39361    0.00178     0.39539
      H   22    0.10560      0.00000     0.39234    0.00206     0.39440
      H   23    0.10854      0.00000     0.38956    0.00190     0.39146
      H   24    0.09802      0.00000     0.40090    0.00108     0.40198
      H   25    0.10285      0.00000     0.39610    0.00105     0.39715
      H   26    0.11863      0.00000     0.37965    0.00172     0.38137
      H   27    0.10699      0.00000     0.39199    0.00102     0.39301
      H   28    0.09998      0.00000     0.39911    0.00091     0.40002
      H   29    0.10195      0.00000     0.39698    0.00107     0.39805
      H   30    0.24205      0.00000     0.25316    0.00479     0.25795
      H   31    0.10743      0.00000     0.39165    0.00092     0.39257
      H   32    0.10397      0.00000     0.39491    0.00112     0.39603
      H   33    0.10115      0.00000     0.39794    0.00091     0.39885
 =======================================================================
   * Total *    0.00000     14.99445    41.81550    0.19005    57.00000

 Normal termination of Gaussian 16 at Thu Dec 10 19:11:31 2020.
