 Gaussian 16, Revision A.03,

 -----------------------------------------------------------
 # opt freq B3LYP/6-31G(d) empiricaldispersion=gd3bj scf=xqc
 -----------------------------------------------------------

 ------------------------------
 CID_82652596_JID_2656_neutraal
 ------------------------------
 Symbolic Z-matrix:
 Charge =  0 Multiplicity = 1

 SCF Done:  E(RB3LYP) =  -590.734029241     A.U. after   15 cycles
 SCF Done:  E(RB3LYP) =  -590.736618347     A.U. after   12 cycles
 SCF Done:  E(RB3LYP) =  -590.736921474     A.U. after   11 cycles
 SCF Done:  E(RB3LYP) =  -590.736919172     A.U. after   11 cycles
 SCF Done:  E(RB3LYP) =  -590.736887690     A.U. after   11 cycles
 SCF Done:  E(RB3LYP) =  -590.736963860     A.U. after   11 cycles
 SCF Done:  E(RB3LYP) =  -590.736955707     A.U. after   10 cycles
 SCF Done:  E(RB3LYP) =  -590.736968901     A.U. after    9 cycles
 SCF Done:  E(RB3LYP) =  -590.736969106     A.U. after    7 cycles
 Optimization completed.
    -- Stationary point found.
 Normal termination of Gaussian 16 at Wed Dec  9 17:48:42 2020.

 --------------------------------------------------------------------
 #N Geom=AllCheck Guess=TCheck SCRF=Check GenChk RB3LYP/6-31G(d) Freq
 --------------------------------------------------------------------

 Structure from the checkpoint file:  "JID_2656.chk"
 ------------------------------
 CID_82652596_JID_2656_neutraal
 ------------------------------
 Charge =  0 Multiplicity = 1

 SCF Done:  E(RB3LYP) =  -590.736969106     A.U. after    1 cycles

  Exact polarizability: 146.624  -2.573 111.937  -0.012  -0.006  48.552
 Approx polarizability: 195.589 -22.690 197.975  -0.017   0.007  72.224

                      1                      2                      3
                      A                      A                      A
 Frequencies --     14.1225                73.0171                83.7063
 Red. masses --      1.0436                 4.5384                 3.7660
 Frc consts  --      0.0001                 0.0143                 0.0155
 IR Inten    --      0.0020                 6.3072                 0.1249

                      4                      5                      6
                      A                      A                      A
 Frequencies --    100.4026               128.9993               156.8196
 Red. masses --      5.4021                 1.2526                 3.4710
 Frc consts  --      0.0321                 0.0123                 0.0503
 IR Inten    --      6.3086                 0.8970                 3.8248

                      7                      8                      9
                      A                      A                      A
 Frequencies --    189.9048               193.3113               220.9807
 Red. masses --      3.7105                 4.8909                 2.8524
 Frc consts  --      0.0788                 0.1077                 0.0821
 IR Inten    --      0.0111                 2.2709                 0.2715

                     10                     11                     12
                      A                      A                      A
 Frequencies --    278.7937               338.1913               338.9672
 Red. masses --      3.7740                 3.8560                 4.6446
 Frc consts  --      0.1728                 0.2598                 0.3144
 IR Inten    --      8.9123                 8.1303                16.1953

                     13                     14                     15
                      A                      A                      A
 Frequencies --    366.4622               516.2450               554.1125
 Red. masses --      5.1934                 7.5244                 4.5366
 Frc consts  --      0.4109                 1.1815                 0.8207
 IR Inten    --      0.0978                17.9046                 2.7982

                     16                     17                     18
                      A                      A                      A
 Frequencies --    606.1359               642.0368               644.9282
 Red. masses --      2.4883                 1.9162                 4.3200
 Frc consts  --      0.5386                 0.4654                 1.0587
 IR Inten    --     38.6522                28.1938                16.6913

                     19                     20                     21
                      A                      A                      A
 Frequencies --    671.3952               759.1791               792.8089
 Red. masses --      2.4800                 6.7233                 5.4680
 Frc consts  --      0.6586                 2.2831                 2.0249
 IR Inten    --      2.7558                30.0747                 1.0090

                     22                     23                     24
                      A                      A                      A
 Frequencies --    852.5471               878.4811               971.4140
 Red. masses --      3.3039                 1.3955                 6.3993
 Frc consts  --      1.4149                 0.6345                 3.5579
 IR Inten    --     22.2990                19.2651                 3.1217

                     25                     26                     27
                      A                      A                      A
 Frequencies --   1013.2020              1018.0327              1048.7028
 Red. masses --      1.6819                 1.7654                 3.5477
 Frc consts  --      1.0173                 1.0780                 2.2988
 IR Inten    --     14.8493                 0.7060                56.0330

                     28                     29                     30
                      A                      A                      A
 Frequencies --   1072.2856              1140.2057              1167.8223
 Red. masses --      1.4833                 1.7274                 5.0232
 Frc consts  --      1.0049                 1.3232                 4.0363
 IR Inten    --      2.1527                14.7603                 6.3380

                     31                     32                     33
                      A                      A                      A
 Frequencies --   1185.7927              1221.4673              1232.9348
 Red. masses --      1.2704                 1.5120                 1.7897
 Frc consts  --      1.0524                 1.3291                 1.6029
 IR Inten    --      0.8048                18.0250               108.9372

                     34                     35                     36
                      A                      A                      A
 Frequencies --   1292.2233              1406.1865              1422.2373
 Red. masses --      3.1287                 5.5043                 2.1473
 Frc consts  --      3.0782                 6.4127                 2.5590
 IR Inten    --    656.6338                26.7264                69.7461

                     37                     38                     39
                      A                      A                      A
 Frequencies --   1440.2436              1466.0938              1491.2549
 Red. masses --      1.3164                 1.9498                 1.4829
 Frc consts  --      1.6088                 2.4692                 1.9429
 IR Inten    --      7.4714                24.8386                58.7055

                     40                     41                     42
                      A                      A                      A
 Frequencies --   1498.1015              1511.4198              1512.9584
 Red. masses --      1.5810                 1.0421                 1.0480
 Frc consts  --      2.0906                 1.4026                 1.4134
 IR Inten    --     16.3496                 7.0653                 6.2548

                     43                     44                     45
                      A                      A                      A
 Frequencies --   1524.6251              1538.0536              1553.5952
 Red. masses --      1.0660                 2.3324                 3.3087
 Frc consts  --      1.4600                 3.2508                 4.7053
 IR Inten    --     20.6791                70.1869               104.2958

                     46                     47                     48
                      A                      A                      A
 Frequencies --   1625.5266              1779.6696              1786.3484
 Red. masses --      4.4712                10.7271                10.0008
 Frc consts  --      6.9609                20.0175                18.8026
 IR Inten    --     45.9210               587.8234                44.4420

                     49                     50                     51
                      A                      A                      A
 Frequencies --   2903.1608              3048.3973              3076.3060
 Red. masses --      1.0819                 1.0405                 1.0298
 Frc consts  --      5.3723                 5.6969                 5.7420
 IR Inten    --    152.8971                27.7177                37.8045

                     52                     53                     54
                      A                      A                      A
 Frequencies --   3097.8590              3150.3853              3158.0452
 Red. masses --      1.1016                 1.1076                 1.0969
 Frc consts  --      6.2287                 6.4767                 6.4457
 IR Inten    --     12.8957                21.3775                 7.1479

                     55                     56                     57
                      A                      A                      A
 Frequencies --   3186.2633              3297.8025              3629.8785
 Red. masses --      1.1068                 1.0968                 1.0800
 Frc consts  --      6.6207                 7.0278                 8.3845
 IR Inten    --     15.8336                 2.0504                89.6139

 - Thermochemistry -
 -------------------
 Temperature   298.150 Kelvin.  Pressure   1.00000 Atm.
 Atom     1 has atomic number  6 and mass  12.00000

 Molecular mass:   167.05824 amu.
 Principal axes and moments of inertia in atomic units:
                           1         2         3
     Eigenvalues --  1044.297003379.942464401.55371
           X            0.99908   0.04299  -0.00000
           Y           -0.04299   0.99908  -0.00002
           Z            0.00000   0.00002   1.00000
 This molecule is an asymmetric top.
 Rotational symmetry number  1.
 Warning -- assumption of classical behavior for rotation
           may cause significant error
 Rotational temperatures (Kelvin)      0.08294     0.02563     0.01968
 Rotational constants (GHZ):           1.72819     0.53396     0.41002
 Zero-point vibrational energy     429878.3 (Joules/Mol)
                                  102.74339 (Kcal/Mol)
 Warning -- explicit consideration of  16 degrees of freedom as
           vibrations may cause significant error
 Vibrational temperatures:     20.32   105.06   120.43   144.46   185.60
          (Kelvin)            225.63   273.23   278.13   317.94   401.12
                              486.58   487.70   527.26   742.76   797.24
                              872.09   923.75   927.91   965.99  1092.29
                             1140.68  1226.63  1263.94  1397.65  1457.77
                             1464.72  1508.85  1542.78  1640.50  1680.24
                             1706.09  1757.42  1773.92  1859.22  2023.19
                             2046.28  2072.19  2109.38  2145.58  2155.43
                             2174.60  2176.81  2193.60  2212.92  2235.28
                             2338.77  2560.55  2570.16  4177.00  4385.96
                             4426.12  4457.13  4532.70  4543.72  4584.32
                             4744.80  5222.59

 Zero-point correction=                           0.163732 (Hartree/Particle)
 Thermal correction to Energy=                    0.175875
 Thermal correction to Enthalpy=                  0.176819
 Thermal correction to Gibbs Free Energy=         0.123458
 Sum of electronic and zero-point Energies=           -590.573237
 Sum of electronic and thermal Energies=              -590.561094
 Sum of electronic and thermal Enthalpies=            -590.560150
 Sum of electronic and thermal Free Energies=         -590.613511

                     E (Thermal)             CV                S
                      KCal/Mol        Cal/Mol-Kelvin    Cal/Mol-Kelvin
 Total                  110.363             42.170            112.309
 Electronic               0.000              0.000              0.000
 Translational            0.889              2.981             41.248
 Rotational               0.889              2.981             31.119
 Vibrational            108.586             36.208             39.942
 Vibration     1          0.593              1.986              7.325
 Vibration     2          0.599              1.967              4.070
 Vibration     3          0.601              1.960              3.802
 Vibration     4          0.604              1.949              3.446
 Vibration     5          0.611              1.924              2.961
 Vibration     6          0.620              1.895              2.588
 Vibration     7          0.633              1.854              2.229
 Vibration     8          0.635              1.849              2.196
 Vibration     9          0.648              1.809              1.951
 Vibration    10          0.679              1.713              1.541
 Vibration    11          0.718              1.599              1.221
 Vibration    12          0.719              1.598              1.217
 Vibration    13          0.739              1.541              1.095
 Vibration    14          0.871              1.214              0.619
 Vibration    15          0.910              1.131              0.536
 Vibration    16          0.965              1.019              0.439

                           ! Non-Optimized Parameters !
 Normal termination of Gaussian 16 at Wed Dec  9 17:52:59 2020.

 ----------------------------------------------------------------------
 # B3LYP/6-311++G(d,p) empiricaldispersion=gd3bj scf=xqc pop=npa geom=c
 heck
 ----------------------------------------------------------------------

 --------------------------------------
 CID_82652596_JID_2656_Energie_neutraal
 --------------------------------------
 Structure from the checkpoint file:  "JID_2656.chk"
 Charge =  0 Multiplicity = 1

 SCF Done:  E(RB3LYP) =  -590.910351314     A.U. after   15 cycles
 Normal termination of Gaussian 16 at Wed Dec  9 17:55:28 2020.

 ----------------------------------------------------------------------
 # B3LYP/6-311++G(d,p) empiricaldispersion=gd3bj scf=xqc pop=npa geom=c
 heck
 ----------------------------------------------------------------------

 ------------------------------------
 CID_82652596_JID_2656_Energie_kation
 ------------------------------------
 Structure from the checkpoint file:  "JID_2656.chk"
 Charge =  1 Multiplicity = 2

 SCF Done:  E(UB3LYP) =  -590.593095120     A.U. after   30 cycles
 Normal termination of Gaussian 16 at Wed Dec  9 18:01:14 2020.
 Gaussian 16:  ES64L-G16RevA.03 25-Dec-2016

 ----------------------------------------------------------------------
 # B3LYP/6-311++G(d,p) empiricaldispersion=gd3bj scf=xqc pop=npa geom=c
 heck
 ----------------------------------------------------------------------

 -----------------------------------
 CID_82652596_JID_2656_Energie_anion
 -----------------------------------
 Structure from the checkpoint file:  "JID_2656.chk"
 Charge = -1 Multiplicity = 2

                         Standard orientation:
 ---------------------------------------------------------------------
 Center     Atomic      Atomic             Coordinates (Angstroms)
 Number     Number       Type             X           Y           Z
 ---------------------------------------------------------------------
      1          6           0        2.609045    2.108702   -0.000829
      2          6           0        1.572006    1.033370    0.000388
      3          6           0        1.687458   -0.367001    0.000248
      4          6           0        0.369686   -0.909598    0.000111
      5          6           0       -0.506713    0.152813    0.000061
      6          7           0        0.246148    1.318825    0.000634
      7          6           0       -1.958881    0.278404    0.000029
      8          8           0       -2.537209    1.354155    0.000227
      9          8           0       -2.578877   -0.917429   -0.000373
     10          6           0       -4.013385   -0.858001   -0.000222
     11          6           0        2.922198   -1.139236    0.000341
     12          8           0        2.971470   -2.358360   -0.000257
     13          1           0        2.526082    2.742306   -0.892431
     14          1           0        2.512047    2.757511    0.878250
     15          1           0        3.612705    1.679685    0.010727
     16          1           0        0.116082   -1.958734    0.000128
     17          1           0       -0.184764    2.234203    0.000978
     18          1           0       -4.375282   -0.334106    0.888293
     19          1           0       -4.375571   -0.338880   -0.891460
     20          1           0       -4.346533   -1.895703    0.002505
     21          1           0        3.860647   -0.541690    0.001042
 ---------------------------------------------------------------------

 SCF Done:  E(UB3LYP) =  -590.907053369     A.U. after   33 cycles
 SCF Done:  E(UB3LYP) =  -590.907053370     a.u. after    2 cycles

 The electronic state is 2-A.
 Alpha  occ. eigenvalues --  -19.01885 -18.93954 -18.92122 -14.22084 -10.12199
 Alpha  occ. eigenvalues --  -10.10555 -10.07927 -10.06864 -10.05994 -10.04057
 Alpha  occ. eigenvalues --  -10.01236  -9.98954  -0.95617  -0.86420  -0.85587
 Alpha  occ. eigenvalues --   -0.84155  -0.65226  -0.63803  -0.60936  -0.55514
 Alpha  occ. eigenvalues --   -0.49614  -0.46174  -0.43550  -0.39180  -0.37663
 Alpha  occ. eigenvalues --   -0.35248  -0.34152  -0.32915  -0.32537  -0.30526
 Alpha  occ. eigenvalues --   -0.29025  -0.27873  -0.27716  -0.25980  -0.25211
 Alpha  occ. eigenvalues --   -0.24529  -0.22361  -0.21985  -0.21762  -0.16804
 Alpha  occ. eigenvalues --   -0.13034  -0.10864  -0.08117  -0.08081   0.06575
 Alpha virt. eigenvalues --    0.08043   0.08454   0.10070   0.11083   0.12004
 Alpha virt. eigenvalues --    0.12238   0.12531   0.12705   0.13812   0.14724
 Alpha virt. eigenvalues --    0.15963   0.16649   0.17174   0.18594   0.18657

  Beta  occ. eigenvalues --  -19.01806 -18.93603 -18.91701 -14.22121 -10.11869
  Beta  occ. eigenvalues --  -10.10560 -10.08002 -10.06859 -10.05672 -10.04031
  Beta  occ. eigenvalues --  -10.01279  -9.98495  -0.95297  -0.86003  -0.84831
  Beta  occ. eigenvalues --   -0.84025  -0.65195  -0.63410  -0.60735  -0.55312
  Beta  occ. eigenvalues --   -0.48947  -0.45664  -0.43251  -0.39057  -0.37218
  Beta  occ. eigenvalues --   -0.34843  -0.34048  -0.32673  -0.32593  -0.30233
  Beta  occ. eigenvalues --   -0.28932  -0.27611  -0.27171  -0.25604  -0.24870
  Beta  occ. eigenvalues --   -0.23642  -0.22172  -0.21752  -0.19784  -0.15623
  Beta  occ. eigenvalues --   -0.12711  -0.09418  -0.07759  -0.07159
  Beta virt. eigenvalues --    0.08002   0.08437   0.10911   0.11039   0.11969
  Beta virt. eigenvalues --    0.12396   0.12501   0.13087   0.13472   0.13794
  Beta virt. eigenvalues --    0.14670   0.15925   0.16618   0.17402   0.18593

 Mulliken charges and spin densities:
               1          2
     1  C   -0.760171   0.057058
     2  C   -0.445310  -0.109705
     3  C    0.802939  -0.002771
     4  C    0.337919   0.415848
     5  C   -0.276229  -0.009024
     6  N   -0.087088  -0.013287
     7  C    0.007909   0.196033
     8  O   -0.415452   0.112084
     9  O   -0.128804   0.010383
    10  C   -0.270727  -0.001709
    11  C   -0.686970   0.269619
    12  O   -0.389723   0.140774
    13  H    0.137785  -0.009546
    14  H    0.136631  -0.009789
    15  H    0.148291  -0.002034
    16  H    0.170446  -0.028566
    17  H    0.289534   0.000074
    18  H    0.154026   0.002151
    19  H    0.152072   0.004012
    20  H    0.115037  -0.000303
    21  H    0.007889  -0.021302
 Sum of Mulliken charges =  -1.00000   1.00000

 Dipole moment (field-independent basis, Debye):
    X=             -3.0640    Y=              4.9470    Z=              0.0012  Tot=              5.8190
 Quadrupole moment (field-independent basis, Debye-Ang):
   XX=           -104.6834   YY=            -91.1820   ZZ=            -76.8205
   XY=             25.3603   XZ=             -0.0349   YZ=              0.0001

 Summary of Natural Population Analysis:

                                       Natural Population
                Natural  -----------------------------------------------
    Atom  No    Charge         Core      Valence    Rydberg      Total
 -----------------------------------------------------------------------
      C    1   -0.29996      0.99964     2.29587    0.00445     3.29996
      C    2    0.07447      0.99954     1.91479    0.01121     2.92553
      C    3   -0.10677      0.99947     2.09825    0.00905     3.10677
      C    4   -0.01007      0.99950     2.00170    0.00886     3.01007
      C    5    0.01602      0.99949     1.97195    0.01254     2.98398
      N    6   -0.26776      0.99963     2.75958    0.00856     3.76776
      C    7    0.42211      0.99962     1.55565    0.02263     2.57789
      O    8   -0.31492      0.99988     3.30884    0.00620     4.31492
      O    9   -0.27430      0.99986     3.26607    0.00837     4.27430
      C   10   -0.10482      0.99961     2.09646    0.00875     3.10482
      C   11    0.24322      0.99966     1.73625    0.02087     2.75678
      O   12   -0.26428      0.99988     3.25609    0.00830     4.26428
      H   13    0.09615      0.00000     0.40244    0.00141     0.40385
      H   14    0.09608      0.00000     0.40250    0.00141     0.40392
      H   15    0.10927      0.00000     0.38942    0.00131     0.39073
      H   16    0.10511      0.00000     0.39380    0.00109     0.39489
      H   17    0.20117      0.00000     0.29676    0.00207     0.29883
      H   18    0.08562      0.00000     0.41306    0.00132     0.41438
      H   19    0.08557      0.00000     0.41310    0.00132     0.41443
      H   20    0.08218      0.00000     0.41694    0.00088     0.41782
      H   21    0.02593      0.00000     0.47129    0.00278     0.47407
 =======================================================================
   * Total *    0.00000     11.99579    31.86081    0.14340    44.00000

 Normal termination of Gaussian 16 at Wed Dec  9 18:12:44 2020.
