 Gaussian 16, Revision A.03,

 -----------------------------------------------------------
 # opt freq B3LYP/6-31G(d) empiricaldispersion=gd3bj scf=xqc
 -----------------------------------------------------------

 -------------------------------
 CID_131032119_JID_3787_neutraal
 -------------------------------
 Symbolic Z-matrix:
 Charge =  0 Multiplicity = 1

 SCF Done:  E(RB3LYP) =  -990.100217629     A.U. after   15 cycles
 SCF Done:  E(RB3LYP) =  -990.108399071     A.U. after   12 cycles
 SCF Done:  E(RB3LYP) =  -990.109524611     A.U. after   13 cycles
 SCF Done:  E(RB3LYP) =  -990.108962645     A.U. after   12 cycles
 SCF Done:  E(RB3LYP) =  -990.110415798     A.U. after   12 cycles
 SCF Done:  E(RB3LYP) =  -990.110654049     A.U. after   12 cycles
 SCF Done:  E(RB3LYP) =  -990.110823355     A.U. after   12 cycles
 SCF Done:  E(RB3LYP) =  -990.110904010     A.U. after   12 cycles
 SCF Done:  E(RB3LYP) =  -990.110996130     A.U. after   12 cycles
 SCF Done:  E(RB3LYP) =  -990.111034849     A.U. after   11 cycles
 SCF Done:  E(RB3LYP) =  -990.111059768     A.U. after   11 cycles
 SCF Done:  E(RB3LYP) =  -990.111062824     A.U. after   10 cycles
 SCF Done:  E(RB3LYP) =  -990.111063892     A.U. after    9 cycles
 SCF Done:  E(RB3LYP) =  -990.111064055     A.U. after    8 cycles
 SCF Done:  E(RB3LYP) =  -990.111064104     A.U. after    7 cycles
 Optimization completed.
    -- Stationary point found.
 Normal termination of Gaussian 16 at Sun Dec 13 12:22:15 2020.

 --------------------------------------------------------------------
 #N Geom=AllCheck Guess=TCheck SCRF=Check GenChk RB3LYP/6-31G(d) Freq
 --------------------------------------------------------------------

 Structure from the checkpoint file:  "JID_3787.chk"
 -------------------------------
 CID_131032119_JID_3787_neutraal
 -------------------------------
 Charge =  0 Multiplicity = 1

 SCF Done:  E(RB3LYP) =  -990.111064104     A.U. after    1 cycles

  Exact polarizability: 140.683   3.817 106.197   5.393   9.511  88.614
 Approx polarizability: 203.487  17.421 179.884  14.518  27.587 136.670

                      1                      2                      3
                      A                      A                      A
 Frequencies --     30.6340                39.3286                47.5171
 Red. masses --      5.6448                 5.0800                 7.0468
 Frc consts  --      0.0031                 0.0046                 0.0094
 IR Inten    --      0.3967                 3.0552                 1.2928

                      4                      5                      6
                      A                      A                      A
 Frequencies --     84.0563               134.2698               185.0643
 Red. masses --      6.4910                 5.0671                 3.6820
 Frc consts  --      0.0270                 0.0538                 0.0743
 IR Inten    --      0.5079                 0.3284                 0.6059

                      7                      8                      9
                      A                      A                      A
 Frequencies --    230.6610               244.8060               269.4164
 Red. masses --      2.8647                 1.8139                 2.3683
 Frc consts  --      0.0898                 0.0640                 0.1013
 IR Inten    --      5.7571                18.3912                 7.4035

                     10                     11                     12
                      A                      A                      A
 Frequencies --    284.3116               302.1316               318.1190
 Red. masses --      1.6993                 1.3894                 3.1033
 Frc consts  --      0.0809                 0.0747                 0.1850
 IR Inten    --     25.0073                 2.9381                 3.4866

                     13                     14                     15
                      A                      A                      A
 Frequencies --    365.2569               381.2891               385.0418
 Red. masses --      4.2750                 1.7743                 3.6732
 Frc consts  --      0.3360                 0.1520                 0.3209
 IR Inten    --     21.4176                75.4802                12.3761

                     16                     17                     18
                      A                      A                      A
 Frequencies --    420.4686               469.7563               520.5334
 Red. masses --      2.4372                 3.7713                 4.3471
 Frc consts  --      0.2539                 0.4903                 0.6940
 IR Inten    --     46.3968                22.2486                10.5844

                     19                     20                     21
                      A                      A                      A
 Frequencies --    538.1867               619.8065               636.7848
 Red. masses --      4.0689                 1.7091                 2.9880
 Frc consts  --      0.6944                 0.3868                 0.7139
 IR Inten    --     14.6936                31.5445                56.3963

                     22                     23                     24
                      A                      A                      A
 Frequencies --    656.3231               680.9506               690.7292
 Red. masses --      3.7001                 2.8627                 5.0077
 Frc consts  --      0.9391                 0.7821                 1.4077
 IR Inten    --     23.9972                47.0938                 7.0297

                     25                     26                     27
                      A                      A                      A
 Frequencies --    759.3396               784.8848               800.0274
 Red. masses --      1.4366                 4.2287                 3.3538
 Frc consts  --      0.4880                 1.5349                 1.2647
 IR Inten    --      6.8266                23.7786                26.3843

                     28                     29                     30
                      A                      A                      A
 Frequencies --    869.6092               875.2764               887.2275
 Red. masses --      1.7028                 2.6680                 1.6057
 Frc consts  --      0.7587                 1.2043                 0.7447
 IR Inten    --     31.1050                14.3657               108.2364

                     31                     32                     33
                      A                      A                      A
 Frequencies --    936.4434               978.1423               982.6479
 Red. masses --      2.7283                 1.8293                 1.6014
 Frc consts  --      1.4096                 1.0312                 0.9111
 IR Inten    --     25.4946                 0.4491                26.6641

                     34                     35                     36
                      A                      A                      A
 Frequencies --   1066.8435              1083.4027              1099.2860
 Red. masses --      5.7795                 2.5325                 1.4765
 Frc consts  --      3.8756                 1.7514                 1.0513
 IR Inten    --     62.9954                 7.8447                13.4766

                     37                     38                     39
                      A                      A                      A
 Frequencies --   1149.2592              1179.1841              1190.9483
 Red. masses --      2.3282                 3.1011                 2.1837
 Frc consts  --      1.8118                 2.5406                 1.8248
 IR Inten    --     41.8085               163.7304                59.4737

                     40                     41                     42
                      A                      A                      A
 Frequencies --   1208.2953              1241.4152              1269.1877
 Red. masses --      1.1929                 1.4185                 2.4730
 Frc consts  --      1.0261                 1.2880                 2.3471
 IR Inten    --     30.9500                 9.9525                12.7159

                     43                     44                     45
                      A                      A                      A
 Frequencies --   1328.9180              1366.1208              1392.7466
 Red. masses --      1.6686                 1.4091                 2.1637
 Frc consts  --      1.7362                 1.5494                 2.4728
 IR Inten    --     19.4105                 4.3044                17.4844

                     46                     47                     48
                      A                      A                      A
 Frequencies --   1409.5520              1427.9774              1436.5376
 Red. masses --      2.7039                 1.3011                 1.3408
 Frc consts  --      3.1652                 1.5632                 1.6302
 IR Inten    --      7.6038                15.1369               102.9576

                     49                     50                     51
                      A                      A                      A
 Frequencies --   1515.2172              1527.4886              1529.6310
 Red. masses --      1.2169                 2.4511                 1.1913
 Frc consts  --      1.6461                 3.3695                 1.6422
 IR Inten    --      4.8718                 3.4010                 0.6797

                     52                     53                     54
                      A                      A                      A
 Frequencies --   1537.5565              1620.8517              1663.2805
 Red. masses --      1.1271                 6.5770                 1.1192
 Frc consts  --      1.5699                10.1805                 1.8242
 IR Inten    --      6.3423                 1.6125                66.4450

                     55                     56                     57
                      A                      A                      A
 Frequencies --   1839.8940              3008.0604              3056.3722
 Red. masses --      8.7056                 1.0700                 1.0337
 Frc consts  --     17.3633                 5.7041                 5.6895
 IR Inten    --    264.3696                52.9544                13.8401

                     58                     59                     60
                      A                      A                      A
 Frequencies --   3086.6697              3132.4599              3135.7734
 Red. masses --      1.0935                 1.1039                 1.1030
 Frc consts  --      6.1383                 6.3819                 6.3904
 IR Inten    --     26.6641                21.3184                19.4846

                     61                     62                     63
                      A                      A                      A
 Frequencies --   3235.7675              3275.6526              3481.9473
 Red. masses --      1.0928                 1.0933                 1.0485
 Frc consts  --      6.7412                 6.9117                 7.4894
 IR Inten    --      1.2142                 0.5768                 2.3491

                     64                     65                     66
                      A                      A                      A
 Frequencies --   3577.5070              3684.8501              3731.2916
 Red. masses --      1.0940                 1.0640                 1.0660
 Frc consts  --      8.2498                 8.5118                 8.7446
 IR Inten    --      2.6295                55.4433                11.7769

 - Thermochemistry -
 -------------------
 Temperature   298.150 Kelvin.  Pressure   1.00000 Atm.
 Atom     1 has atomic number  6 and mass  12.00000

 Molecular mass:   201.04597 amu.
 Principal axes and moments of inertia in atomic units:
                           1         2         3
     Eigenvalues --  1367.223044533.584764821.65690
           X            0.99963  -0.02719   0.00261
           Y            0.02717   0.99958   0.00965
           Z           -0.00287  -0.00958   0.99995
 This molecule is an asymmetric top.
 Rotational symmetry number  1.
 Warning -- assumption of classical behavior for rotation
           may cause significant error
 Rotational temperatures (Kelvin)      0.06335     0.01910     0.01796
 Rotational constants (GHZ):           1.32000     0.39808     0.37430
 Zero-point vibrational energy     495846.1 (Joules/Mol)
                                  118.51005 (Kcal/Mol)
 Warning -- explicit consideration of  20 degrees of freedom as
           vibrations may cause significant error
 Vibrational temperatures:     44.08    56.59    68.37   120.94   193.18
          (Kelvin)            266.27   331.87   352.22   387.63   409.06
                              434.70   457.70   525.52   548.59   553.99
                              604.96   675.87   748.93   774.33   891.76
                              916.19   944.30   979.74   993.81  1092.52
                             1129.27  1151.06  1251.17  1259.33  1276.52
                             1347.33  1407.33  1413.81  1534.95  1558.77
                             1581.63  1653.53  1696.58  1713.51  1738.47
                             1786.12  1826.08  1912.02  1965.54  2003.85
                             2028.03  2054.54  2066.86  2180.06  2197.72
                             2200.80  2212.20  2332.04  2393.09  2647.20
                             4327.93  4397.44  4441.03  4506.91  4511.68
                             4655.55  4712.93  5009.75  5147.23  5301.68
                             5368.50

 Zero-point correction=                           0.188858 (Hartree/Particle)
 Thermal correction to Energy=                    0.202413
 Thermal correction to Enthalpy=                  0.203357
 Thermal correction to Gibbs Free Energy=         0.147368
 Sum of electronic and zero-point Energies=           -989.922206
 Sum of electronic and thermal Energies=              -989.908651
 Sum of electronic and thermal Enthalpies=            -989.907707
 Sum of electronic and thermal Free Energies=         -989.963696

                     E (Thermal)             CV                S
                      KCal/Mol        Cal/Mol-Kelvin    Cal/Mol-Kelvin
 Total                  127.016             50.222            117.839
 Electronic               0.000              0.000              0.000
 Translational            0.889              2.981             41.800
 Rotational               0.889              2.981             31.769
 Vibrational            125.239             44.261             44.270
 Vibration     1          0.594              1.984              5.788
 Vibration     2          0.594              1.981              5.293
 Vibration     3          0.595              1.979              4.918
 Vibration     4          0.601              1.960              3.794
 Vibration     5          0.613              1.919              2.884
 Vibration     6          0.631              1.860              2.277
 Vibration     7          0.652              1.794              1.874
 Vibration     8          0.660              1.771              1.768
 Vibration     9          0.674              1.729              1.600
 Vibration    10          0.683              1.703              1.508
 Vibration    11          0.694              1.670              1.405
 Vibration    12          0.705              1.639              1.320
 Vibration    13          0.738              1.544              1.100
 Vibration    14          0.751              1.510              1.034
 Vibration    15          0.754              1.502              1.019
 Vibration    16          0.783              1.426              0.890
 Vibration    17          0.827              1.317              0.738
 Vibration    18          0.876              1.205              0.609
 Vibration    19          0.893              1.166              0.569
 Vibration    20          0.980              0.990              0.417

 Optimization completed.
    -- Stationary point found.
 Normal termination of Gaussian 16 at Sun Dec 13 12:28:13 2020.

 ----------------------------------------------------------------------
 # B3LYP/6-311++G(d,p) empiricaldispersion=gd3bj scf=xqc pop=npa geom=c
 heck
 ----------------------------------------------------------------------

 ---------------------------------------
 CID_131032119_JID_3787_Energie_neutraal
 ---------------------------------------
 Structure from the checkpoint file:  "JID_3787.chk"
 Charge =  0 Multiplicity = 1

 SCF Done:  E(RB3LYP) =  -990.333001441     A.U. after   15 cycles
 Normal termination of Gaussian 16 at Sun Dec 13 12:30:24 2020.

 ----------------------------------------------------------------------
 # B3LYP/6-311++G(d,p) empiricaldispersion=gd3bj scf=xqc pop=npa geom=c
 heck
 ----------------------------------------------------------------------

 -------------------------------------
 CID_131032119_JID_3787_Energie_kation
 -------------------------------------
 Structure from the checkpoint file:  "JID_3787.chk"
 Charge =  1 Multiplicity = 2

 SCF Done:  E(UB3LYP) =  -990.026090413     A.U. after   27 cycles
 Normal termination of Gaussian 16 at Sun Dec 13 12:35:55 2020.
 Gaussian 16:  ES64L-G16RevA.03 25-Dec-2016

 ----------------------------------------------------------------------
 # B3LYP/6-311++G(d,p) empiricaldispersion=gd3bj scf=xqc pop=npa geom=c
 heck
 ----------------------------------------------------------------------

 ------------------------------------
 CID_131032119_JID_3787_Energie_anion
 ------------------------------------
 Structure from the checkpoint file:  "JID_3787.chk"
 Charge = -1 Multiplicity = 2

                         Standard orientation:
 ---------------------------------------------------------------------
 Center     Atomic      Atomic             Coordinates (Angstroms)
 Number     Number       Type             X           Y           Z
 ---------------------------------------------------------------------
      1          6           0        2.573761   -1.535438    0.315215
      2          6           0        1.791618   -0.207727    0.462586
      3          6           0        0.297466   -0.401970    0.272433
      4          6           0       -0.311786   -1.510019   -0.251473
      5         16           0       -2.036297   -1.336574   -0.337331
      6          6           0       -1.947961    0.267527    0.360316
      7          6           0       -0.651942    0.615244    0.620097
      8          6           0       -3.198454    1.053851    0.615674
      9          8           0       -4.098586    1.044014   -0.487299
     10          6           0        2.362242    0.737194   -0.607123
     11          8           0        3.194155    1.591353   -0.393336
     12          8           0        1.896736    0.463470   -1.844470
     13          7           0        2.013204    0.458654    1.749377
     14          1           0        2.455669   -1.974144   -0.680279
     15          1           0        2.214532   -2.254631    1.058655
     16          1           0        3.639612   -1.355265    0.488079
     17          1           0        0.150558   -2.411715   -0.626523
     18          1           0       -0.357404    1.556748    1.068804
     19          1           0       -3.769795    0.628648    1.448095
     20          1           0       -2.910405    2.076971    0.904214
     21          1           0       -3.595205    1.329244   -1.266769
     22          1           0        2.365542    1.071115   -2.447058
     23          1           0        1.903471   -0.217390    2.502132
     24          1           0        2.963637    0.822347    1.776784
 ---------------------------------------------------------------------

 SCF Done:  E(UB3LYP) =  -990.323595662     A.U. after   33 cycles
 SCF Done:  E(UB3LYP) =  -990.323595662     a.u. after    1 cycles

 The electronic state is 2-A.
 Alpha  occ. eigenvalues --  -88.76181 -19.06696 -19.02907 -19.01665 -14.19402
 Alpha  occ. eigenvalues --  -10.20441 -10.12960 -10.12935 -10.09124 -10.08181
 Alpha  occ. eigenvalues --  -10.07291 -10.06802 -10.06451  -7.84808  -5.81097
 Alpha  occ. eigenvalues --   -5.80731  -5.80411  -1.01070  -0.93054  -0.92211
 Alpha  occ. eigenvalues --   -0.80496  -0.76705  -0.67044  -0.64038  -0.62111
 Alpha  occ. eigenvalues --   -0.56970  -0.56493  -0.49437  -0.45428  -0.44673
 Alpha  occ. eigenvalues --   -0.42681  -0.39343  -0.39051  -0.37758  -0.35941
 Alpha  occ. eigenvalues --   -0.34827  -0.34322  -0.33776  -0.31643  -0.31139
 Alpha  occ. eigenvalues --   -0.28669  -0.28467  -0.27318  -0.26828  -0.26324
 Alpha  occ. eigenvalues --   -0.24145  -0.23600  -0.22552  -0.19164  -0.18779
 Alpha  occ. eigenvalues --   -0.15442  -0.13863  -0.12599   0.04420
 Alpha virt. eigenvalues --    0.06797   0.07021   0.08009   0.08507   0.09075
 Alpha virt. eigenvalues --    0.09494   0.09728   0.10194   0.11288   0.12060
 Alpha virt. eigenvalues --    0.12713   0.13193   0.13906   0.14118   0.14758

  Beta  occ. eigenvalues --  -88.76160 -19.06640 -19.02876 -19.01641 -14.19376
  Beta  occ. eigenvalues --  -10.20429 -10.12954 -10.12922 -10.09077 -10.08038
  Beta  occ. eigenvalues --  -10.07297 -10.06761 -10.06432  -7.84788  -5.81084
  Beta  occ. eigenvalues --   -5.80721  -5.80348  -1.00994  -0.92977  -0.92141
  Beta  occ. eigenvalues --   -0.80443  -0.76606  -0.66965  -0.63903  -0.62028
  Beta  occ. eigenvalues --   -0.56886  -0.56372  -0.49305  -0.45295  -0.44606
  Beta  occ. eigenvalues --   -0.42622  -0.39294  -0.38975  -0.37699  -0.35871
  Beta  occ. eigenvalues --   -0.34740  -0.34267  -0.33728  -0.31593  -0.31082
  Beta  occ. eigenvalues --   -0.28607  -0.28398  -0.27256  -0.26751  -0.26082
  Beta  occ. eigenvalues --   -0.24095  -0.23506  -0.22455  -0.19104  -0.18725
  Beta  occ. eigenvalues --   -0.15348  -0.13646  -0.12143
  Beta virt. eigenvalues --    0.06811   0.07494   0.08135   0.08544   0.08853
  Beta virt. eigenvalues --    0.09453   0.09834   0.10044   0.10475   0.11529
  Beta virt. eigenvalues --    0.12465   0.12854   0.13379   0.13986   0.14190

 Mulliken charges and spin densities:
               1          2
     1  C    1.318826  -1.751783
     2  C   -2.467310   1.597437
     3  C    2.125400  -2.680178
     4  C   -0.764998   1.564238
     5  S   -0.295222  -0.398140
     6  C   -1.381946   1.401087
     7  C    0.559444  -0.197232
     8  C    1.909565  -1.902549
     9  O   -0.253327  -0.006910
    10  C    0.250723  -0.365759
    11  O   -0.307071   0.042349
    12  O   -0.217966   0.083060
    13  N   -0.367814   0.176637
    14  H   -0.119798   0.266154
    15  H   -0.123462   0.281673
    16  H   -0.386733   0.570175
    17  H   -0.241819   0.511676
    18  H    0.089105   0.111826
    19  H   -0.039824   0.211962
    20  H   -0.064540   0.233730
    21  H    0.058395   0.189301
    22  H   -0.402323   0.711325
    23  H    0.024182   0.202065
    24  H    0.098513   0.147857
 Sum of Mulliken charges =  -1.00000   1.00000

 Dipole moment (field-independent basis, Debye):
    X=             -2.0213    Y=             -0.7403    Z=              2.1148  Tot=              3.0177
 Quadrupole moment (field-independent basis, Debye-Ang):
   XX=           -153.0809   YY=           -114.4961   ZZ=           -116.0047
   XY=             -0.0954   XZ=              3.3972   YZ=              2.3919

 Summary of Natural Population Analysis:

                                       Natural Population
                Natural  -----------------------------------------------
    Atom  No    Charge         Core      Valence    Rydberg      Total
 -----------------------------------------------------------------------
      C    1   -0.28953      0.99964     2.28214    0.00775     3.28953
      C    2    0.01135      0.99949     1.97299    0.01616     2.98865
      C    3   -0.05203      0.99946     2.03780    0.01477     3.05203
      C    4   -0.15596      0.99944     2.14663    0.00989     3.15596
      S    5    0.20486      4.99942     2.77396    0.02177     7.79514
      C    6   -0.11316      0.99950     2.10123    0.01243     3.11316
      C    7   -0.11157      0.99941     2.10140    0.01076     3.11157
      C    8   -0.01985      0.99952     2.00771    0.01262     3.01985
      O    9   -0.36721      0.99990     3.36023    0.00708     4.36721
      C   10    0.41755      0.99965     1.55546    0.02734     2.58245
      O   11   -0.31001      0.99987     3.30332    0.00682     4.31001
      O   12   -0.33699      0.99987     3.32936    0.00777     4.33699
      N   13   -0.41955      0.99976     2.90877    0.01102     3.91955
      H   14    0.10784      0.00000     0.39035    0.00181     0.39216
      H   15    0.10297      0.00000     0.39531    0.00172     0.39703
      H   16    0.10387      0.00000     0.39453    0.00160     0.39613
      H   17    0.10924      0.00000     0.38952    0.00124     0.39076
      H   18    0.11394      0.00000     0.38452    0.00154     0.38606
      H   19    0.09009      0.00000     0.40809    0.00182     0.40991
      H   20    0.08279      0.00000     0.41525    0.00196     0.41721
      H   21    0.22887      0.00000     0.26719    0.00394     0.27113
      H   22    0.24270      0.00000     0.24269    0.01461     0.25730
      H   23    0.17528      0.00000     0.32311    0.00161     0.32472
      H   24    0.18451      0.00000     0.31347    0.00202     0.31549
 =======================================================================
   * Total *   -0.00000     16.99493    35.80505    0.20003    53.00000

 Normal termination of Gaussian 16 at Sun Dec 13 12:42:06 2020.
