 Gaussian 16, Revision A.03,

 -----------------------------------------------------------
 # opt freq B3LYP/6-31G(d) empiricaldispersion=gd3bj scf=xqc
 -----------------------------------------------------------

 ------------------------------
 CID_89153431_JID_7766_neutraal
 ------------------------------
 Symbolic Z-matrix:
 Charge =  0 Multiplicity = 1

 SCF Done:  E(RB3LYP) =  -1582.79654752     A.U. after   15 cycles
 SCF Done:  E(RB3LYP) =  -1582.80100663     A.U. after   13 cycles
 SCF Done:  E(RB3LYP) =  -1582.79820871     A.U. after   13 cycles
 SCF Done:  E(RB3LYP) =  -1582.80451206     A.U. after   12 cycles
 SCF Done:  E(RB3LYP) =  -1582.80395916     A.U. after   12 cycles
 SCF Done:  E(RB3LYP) =  -1582.80658035     A.U. after   12 cycles
 SCF Done:  E(RB3LYP) =  -1582.80781469     A.U. after   12 cycles
 SCF Done:  E(RB3LYP) =  -1582.80774452     A.U. after   12 cycles
 SCF Done:  E(RB3LYP) =  -1582.80817145     A.U. after   12 cycles
 SCF Done:  E(RB3LYP) =  -1582.80823097     A.U. after   11 cycles
 SCF Done:  E(RB3LYP) =  -1582.80859158     A.U. after   10 cycles
 SCF Done:  E(RB3LYP) =  -1582.80859355     A.U. after    8 cycles
 SCF Done:  E(RB3LYP) =  -1582.80859435     A.U. after    8 cycles
 SCF Done:  E(RB3LYP) =  -1582.80859457     A.U. after    8 cycles
 SCF Done:  E(RB3LYP) =  -1582.80859465     A.U. after    7 cycles
 Optimization completed.
    -- Stationary point found.
 Normal termination of Gaussian 16 at Fri Dec 11 13:31:32 2020.

 --------------------------------------------------------------------
 #N Geom=AllCheck Guess=TCheck SCRF=Check GenChk RB3LYP/6-31G(d) Freq
 --------------------------------------------------------------------

 Structure from the checkpoint file:  "JID_7766.chk"
 ------------------------------
 CID_89153431_JID_7766_neutraal
 ------------------------------
 Charge =  0 Multiplicity = 1

 SCF Done:  E(RB3LYP) =  -1582.80859465     A.U. after    1 cycles

  Exact polarizability: 167.639   3.988 141.687   2.003   1.151 130.665
 Approx polarizability: 220.484   6.545 218.883   0.860  -0.421 214.421

                      1                      2                      3
                      A                      A                      A
 Frequencies --     39.1628                64.1174                72.1018
 Red. masses --      4.7561                 4.8408                 8.4804
 Frc consts  --      0.0043                 0.0117                 0.0260
 IR Inten    --      1.1575                 0.9136                 3.1883

                      4                      5                      6
                      A                      A                      A
 Frequencies --     92.2320               112.0041               126.4910
 Red. masses --      2.6506                 2.4088                 5.3824
 Frc consts  --      0.0133                 0.0178                 0.0507
 IR Inten    --      4.5870                 0.4610                 1.1127

                      7                      8                      9
                      A                      A                      A
 Frequencies --    135.3075               142.7369               153.7244
 Red. masses --      2.3739                 2.3377                 2.4691
 Frc consts  --      0.0256                 0.0281                 0.0344
 IR Inten    --      1.4543                55.7583                13.0369

                     10                     11                     12
                      A                      A                      A
 Frequencies --    157.1030               188.3193               193.7409
 Red. masses --      1.8037                 3.0170                 1.5247
 Frc consts  --      0.0262                 0.0630                 0.0337
 IR Inten    --     29.3859                 6.7326                 2.6857

                     13                     14                     15
                      A                      A                      A
 Frequencies --    208.4228               222.5969               236.3307
 Red. masses --      2.1367                 1.3767                 3.2047
 Frc consts  --      0.0547                 0.0402                 0.1055
 IR Inten    --     23.4650                 9.0917                 2.7156

                     16                     17                     18
                      A                      A                      A
 Frequencies --    249.1992               256.5942               264.5662
 Red. masses --      2.6476                 3.3131                 2.8521
 Frc consts  --      0.0969                 0.1285                 0.1176
 IR Inten    --      1.3974                 2.0591                 1.5665

                     19                     20                     21
                      A                      A                      A
 Frequencies --    283.4106               300.4345               318.3683
 Red. masses --      2.6118                 1.8315                 3.0539
 Frc consts  --      0.1236                 0.0974                 0.1824
 IR Inten    --      2.4523                 2.7858                 6.2712

                     22                     23                     24
                      A                      A                      A
 Frequencies --    319.3849               335.6819               359.3225
 Red. masses --      1.8027                 3.5674                 1.8748
 Frc consts  --      0.1083                 0.2368                 0.1426
 IR Inten    --      0.7465                31.6649                11.8458

                     25                     26                     27
                      A                      A                      A
 Frequencies --    376.0789               388.5534               422.4368
 Red. masses --      2.5281                 3.4894                 3.6183
 Frc consts  --      0.2107                 0.3104                 0.3804
 IR Inten    --      5.0105                 6.8240                28.4406

                     28                     29                     30
                      A                      A                      A
 Frequencies --    423.0770               472.1328               475.5254
 Red. masses --      5.4339                 4.9438                 6.1138
 Frc consts  --      0.5731                 0.6493                 0.8145
 IR Inten    --      9.8499                 2.3936                11.9060

                     31                     32                     33
                      A                      A                      A
 Frequencies --    491.5252               502.9218               549.0195
 Red. masses --      3.1536                 3.3032                 5.8246
 Frc consts  --      0.4489                 0.4922                 1.0344
 IR Inten    --     24.4695                 2.5529                54.5345

                     34                     35                     36
                      A                      A                      A
 Frequencies --    606.8087               622.0311               659.3126
 Red. masses --      7.9991                 2.7662                 5.0595
 Frc consts  --      1.7354                 0.6306                 1.2958
 IR Inten    --     55.3371                95.9605                16.6234

                     37                     38                     39
                      A                      A                      A
 Frequencies --    666.2983               760.2958               798.0501
 Red. masses --      2.4987                 3.0372                 2.7271
 Frc consts  --      0.6536                 1.0344                 1.0233
 IR Inten    --     51.0704                42.3015               107.8062

                     40                     41                     42
                      A                      A                      A
 Frequencies --    808.0706               832.0552               845.7636
 Red. masses --      1.5048                 1.7776                 2.0333
 Frc consts  --      0.5789                 0.7251                 0.8569
 IR Inten    --     18.3166                88.1522                58.5162

                     43                     44                     45
                      A                      A                      A
 Frequencies --    860.3500               915.5134               959.6582
 Red. masses --      1.6746                 2.0704                 1.8212
 Frc consts  --      0.7303                 1.0224                 0.9882
 IR Inten    --     15.3565                 3.8489                 8.3226

                     46                     47                     48
                      A                      A                      A
 Frequencies --   1006.3562              1040.2033              1055.7376
 Red. masses --      1.9858                 1.4762                 2.8587
 Frc consts  --      1.1849                 0.9411                 1.8773
 IR Inten    --      0.9883                 8.2396                10.5483

                     49                     50                     51
                      A                      A                      A
 Frequencies --   1070.7246              1080.6909              1092.9315
 Red. masses --      3.3758                 1.7344                 1.8756
 Frc consts  --      2.2802                 1.1934                 1.3200
 IR Inten    --     71.8295                19.7657                 9.4978

                     52                     53                     54
                      A                      A                      A
 Frequencies --   1102.8665              1111.1416              1133.3778
 Red. masses --      5.0304                 3.2997                 1.5962
 Frc consts  --      3.6049                 2.4003                 1.2081
 IR Inten    --     97.7369                81.1427                 2.4507

                     55                     56                     57
                      A                      A                      A
 Frequencies --   1154.2562              1156.8896              1166.0343
 Red. masses --      1.3231                 2.1786                 1.5894
 Frc consts  --      1.0386                 1.7180                 1.2732
 IR Inten    --      6.6994                 5.0891                12.4946

                     58                     59                     60
                      A                      A                      A
 Frequencies --   1170.0866              1177.2283              1207.3043
 Red. masses --      1.7479                 2.5100                 2.1654
 Frc consts  --      1.4099                 2.0495                 1.8596
 IR Inten    --    128.4688                 6.8966                 3.2020

                     61                     62                     63
                      A                      A                      A
 Frequencies --   1235.8213              1291.4401              1295.6333
 Red. masses --      2.7282                 6.7020                 1.3266
 Frc consts  --      2.4549                 6.5857                 1.3121
 IR Inten    --      1.7699               121.3093                34.0598

                     64                     65                     66
                      A                      A                      A
 Frequencies --   1304.6333              1335.0847              1355.7363
 Red. masses --      1.3841                 1.1659                 4.3022
 Frc consts  --      1.3881                 1.2244                 4.6589
 IR Inten    --     48.3907                 1.4932               172.1190

                     67                     68                     69
                      A                      A                      A
 Frequencies --   1366.6959              1384.0530              1398.4833
 Red. masses --      1.2439                 1.2233                 1.4260
 Frc consts  --      1.3690                 1.3807                 1.6432
 IR Inten    --      2.3711                 1.5686                 3.5997

                     70                     71                     72
                      A                      A                      A
 Frequencies --   1402.6538              1432.5319              1435.9403
 Red. masses --      1.3478                 1.2900                 1.2421
 Frc consts  --      1.5623                 1.5597                 1.5089
 IR Inten    --      4.5844                 4.8176                25.6686

                     73                     74                     75
                      A                      A                      A
 Frequencies --   1449.1315              1451.5435              1453.9212
 Red. masses --      1.2338                 1.2255                 1.2280
 Frc consts  --      1.5265                 1.5214                 1.5294
 IR Inten    --      1.5883                 7.0018                11.7639

                     76                     77                     78
                      A                      A                      A
 Frequencies --   1481.7101              1502.7451              1516.8297
 Red. masses --      1.1477                 1.0688                 1.0454
 Frc consts  --      1.4845                 1.4220                 1.4171
 IR Inten    --      0.1792                 7.9714                 1.6935

                     79                     80                     81
                      A                      A                      A
 Frequencies --   1521.2465              1523.7899              1531.7442
 Red. masses --      1.0638                 1.0644                 1.0446
 Frc consts  --      1.4505                 1.4562                 1.4441
 IR Inten    --      5.7547                 4.7670                 1.0647

                     82                     83                     84
                      A                      A                      A
 Frequencies --   1533.7412              1540.6356              1543.8149
 Red. masses --      1.0496                 1.0527                 1.0500
 Frc consts  --      1.4547                 1.4722                 1.4744
 IR Inten    --      5.1158                17.6557                 0.2227

                     85                     86                     87
                      A                      A                      A
 Frequencies --   1544.5940              1545.8919              1550.3232
 Red. masses --      1.0532                 1.0501                 1.0511
 Frc consts  --      1.4804                 1.4785                 1.4885
 IR Inten    --     16.2941                 9.7596                 2.6382

                     88                     89                     90
                      A                      A                      A
 Frequencies --   3052.8092              3053.1426              3053.8991
 Red. masses --      1.0718                 1.0664                 1.0530
 Frc consts  --      5.8850                 5.8569                 5.7862
 IR Inten    --     13.1232                 4.2034                29.6750

                     91                     92                     93
                      A                      A                      A
 Frequencies --   3066.7575              3067.1579              3077.9808
 Red. masses --      1.0374                 1.0376                 1.0384
 Frc consts  --      5.7487                 5.7510                 5.7964
 IR Inten    --     17.6961                42.8777                11.5920

                     94                     95                     96
                      A                      A                      A
 Frequencies --   3079.6268              3083.9325              3105.1413
 Red. masses --      1.0700                 1.0622                 1.0967
 Frc consts  --      5.9790                 5.9520                 6.2303
 IR Inten    --     14.0992                 6.7901                 2.8777

                     97                     98                     99
                      A                      A                      A
 Frequencies --   3119.3248              3123.5031              3128.6826
 Red. masses --      1.0974                 1.1011                 1.0995
 Frc consts  --      6.2912                 6.3294                 6.3413
 IR Inten    --     18.3737                 1.9660                33.0314

                    100                    101                    102
                      A                      A                      A
 Frequencies --   3138.1774              3144.1513              3153.0109
 Red. masses --      1.1035                 1.1025                 1.0988
 Frc consts  --      6.4029                 6.4213                 6.4361
 IR Inten    --     13.1505                11.1751                 8.3422

                    103                    104                    105
                      A                      A                      A
 Frequencies --   3157.2302              3171.1047              3171.5258
 Red. masses --      1.1010                 1.1020                 1.0954
 Frc consts  --      6.4662                 6.5290                 6.4917
 IR Inten    --     17.8643                 9.3180                 2.8092

                    106                    107                    108
                      A                      A                      A
 Frequencies --   3188.1564              3534.2672              3712.7588
 Red. masses --      1.1003                 1.0754                 1.0660
 Frc consts  --      6.5895                 7.9141                 8.6576
 IR Inten    --      3.3910                32.7406                89.7917

 - Thermochemistry -
 -------------------
 Temperature   298.150 Kelvin.  Pressure   1.00000 Atm.
 Atom     1 has atomic number  6 and mass  12.00000

 Molecular mass:   287.08612 amu.
 Principal axes and moments of inertia in atomic units:
                           1         2         3
     Eigenvalues --  2648.409906980.997877709.47380
           X            0.99962   0.02745  -0.00114
           Y           -0.02743   0.99947   0.01758
           Z            0.00162  -0.01754   0.99984
 This molecule is an asymmetric top.
 Rotational symmetry number  1.
 Warning -- assumption of classical behavior for rotation
           may cause significant error
 Rotational temperatures (Kelvin)      0.03270     0.01241     0.01123
 Rotational constants (GHZ):           0.68144     0.25852     0.23409
 Zero-point vibrational energy     839212.5 (Joules/Mol)
                                  200.57660 (Kcal/Mol)
 Warning -- explicit consideration of  34 degrees of freedom as
           vibrations may cause significant error
 Vibrational temperatures:     56.35    92.25   103.74   132.70   161.15
          (Kelvin)            181.99   194.68   205.37   221.18   226.04
                              270.95   278.75   299.87   320.27   340.03
                              358.54   369.18   380.65   407.76   432.26
                              458.06   459.52   482.97   516.98   541.09
                              559.04   607.79   608.71   679.29   684.17
                              707.20   723.59   789.92   873.06   894.96
                              948.60   958.65  1093.90  1148.22  1162.63
                             1197.14  1216.87  1237.85  1317.22  1380.73
                             1447.92  1496.62  1518.97  1540.53  1554.87
                             1572.48  1586.78  1598.69  1630.68  1660.72
                             1664.51  1677.66  1683.49  1693.77  1737.04
                             1778.07  1858.09  1864.13  1877.08  1920.89
                             1950.60  1966.37  1991.34  2012.11  2018.11
                             2061.09  2066.00  2084.98  2088.45  2091.87
                             2131.85  2162.12  2182.38  2188.73  2192.39
                             2203.84  2206.71  2216.63  2221.21  2222.33
                             2224.19  2230.57  4392.31  4392.79  4393.88
                             4412.38  4412.96  4428.53  4430.90  4437.09
                             4467.61  4488.01  4494.02  4501.48  4515.14
                             4523.73  4536.48  4542.55  4562.51  4563.12
                             4587.05  5085.02  5341.83

 Zero-point correction=                           0.319639 (Hartree/Particle)
 Thermal correction to Energy=                    0.340212
 Thermal correction to Enthalpy=                  0.341156
 Thermal correction to Gibbs Free Energy=         0.272122
 Sum of electronic and zero-point Energies=          -1582.488955
 Sum of electronic and thermal Energies=             -1582.468382
 Sum of electronic and thermal Enthalpies=           -1582.467438
 Sum of electronic and thermal Free Energies=        -1582.536473

                     E (Thermal)             CV                S
                      KCal/Mol        Cal/Mol-Kelvin    Cal/Mol-Kelvin
 Total                  213.486             76.756            145.296
 Electronic               0.000              0.000              0.000
 Translational            0.889              2.981             42.862
 Rotational               0.889              2.981             33.321
 Vibrational            211.709             70.795             69.113
 Vibration     1          0.594              1.981              5.301
 Vibration     2          0.597              1.971              4.326
 Vibration     3          0.598              1.967              4.095
 Vibration     4          0.602              1.955              3.612
 Vibration     5          0.607              1.940              3.234
 Vibration     6          0.611              1.927              2.999
 Vibration     7          0.613              1.918              2.869
 Vibration     8          0.616              1.910              2.767
 Vibration     9          0.619              1.899              2.626
 Vibration    10          0.621              1.895              2.584
 Vibration    11          0.633              1.856              2.244
 Vibration    12          0.635              1.849              2.192
 Vibration    13          0.642              1.828              2.057
 Vibration    14          0.648              1.807              1.938
 Vibration    15          0.655              1.785              1.830
 Vibration    16          0.662              1.764              1.736
 Vibration    17          0.666              1.752              1.685
 Vibration    18          0.671              1.738              1.631
 Vibration    19          0.682              1.704              1.513
 Vibration    20          0.693              1.673              1.414
 Vibration    21          0.705              1.638              1.318
 Vibration    22          0.705              1.636              1.313
 Vibration    23          0.717              1.604              1.233
 Vibration    24          0.734              1.556              1.125
 Vibration    25          0.747              1.521              1.055
 Vibration    26          0.757              1.495              1.006
 Vibration    27          0.785              1.421              0.884
 Vibration    28          0.785              1.420              0.882
 Vibration    29          0.829              1.312              0.732
 Vibration    30          0.832              1.304              0.722
 Vibration    31          0.847              1.269              0.680
 Vibration    32          0.858              1.244              0.651
 Vibration    33          0.904              1.142              0.546
 Vibration    34          0.966              1.017              0.438

 Optimization completed.
    -- Stationary point found.
 Normal termination of Gaussian 16 at Fri Dec 11 13:51:37 2020.

 ----------------------------------------------------------------------
 # B3LYP/6-311++G(d,p) empiricaldispersion=gd3bj scf=xqc pop=npa geom=c
 heck
 ----------------------------------------------------------------------

 --------------------------------------
 CID_89153431_JID_7766_Energie_neutraal
 --------------------------------------
 Structure from the checkpoint file:  "JID_7766.chk"
 Charge =  0 Multiplicity = 1

 SCF Done:  E(RB3LYP) =  -1583.10327194     A.U. after   16 cycles
 Normal termination of Gaussian 16 at Fri Dec 11 14:01:24 2020.

 ----------------------------------------------------------------------
 # B3LYP/6-311++G(d,p) empiricaldispersion=gd3bj scf=xqc pop=npa geom=c
 heck
 ----------------------------------------------------------------------

 ------------------------------------
 CID_89153431_JID_7766_Energie_kation
 ------------------------------------
 Structure from the checkpoint file:  "JID_7766.chk"
 Charge =  1 Multiplicity = 2

 SCF Done:  E(UB3LYP) =  -1582.74433997     A.U. after   33 cycles
 SCF Done:  E(UB3LYP) =  -1582.74435862     a.u. after    4 cycles
 Normal termination of Gaussian 16 at Fri Dec 11 15:45:40 2020.
 Gaussian 16:  ES64L-G16RevA.03 25-Dec-2016

 ----------------------------------------------------------------------
 # B3LYP/6-311++G(d,p) empiricaldispersion=gd3bj scf=xqc pop=npa geom=c
 heck
 ----------------------------------------------------------------------

 -----------------------------------
 CID_89153431_JID_7766_Energie_anion
 -----------------------------------
 Structure from the checkpoint file:  "JID_7766.chk"
 Charge = -1 Multiplicity = 2

                         Standard orientation:
 ---------------------------------------------------------------------
 Center     Atomic      Atomic             Coordinates (Angstroms)
 Number     Number       Type             X           Y           Z
 ---------------------------------------------------------------------
      1          6           0        0.780767    2.814809    1.165640
      2          6           0        1.491630    1.871097    0.190034
      3          6           0        1.612832    0.453263    0.764306
      4          6           0        0.351456   -0.397440    1.010890
      5          6           0       -0.699727   -0.764144   -0.068709
      6          6           0       -0.146527   -1.092076   -1.456897
      7          6           0       -1.507870   -1.989343    0.438667
      8          6           0       -2.065435   -1.949960    1.866083
      9         16           0       -1.865687    0.671078   -0.294798
     10          8           0       -2.323835    1.111481    1.033937
     11          8           0       -1.273258    1.635731   -1.235549
     12          7           0       -3.171273   -0.007636   -1.147007
     13          6           0       -4.435330   -0.191890   -0.419656
     14         16           0        2.961216   -0.468697   -0.076325
     15          8           0        4.222436    0.077948    0.408009
     16          8           0        2.704893   -1.915046   -0.042218
     17          8           0        2.814331   -0.008653   -1.656715
     18          1           0       -0.244710    2.500203    1.373810
     19          1           0        0.733694    3.821217    0.738280
     20          1           0        1.323131    2.878041    2.117031
     21          1           0        0.964455    1.850171   -0.763567
     22          1           0        2.503133    2.247004    0.002153
     23          1           0        2.081642    0.541275    1.752965
     24          1           0        0.706815   -1.354273    1.404903
     25          1           0       -0.178614    0.088493    1.834935
     26          1           0        0.550456   -1.929300   -1.364251
     27          1           0       -0.962717   -1.390974   -2.121007
     28          1           0        0.365910   -0.239243   -1.900391
     29          1           0       -2.312201   -2.181566   -0.277942
     30          1           0       -0.816799   -2.837635    0.353693
     31          1           0       -2.707714   -1.083354    2.036801
     32          1           0       -2.649208   -2.857898    2.051384
     33          1           0       -1.266731   -1.919682    2.613340
     34          1           0       -3.273547    0.560941   -1.984872
     35          1           0       -4.804639    0.725886    0.049956
     36          1           0       -5.171464   -0.558430   -1.139829
     37          1           0       -4.307677   -0.951721    0.352530
     38          1           0        2.689918   -0.831373   -2.164781
 ---------------------------------------------------------------------

 SCF Done:  E(UB3LYP) =  -1583.09723193     A.U. after   29 cycles

 The electronic state is 2-A.
 Alpha  occ. eigenvalues --  -88.99079 -88.96861 -19.08727 -19.04451 -19.04201
 Alpha  occ. eigenvalues --  -19.03257 -19.02922 -14.25410 -10.14591 -10.14468
 Alpha  occ. eigenvalues --  -10.11289 -10.11214 -10.09471 -10.09341 -10.07886
 Alpha  occ. eigenvalues --  -10.07852 -10.07583  -8.05260  -8.03176  -6.01658
 Alpha  occ. eigenvalues --   -6.01457  -6.01245  -5.99461  -5.99436  -5.99189
 Alpha  occ. eigenvalues --   -1.06316  -1.02961  -0.95504  -0.93554  -0.92193
 Alpha  occ. eigenvalues --   -0.83330  -0.77221  -0.73525  -0.66501  -0.65627
 Alpha  occ. eigenvalues --   -0.62411  -0.61736  -0.57393  -0.55578  -0.54426
 Alpha  occ. eigenvalues --   -0.52343  -0.47526  -0.45118  -0.43781  -0.43036
 Alpha  occ. eigenvalues --   -0.41661  -0.40652  -0.40102  -0.38861  -0.37425
 Alpha  occ. eigenvalues --   -0.36696  -0.35915  -0.35738  -0.35502  -0.34295
 Alpha  occ. eigenvalues --   -0.33242  -0.32496  -0.31844  -0.31663  -0.31080
 Alpha  occ. eigenvalues --   -0.30203  -0.29714  -0.28735  -0.27925  -0.27064
 Alpha  occ. eigenvalues --   -0.26707  -0.26261  -0.25965  -0.25503  -0.25057
 Alpha  occ. eigenvalues --   -0.23704  -0.23254  -0.22869  -0.22507  -0.22286
 Alpha  occ. eigenvalues --   -0.20905  -0.18576   0.03716
 Alpha virt. eigenvalues --    0.05461   0.06309   0.06893   0.08225   0.08430
 Alpha virt. eigenvalues --    0.08922   0.09493   0.09829   0.10632   0.10856
 Alpha virt. eigenvalues --    0.11156   0.11845   0.11992   0.12599   0.12949

  Beta  occ. eigenvalues --  -88.99065 -88.96860 -19.08660 -19.04432 -19.04186
  Beta  occ. eigenvalues --  -19.03247 -19.02916 -14.25389 -10.14587 -10.14444
  Beta  occ. eigenvalues --  -10.11235 -10.11202 -10.09453 -10.09336 -10.07878
  Beta  occ. eigenvalues --  -10.07826 -10.07564  -8.05243  -8.03175  -6.01637
  Beta  occ. eigenvalues --   -6.01446  -6.01234  -5.99461  -5.99435  -5.99186
  Beta  occ. eigenvalues --   -1.06238  -1.02946  -0.95370  -0.93509  -0.92177
  Beta  occ. eigenvalues --   -0.83288  -0.77194  -0.73493  -0.66474  -0.65595
  Beta  occ. eigenvalues --   -0.62340  -0.61676  -0.57326  -0.55523  -0.54373
  Beta  occ. eigenvalues --   -0.52292  -0.47478  -0.45083  -0.43746  -0.43005
  Beta  occ. eigenvalues --   -0.41630  -0.40615  -0.40048  -0.38827  -0.37392
  Beta  occ. eigenvalues --   -0.36669  -0.35878  -0.35718  -0.35475  -0.34244
  Beta  occ. eigenvalues --   -0.33207  -0.32466  -0.31828  -0.31634  -0.31028
  Beta  occ. eigenvalues --   -0.30167  -0.29687  -0.28696  -0.27900  -0.27034
  Beta  occ. eigenvalues --   -0.26673  -0.26220  -0.25933  -0.25474  -0.25028
  Beta  occ. eigenvalues --   -0.23672  -0.23232  -0.22835  -0.22465  -0.22270
  Beta  occ. eigenvalues --   -0.20883  -0.18549
  Beta virt. eigenvalues --    0.05915   0.06639   0.07038   0.07297   0.08581
  Beta virt. eigenvalues --    0.08848   0.09268   0.09761   0.09989   0.10996
  Beta virt. eigenvalues --    0.11213   0.11350   0.11902   0.12127   0.12731

 Mulliken charges and spin densities:
               1          2
     1  C   -0.515605  -0.132709
     2  C   -0.357367   0.061272
     3  C   -0.664151   0.098666
     4  C   -0.434637  -0.311613
     5  C   -0.199220   0.585186
     6  C    0.109912  -0.758560
     7  C   -0.603883   0.374444
     8  C    0.348333  -0.895347
     9  S    0.997139  -1.049836
    10  O   -0.134588   0.038251
    11  O   -0.148066   0.020225
    12  N   -0.581275   0.366943
    13  C    0.973676  -1.305038
    14  S    0.957921  -0.795200
    15  O   -0.110937   0.032480
    16  O   -0.213687   0.023135
    17  O   -0.081341  -0.037290
    18  H    0.220475  -0.010489
    19  H    0.065596   0.070180
    20  H    0.081354   0.042493
    21  H    0.258695  -0.002869
    22  H    0.139560   0.068173
    23  H    0.187322   0.124591
    24  H    0.063938   0.183270
    25  H    0.119861   0.101554
    26  H   -0.135610   0.365567
    27  H   -0.205919   0.376377
    28  H    0.182206   0.026455
    29  H   -0.030445   0.270412
    30  H    0.017856   0.153623
    31  H    0.189121  -0.008447
    32  H   -0.317614   0.483621
    33  H    0.058574   0.076468
    34  H   -0.015357   0.337368
    35  H   -0.027072   0.206503
    36  H   -0.854079   1.029171
    37  H   -0.125154   0.294359
    38  H   -0.215529   0.496613
 Sum of Mulliken charges =  -1.00000   1.00000

 Dipole moment (field-independent basis, Debye):
    X=              3.3877    Y=              2.7137    Z=              3.8157  Tot=              5.7793
 Quadrupole moment (field-independent basis, Debye-Ang):
   XX=           -220.1004   YY=           -160.6912   ZZ=           -159.7863
   XY=             -2.5540   XZ=             -6.8430   YZ=             -1.3774

 Summary of Natural Population Analysis:

                                       Natural Population
                Natural  -----------------------------------------------
    Atom  No    Charge         Core      Valence    Rydberg      Total
 -----------------------------------------------------------------------
      C    1   -0.28786      0.99966     2.28311    0.00509     3.28786
      C    2   -0.20848      0.99959     2.20086    0.00803     3.20848
      C    3   -0.18573      0.99952     2.17048    0.01573     3.18573
      C    4   -0.22035      0.99953     2.20688    0.01393     3.22035
      C    5   -0.10352      0.99952     2.08489    0.01911     3.10352
      C    6   -0.31001      0.99960     2.29887    0.01154     3.31001
      C    7   -0.20337      0.99958     2.19281    0.01099     3.20337
      C    8   -0.29336      0.99965     2.28801    0.00570     3.29336
      S    9    1.08935      4.99916     1.81291    0.09859     6.91065
      O   10   -0.46796      0.99991     3.46290    0.00515     4.46796
      O   11   -0.46858      0.99991     3.46326    0.00542     4.46858
      N   12   -0.43650      0.99977     2.92244    0.01429     3.93650
      C   13   -0.18199      0.99963     2.17230    0.01006     3.18199
      S   14    1.12031      4.99931     1.78097    0.09942     6.87969
      O   15   -0.45152      0.99990     3.44609    0.00553     4.45152
      O   16   -0.46120      0.99991     3.45551    0.00578     4.46120
      O   17   -0.43569      0.99991     3.42960    0.00618     4.43569
      H   18    0.10904      0.00000     0.38979    0.00117     0.39096
      H   19    0.10235      0.00000     0.39687    0.00078     0.39765
      H   20    0.09240      0.00000     0.40672    0.00088     0.40760
      H   21    0.11983      0.00000     0.37871    0.00146     0.38017
      H   22    0.10528      0.00000     0.39350    0.00122     0.39472
      H   23    0.11752      0.00000     0.38113    0.00135     0.38248
      H   24    0.11945      0.00000     0.37914    0.00141     0.38055
      H   25    0.12241      0.00000     0.37634    0.00125     0.37759
      H   26    0.11233      0.00000     0.38601    0.00166     0.38767
      H   27    0.11328      0.00000     0.38494    0.00178     0.38672
      H   28    0.11443      0.00000     0.38397    0.00160     0.38557
      H   29    0.11172      0.00000     0.38643    0.00185     0.38828
      H   30    0.10531      0.00000     0.39337    0.00133     0.39469
      H   31    0.10803      0.00000     0.39088    0.00109     0.39197
      H   32    0.10287      0.00000     0.39632    0.00082     0.39713
      H   33    0.09717      0.00000     0.40196    0.00088     0.40283
      H   34    0.20058      0.00000     0.29658    0.00284     0.29942
      H   35    0.09454      0.00000     0.40405    0.00141     0.40546
      H   36    0.10667      0.00000     0.38959    0.00374     0.39333
      H   37    0.09888      0.00000     0.39975    0.00137     0.40112
      H   38    0.25239      0.00000     0.24037    0.00724     0.24761
 =======================================================================
   * Total *    0.00000     24.99405    51.62831    0.37763    77.00000

 Normal termination of Gaussian 16 at Fri Dec 11 16:08:39 2020.
