 Gaussian 16, Revision A.03,

 -----------------------------------------------------------
 # opt freq B3LYP/6-31G(d) empiricaldispersion=gd3bj scf=xqc
 -----------------------------------------------------------

 -------------------------------
 CID_114804463_JID_8665_neutraal
 -------------------------------
 Symbolic Z-matrix:
 Charge =  0 Multiplicity = 1

 SCF Done:  E(RB3LYP) =  -1213.67281667     A.U. after   14 cycles
 SCF Done:  E(RB3LYP) =  -1213.68348473     A.U. after   12 cycles
 SCF Done:  E(RB3LYP) =  -1213.68567906     A.U. after   12 cycles
 SCF Done:  E(RB3LYP) =  -1213.68654496     A.U. after   12 cycles
 SCF Done:  E(RB3LYP) =  -1213.68677495     A.U. after   11 cycles
 SCF Done:  E(RB3LYP) =  -1213.68684091     A.U. after   11 cycles
 SCF Done:  E(RB3LYP) =  -1213.68686069     A.U. after   10 cycles
 SCF Done:  E(RB3LYP) =  -1213.68686579     A.U. after    9 cycles
 SCF Done:  E(RB3LYP) =  -1213.68686685     A.U. after    8 cycles
 SCF Done:  E(RB3LYP) =  -1213.68686711     A.U. after    7 cycles
 SCF Done:  E(RB3LYP) =  -1213.68686719     A.U. after    7 cycles
 SCF Done:  E(RB3LYP) =  -1213.68686722     A.U. after    6 cycles
 Optimization completed.
    -- Stationary point found.
 Normal termination of Gaussian 16 at Fri Dec 11 21:22:24 2020.

 --------------------------------------------------------------------
 #N Geom=AllCheck Guess=TCheck SCRF=Check GenChk RB3LYP/6-31G(d) Freq
 --------------------------------------------------------------------

 Structure from the checkpoint file:  "JID_8665.chk"
 -------------------------------
 CID_114804463_JID_8665_neutraal
 -------------------------------
 Charge =  0 Multiplicity = 1

 SCF Done:  E(RB3LYP) =  -1213.68686722     A.U. after    1 cycles

  Exact polarizability: 233.425  -1.500 142.780  -9.230   0.349 105.534
 Approx polarizability: 289.972   1.794 249.092 -21.319   3.235 174.479

                      1                      2                      3
                      A                      A                      A
 Frequencies --     28.7190                38.1806                49.6460
 Red. masses --      5.2778                 5.4301                 4.0432
 Frc consts  --      0.0026                 0.0047                 0.0059
 IR Inten    --      0.6607                 1.3081                 2.3915

                      4                      5                      6
                      A                      A                      A
 Frequencies --     73.6608                98.2508               122.2374
 Red. masses --      4.2370                 3.5416                 4.9663
 Frc consts  --      0.0135                 0.0201                 0.0437
 IR Inten    --      1.9989                 2.7724                 1.6169

                      7                      8                      9
                      A                      A                      A
 Frequencies --    163.2965               177.9357               210.5018
 Red. masses --      2.4634                 1.3528                 3.4290
 Frc consts  --      0.0387                 0.0252                 0.0895
 IR Inten    --      2.4233                 1.3234                 4.6305

                     10                     11                     12
                      A                      A                      A
 Frequencies --    212.3106               247.3339               262.2738
 Red. masses --      4.1610                 5.5036                 3.7383
 Frc consts  --      0.1105                 0.1984                 0.1515
 IR Inten    --      1.1709                 0.2859                 5.1447

                     13                     14                     15
                      A                      A                      A
 Frequencies --    304.1560               335.0523               349.0366
 Red. masses --      2.5413                 2.0483                 1.4850
 Frc consts  --      0.1385                 0.1355                 0.1066
 IR Inten    --      3.2787                13.0502                38.3977

                     16                     17                     18
                      A                      A                      A
 Frequencies --    378.3314               385.1973               404.3754
 Red. masses --      2.5712                 3.2661                 3.0407
 Frc consts  --      0.2168                 0.2855                 0.2929
 IR Inten    --      5.6229                 4.9877                17.1703

                     19                     20                     21
                      A                      A                      A
 Frequencies --    408.4264               436.8322               457.8541
 Red. masses --      4.4700                 4.0101                 3.5177
 Frc consts  --      0.4393                 0.4508                 0.4345
 IR Inten    --      7.2673                18.2223                 7.8309

                     22                     23                     24
                      A                      A                      A
 Frequencies --    467.3003               482.6435               511.3997
 Red. masses --      3.0218                 3.6229                 5.0928
 Frc consts  --      0.3888                 0.4972                 0.7847
 IR Inten    --      7.2600                17.0626                21.3113

                     25                     26                     27
                      A                      A                      A
 Frequencies --    522.2712               546.1420               554.2622
 Red. masses --      4.0442                 3.6311                 2.6646
 Frc consts  --      0.6499                 0.6381                 0.4823
 IR Inten    --     11.9355                 3.8917                99.8478

                     28                     29                     30
                      A                      A                      A
 Frequencies --    611.7737               640.2613               643.3480
 Red. masses --      2.8028                 2.0720                 2.4162
 Frc consts  --      0.6180                 0.5004                 0.5892
 IR Inten    --    125.5830               134.3015               209.8947

                     31                     32                     33
                      A                      A                      A
 Frequencies --    660.3071               670.9496               734.6214
 Red. masses --      6.4978                 2.4505                 3.2205
 Frc consts  --      1.6692                 0.6500                 1.0240
 IR Inten    --      4.6152                77.7464                 2.4880

                     34                     35                     36
                      A                      A                      A
 Frequencies --    769.3887               832.9429               846.1926
 Red. masses --      5.1196                 1.6338                 2.0883
 Frc consts  --      1.7856                 0.6679                 0.8810
 IR Inten    --     21.9735                33.1090               137.5826

                     37                     38                     39
                      A                      A                      A
 Frequencies --    860.8741               871.0376               906.3795
 Red. masses --      1.5953                 4.3065                 4.2385
 Frc consts  --      0.6966                 1.9251                 2.0515
 IR Inten    --      6.0339                 4.2525                53.6331

                     40                     41                     42
                      A                      A                      A
 Frequencies --    925.3285               954.3971               961.2125
 Red. masses --      1.4450                 2.1658                 2.9472
 Frc consts  --      0.7290                 1.1623                 1.6043
 IR Inten    --      4.2702                83.2095               124.2021

                     43                     44                     45
                      A                      A                      A
 Frequencies --    966.0557              1035.7918              1055.3754
 Red. masses --      1.4299                 3.0113                 2.1700
 Frc consts  --      0.7862                 1.9035                 1.4240
 IR Inten    --      6.3481                 5.2913                 6.2940

                     46                     47                     48
                      A                      A                      A
 Frequencies --   1071.4315              1076.0358              1085.1826
 Red. masses --      2.5896                 2.7589                 1.7493
 Frc consts  --      1.7515                 1.8821                 1.2137
 IR Inten    --     23.9984                53.2738                10.2395

                     49                     50                     51
                      A                      A                      A
 Frequencies --   1101.4069              1120.9524              1149.6395
 Red. masses --      1.5681                 9.4681                 2.2643
 Frc consts  --      1.1208                 7.0095                 1.7632
 IR Inten    --     14.2010               109.0426                18.6754

                     52                     53                     54
                      A                      A                      A
 Frequencies --   1156.2728              1167.7244              1171.5442
 Red. masses --      1.3927                 2.0636                 2.6112
 Frc consts  --      1.0971                 1.6579                 2.1115
 IR Inten    --      9.9399                 9.9570                56.0596

                     55                     56                     57
                      A                      A                      A
 Frequencies --   1174.4745              1204.6247              1246.2806
 Red. masses --      1.1894                 4.5095                 1.1092
 Frc consts  --      0.9666                 3.8555                 1.0150
 IR Inten    --     10.9853                 0.3079                 6.2423

                     58                     59                     60
                      A                      A                      A
 Frequencies --   1270.2067              1301.9882              1316.3890
 Red. masses --      1.6837                 1.4388                 9.9487
 Frc consts  --      1.6005                 1.4370                10.1575
 IR Inten    --    114.2956                39.8423               192.5162

                     61                     62                     63
                      A                      A                      A
 Frequencies --   1332.6807              1344.4753              1369.2643
 Red. masses --      3.4684                 2.2042                 1.7131
 Frc consts  --      3.6294                 2.3475                 1.8924
 IR Inten    --      5.2190                39.8473                10.2703

                     64                     65                     66
                      A                      A                      A
 Frequencies --   1371.6491              1379.6518              1386.9325
 Red. masses --      1.3563                 1.3476                 1.6827
 Frc consts  --      1.5034                 1.5113                 1.9070
 IR Inten    --      3.7741                 5.0030                 3.2760

                     67                     68                     69
                      A                      A                      A
 Frequencies --   1407.2056              1416.1711              1434.1169
 Red. masses --      1.3512                 1.3622                 1.3100
 Frc consts  --      1.5765                 1.6096                 1.5874
 IR Inten    --     18.5264                32.4009                14.9962

                     70                     71                     72
                      A                      A                      A
 Frequencies --   1439.5482              1451.8326              1472.2405
 Red. masses --      1.4541                 4.0594                 1.1544
 Frc consts  --      1.7754                 5.0413                 1.4742
 IR Inten    --     34.7854                94.5073                 1.3004

                     73                     74                     75
                      A                      A                      A
 Frequencies --   1503.3438              1513.7111              1518.8538
 Red. masses --      1.0832                 1.0897                 1.0458
 Frc consts  --      1.4424                 1.4710                 1.4215
 IR Inten    --      4.9079                14.1222                 3.7851

                     76                     77                     78
                      A                      A                      A
 Frequencies --   1521.1662              1532.9570              1542.1869
 Red. masses --      1.0868                 1.1292                 1.0448
 Frc consts  --      1.4817                 1.5635                 1.4640
 IR Inten    --      4.9365                62.5131                10.4514

                     79                     80                     81
                      A                      A                      A
 Frequencies --   1552.7650              1621.7514              1660.6461
 Red. masses --      2.4019                 5.9767                 1.6415
 Frc consts  --      3.4120                 9.2615                 2.6672
 IR Inten    --    238.8856                16.0683                37.5793

                     82                     83                     84
                      A                      A                      A
 Frequencies --   1683.3354              2967.0529              3017.8259
 Red. masses --      2.5580                 1.0717                 1.0703
 Frc consts  --      4.2706                 5.5586                 5.7432
 IR Inten    --    136.7774                35.9808                22.7587

                     85                     86                     87
                      A                      A                      A
 Frequencies --   3057.7336              3067.3841              3073.1067
 Red. masses --      1.0369                 1.0677                 1.0699
 Frc consts  --      5.7120                 5.9189                 5.9529
 IR Inten    --     44.2056                12.8791                35.7672

                     88                     89                     90
                      A                      A                      A
 Frequencies --   3101.5366              3119.8087              3133.1290
 Red. masses --      1.0906                 1.0936                 1.1009
 Frc consts  --      6.1810                 6.2713                 6.3673
 IR Inten    --     28.5394                21.9270                15.8969

                     91                     92                     93
                      A                      A                      A
 Frequencies --   3150.4973              3162.3901              3169.5098
 Red. masses --      1.0981                 1.1041                 1.0964
 Frc consts  --      6.4215                 6.5053                 6.4894
 IR Inten    --      7.3903                11.6800                 2.1289

                     94                     95                     96
                      A                      A                      A
 Frequencies --   3185.7726              3192.9350              3203.6284
 Red. masses --      1.0873                 1.0893                 1.0952
 Frc consts  --      6.5019                 6.5430                 6.6228
 IR Inten    --     24.3322                22.8304                13.0448

                     97                     98                     99
                      A                      A                      A
 Frequencies --   3535.1621              3555.2304              3663.7576
 Red. masses --      1.0751                 1.0471                 1.0991
 Frc consts  --      7.9160                 7.7981                 8.6923
 IR Inten    --     27.2825                26.0735                15.7742

 - Thermochemistry -
 -------------------
 Temperature   298.150 Kelvin.  Pressure   1.00000 Atm.
 Atom     1 has atomic number  6 and mass  12.00000

 Molecular mass:   271.11030 amu.
 Principal axes and moments of inertia in atomic units:
                           1         2         3
     Eigenvalues --  1392.28191********************
           X            0.99998  -0.00472  -0.00349
           Y            0.00456   0.99902  -0.04405
           Z            0.00369   0.04404   0.99902
 This molecule is an asymmetric top.
 Rotational symmetry number  1.
 Warning -- assumption of classical behavior for rotation
           may cause significant error
 Rotational temperatures (Kelvin)      0.06221     0.00756     0.00735
 Rotational constants (GHZ):           1.29625     0.15759     0.15324
 Zero-point vibrational energy     763223.3 (Joules/Mol)
                                  182.41474 (Kcal/Mol)
 Warning -- explicit consideration of  28 degrees of freedom as
           vibrations may cause significant error
 Vibrational temperatures:     41.32    54.93    71.43   105.98   141.36
          (Kelvin)            175.87   234.95   256.01   302.87   305.47
                              355.86   377.35   437.61   482.07   502.19
                              544.33   554.21   581.81   587.63   628.50
                              658.75   672.34   694.42   735.79   751.43
                              785.78   797.46   880.21   921.19   925.63
                              950.03   965.35  1056.96  1106.98  1198.42
                             1217.48  1238.61  1253.23  1304.08  1331.34
                             1373.16  1382.97  1389.94  1490.27  1518.45
                             1541.55  1548.18  1561.34  1584.68  1612.80
                             1654.07  1663.62  1680.09  1685.59  1689.81
                             1733.19  1793.12  1827.54  1873.27  1893.99
                             1917.43  1934.40  1970.07  1973.50  1985.01
                             1995.49  2024.65  2037.55  2063.37  2071.19
                             2088.86  2118.23  2162.98  2177.89  2185.29
                             2188.62  2205.58  2218.86  2234.08  2333.34
                             2389.30  2421.94  4268.93  4341.98  4399.40
                             4413.28  4421.52  4462.42  4488.71  4507.87
                             4532.86  4549.97  4560.22  4583.62  4593.92
                             4609.31  5086.31  5115.18  5271.33

 Zero-point correction=                           0.290696 (Hartree/Particle)
 Thermal correction to Energy=                    0.307666
 Thermal correction to Enthalpy=                  0.308610
 Thermal correction to Gibbs Free Energy=         0.245281
 Sum of electronic and zero-point Energies=          -1213.396171
 Sum of electronic and thermal Energies=             -1213.379201
 Sum of electronic and thermal Enthalpies=           -1213.378257
 Sum of electronic and thermal Free Energies=        -1213.441586

                     E (Thermal)             CV                S
                      KCal/Mol        Cal/Mol-Kelvin    Cal/Mol-Kelvin
 Total                  193.063             66.114            133.286
 Electronic               0.000              0.000              0.000
 Translational            0.889              2.981             42.691
 Rotational               0.889              2.981             33.595
 Vibrational            191.286             60.153             57.000
 Vibration     1          0.593              1.984              5.916
 Vibration     2          0.594              1.982              5.351
 Vibration     3          0.595              1.978              4.831
 Vibration     4          0.599              1.966              4.053
 Vibration     5          0.604              1.950              3.489
 Vibration     6          0.610              1.931              3.065
 Vibration     7          0.623              1.887              2.511
 Vibration     8          0.628              1.869              2.350
 Vibration     9          0.643              1.825              2.039
 Vibration    10          0.643              1.822              2.024
 Vibration    11          0.661              1.767              1.750
 Vibration    12          0.670              1.742              1.647
 Vibration    13          0.695              1.666              1.394
 Vibration    14          0.716              1.605              1.236
 Vibration    15          0.726              1.577              1.171
 Vibration    16          0.749              1.516              1.046
 Vibration    17          0.754              1.502              1.019
 Vibration    18          0.770              1.461              0.947
 Vibration    19          0.773              1.452              0.932
 Vibration    20          0.797              1.390              0.837
 Vibration    21          0.816              1.344              0.772
 Vibration    22          0.825              1.323              0.745
 Vibration    23          0.839              1.289              0.703
 Vibration    24          0.867              1.225              0.630
 Vibration    25          0.877              1.201              0.605
 Vibration    26          0.901              1.148              0.552
 Vibration    27          0.910              1.130              0.535
 Vibration    28          0.971              1.007              0.430

 Optimization completed.
    -- Stationary point found.
 Normal termination of Gaussian 16 at Fri Dec 11 21:36:30 2020.

 ----------------------------------------------------------------------
 # B3LYP/6-311++G(d,p) empiricaldispersion=gd3bj scf=xqc pop=npa geom=c
 heck
 ----------------------------------------------------------------------

 ---------------------------------------
 CID_114804463_JID_8665_Energie_neutraal
 ---------------------------------------
 Structure from the checkpoint file:  "JID_8665.chk"
 Charge =  0 Multiplicity = 1

 SCF Done:  E(RB3LYP) =  -1213.94902249     A.U. after   16 cycles
 Normal termination of Gaussian 16 at Fri Dec 11 21:42:18 2020.

 ----------------------------------------------------------------------
 # B3LYP/6-311++G(d,p) empiricaldispersion=gd3bj scf=xqc pop=npa geom=c
 heck
 ----------------------------------------------------------------------

 -------------------------------------
 CID_114804463_JID_8665_Energie_kation
 -------------------------------------
 Structure from the checkpoint file:  "JID_8665.chk"
 Charge =  1 Multiplicity = 2

 SCF Done:  E(UB3LYP) =  -1213.68578931     A.U. after   22 cycles
 Normal termination of Gaussian 16 at Fri Dec 11 21:52:58 2020.
 Gaussian 16:  ES64L-G16RevA.03 25-Dec-2016

 ----------------------------------------------------------------------
 # B3LYP/6-311++G(d,p) empiricaldispersion=gd3bj scf=xqc pop=npa geom=c
 heck
 ----------------------------------------------------------------------

 ------------------------------------
 CID_114804463_JID_8665_Energie_anion
 ------------------------------------
 Structure from the checkpoint file:  "JID_8665.chk"
 Charge = -1 Multiplicity = 2

                         Standard orientation:
 ---------------------------------------------------------------------
 Center     Atomic      Atomic             Coordinates (Angstroms)
 Number     Number       Type             X           Y           Z
 ---------------------------------------------------------------------
      1          6           0       -5.167996    0.754249    0.380893
      2          7           0       -4.162789    0.669748   -0.684834
      3         16           0       -2.956741   -0.485109   -0.479307
      4          8           0       -3.445887   -1.691644    0.192995
      5          8           0       -2.319794   -0.588642   -1.796422
      6          7           0       -2.030139    0.335237    0.657933
      7          6           0       -1.224468   -0.500341    1.565285
      8          6           0        0.124588   -0.882994    0.957871
      9          7           0        0.843818    0.326091    0.566311
     10          6           0        0.082943    1.102462   -0.425088
     11          6           0       -1.275973    1.496975    0.150680
     12          6           0        2.223567    0.174569    0.269761
     13          6           0        2.843041   -1.058180    0.045267
     14          7           0        4.154639   -1.213916   -0.184826
     15          6           0        4.924641   -0.124072   -0.243055
     16          6           0        4.404685    1.171170   -0.041352
     17          6           0        3.056483    1.307873    0.228884
     18          7           0        6.262883   -0.322099   -0.564932
     19          1           0       -4.654819    0.992472    1.314942
     20          1           0       -5.737096   -0.173331    0.512068
     21          1           0       -5.847255    1.574924    0.136587
     22          1           0       -4.552274    0.535216   -1.615712
     23          1           0       -1.059837    0.098679    2.467915
     24          1           0       -1.804618   -1.384227    1.829907
     25          1           0       -0.040291   -1.568702    0.107261
     26          1           0        0.717588   -1.415675    1.707963
     27          1           0       -0.061951    0.528366   -1.353372
     28          1           0        0.641515    2.008792   -0.672607
     29          1           0       -1.886680    2.011956   -0.592975
     30          1           0       -1.134338    2.167426    1.006146
     31          1           0        2.265858   -1.978585    0.062529
     32          1           0        5.055099    2.040069   -0.087443
     33          1           0        2.635398    2.289979    0.424650
     34          1           0        6.554158   -1.284145   -0.440540
     35          1           0        6.914891    0.345139   -0.173426
 ---------------------------------------------------------------------

 SCF Done:  E(UB3LYP) =  -1213.94117187     A.U. after   33 cycles
 SCF Done:  E(UB3LYP) =  -1213.94117187     a.u. after    1 cycles

 The electronic state is 2-A.
 Alpha  occ. eigenvalues --  -88.99484 -19.03757 -19.03587 -14.26844 -14.26218
 Alpha  occ. eigenvalues --  -14.24000 -14.22879 -14.21187 -10.15057 -10.13103
 Alpha  occ. eigenvalues --  -10.12877 -10.12254 -10.11808 -10.11779 -10.11742
 Alpha  occ. eigenvalues --  -10.11115 -10.09571 -10.08660  -8.05452  -6.01707
 Alpha  occ. eigenvalues --   -6.01690  -6.01638  -1.04746  -0.92988  -0.88585
 Alpha  occ. eigenvalues --   -0.87302  -0.85028  -0.83623  -0.79655  -0.71288
 Alpha  occ. eigenvalues --   -0.69860  -0.66894  -0.63676  -0.60989  -0.58430
 Alpha  occ. eigenvalues --   -0.56251  -0.54403  -0.52068  -0.49385  -0.45964
 Alpha  occ. eigenvalues --   -0.44375  -0.44071  -0.43504  -0.41459  -0.40932
 Alpha  occ. eigenvalues --   -0.39298  -0.39014  -0.38517  -0.37172  -0.36663
 Alpha  occ. eigenvalues --   -0.35906  -0.35237  -0.34273  -0.32723  -0.32203
 Alpha  occ. eigenvalues --   -0.31894  -0.31770  -0.31227  -0.29800  -0.28625
 Alpha  occ. eigenvalues --   -0.27837  -0.26757  -0.25764  -0.24359  -0.24046
 Alpha  occ. eigenvalues --   -0.22743  -0.20198  -0.19594  -0.18287  -0.17729
 Alpha  occ. eigenvalues --   -0.16016  -0.11190   0.03527
 Alpha virt. eigenvalues --    0.04586   0.05621   0.06212   0.06889   0.07375
 Alpha virt. eigenvalues --    0.08055   0.08599   0.08869   0.09186   0.09511
 Alpha virt. eigenvalues --    0.10357   0.10632   0.11122   0.11849   0.12474

  Beta  occ. eigenvalues --  -88.99484 -19.03749 -19.03584 -14.26842 -14.26196
  Beta  occ. eigenvalues --  -14.24001 -14.22841 -14.21156 -10.15063 -10.13096
  Beta  occ. eigenvalues --  -10.12863 -10.12250 -10.11818 -10.11771 -10.11691
  Beta  occ. eigenvalues --  -10.11083 -10.09531 -10.08616  -8.05452  -6.01707
  Beta  occ. eigenvalues --   -6.01690  -6.01638  -1.04735  -0.92977  -0.88572
  Beta  occ. eigenvalues --   -0.87259  -0.85005  -0.83597  -0.79592  -0.71222
  Beta  occ. eigenvalues --   -0.69840  -0.66850  -0.63623  -0.60919  -0.58397
  Beta  occ. eigenvalues --   -0.56216  -0.54321  -0.52034  -0.49351  -0.45935
  Beta  occ. eigenvalues --   -0.44320  -0.44036  -0.43468  -0.41415  -0.40900
  Beta  occ. eigenvalues --   -0.39279  -0.38975  -0.38489  -0.37142  -0.36629
  Beta  occ. eigenvalues --   -0.35873  -0.35185  -0.34229  -0.32690  -0.32147
  Beta  occ. eigenvalues --   -0.31840  -0.31721  -0.31192  -0.29769  -0.28605
  Beta  occ. eigenvalues --   -0.27821  -0.26740  -0.25746  -0.24343  -0.23995
  Beta  occ. eigenvalues --   -0.22731  -0.20066  -0.19529  -0.18209  -0.17701
  Beta  occ. eigenvalues --   -0.15976  -0.11105
  Beta virt. eigenvalues --    0.05740   0.05965   0.06105   0.06833   0.07188
  Beta virt. eigenvalues --    0.07660   0.08457   0.08694   0.09195   0.09603
  Beta virt. eigenvalues --    0.09899   0.10524   0.10745   0.11322   0.12073

 Mulliken charges and spin densities:
               1          2
     1  C    0.883215  -1.242039
     2  N   -0.568287   0.254074
     3  S    0.948077  -0.665814
     4  O   -0.222307   0.015429
     5  O   -0.150362   0.015043
     6  N   -0.231017   0.109577
     7  C   -1.051858  -0.039990
     8  C    0.590826  -0.212684
     9  N    0.321239  -0.014708
    10  C   -0.649575   0.200567
    11  C    0.031107  -0.525462
    12  C   -0.316842  -0.256214
    13  C   -0.199964   0.184027
    14  N   -0.087024  -0.028057
    15  C    0.411272  -0.916535
    16  C    0.684056  -0.408002
    17  C   -0.405465   0.315422
    18  N   -0.317800   0.044827
    19  H   -0.146165   0.328094
    20  H   -0.009997   0.180669
    21  H   -0.759343   0.936521
    22  H   -0.081556   0.386629
    23  H    0.029152   0.146785
    24  H    0.271023   0.000543
    25  H    0.219733  -0.043496
    26  H    0.131223   0.050376
    27  H    0.190969   0.017695
    28  H   -0.014310   0.165691
    29  H    0.126816   0.105704
    30  H   -0.163204   0.348425
    31  H    0.159123   0.062535
    32  H   -0.528725   0.720304
    33  H   -0.025393   0.193714
    34  H    0.173845   0.080014
    35  H   -0.242483   0.490336
 Sum of Mulliken charges =  -1.00000   1.00000

 Dipole moment (field-independent basis, Debye):
    X=             -0.4564    Y=             -2.6026    Z=              1.9116  Tot=              3.2613
 Quadrupole moment (field-independent basis, Debye-Ang):
   XX=           -269.7654   YY=           -153.3559   ZZ=           -143.4844
   XY=              1.3110   XZ=             -1.4074   YZ=             -3.5967

 Summary of Natural Population Analysis:

                                       Natural Population
                Natural  -----------------------------------------------
    Atom  No    Charge         Core      Valence    Rydberg      Total
 -----------------------------------------------------------------------
      C    1   -0.18546      0.99965     2.17577    0.01004     3.18546
      N    2   -0.42871      0.99977     2.91499    0.01395     3.92871
      S    3    1.16284      4.99925     1.73303    0.10487     6.83716
      O    4   -0.46114      0.99990     3.45603    0.00521     4.46114
      O    5   -0.46191      0.99990     3.45671    0.00530     4.46191
      N    6   -0.36724      0.99974     2.85252    0.01498     3.86724
      C    7   -0.09397      0.99960     2.08161    0.01275     3.09397
      C    8   -0.09553      0.99962     2.08698    0.00894     3.09553
      N    9   -0.27299      0.99967     2.76150    0.01182     3.77299
      C   10   -0.09253      0.99960     2.08280    0.01014     3.09253
      C   11   -0.09582      0.99960     2.08281    0.01341     3.09582
      C   12    0.04830      0.99947     1.94107    0.01116     2.95170
      C   13    0.01719      0.99954     1.97130    0.01197     2.98281
      N   14   -0.25476      0.99967     2.74462    0.01047     3.75476
      C   15    0.18781      0.99955     1.79706    0.01558     2.81219
      C   16   -0.12895      0.99952     2.11987    0.00956     3.12895
      C   17   -0.07796      0.99953     2.06884    0.00958     3.07796
      N   18   -0.39824      0.99971     2.88824    0.01029     3.89824
      H   19    0.10267      0.00000     0.39574    0.00159     0.39733
      H   20    0.09409      0.00000     0.40461    0.00130     0.40591
      H   21    0.10543      0.00000     0.39114    0.00343     0.39457
      H   22    0.19793      0.00000     0.29959    0.00248     0.30207
      H   23    0.09999      0.00000     0.39858    0.00143     0.40001
      H   24    0.11580      0.00000     0.38331    0.00089     0.38420
      H   25    0.08915      0.00000     0.40943    0.00143     0.41085
      H   26    0.10363      0.00000     0.39520    0.00117     0.39637
      H   27    0.09681      0.00000     0.40188    0.00131     0.40319
      H   28    0.10262      0.00000     0.39622    0.00116     0.39738
      H   29    0.11367      0.00000     0.38509    0.00124     0.38633
      H   30    0.10038      0.00000     0.39784    0.00179     0.39962
      H   31    0.09129      0.00000     0.40739    0.00132     0.40871
      H   32    0.10534      0.00000     0.39320    0.00147     0.39466
      H   33    0.10304      0.00000     0.39579    0.00117     0.39696
      H   34    0.18812      0.00000     0.30957    0.00230     0.31188
      H   35    0.18911      0.00000     0.30673    0.00416     0.31089
 =======================================================================
   * Total *    0.00000     21.99328    49.68706    0.31966    72.00000

 Normal termination of Gaussian 16 at Fri Dec 11 22:09:15 2020.
