 Gaussian 16, Revision A.03,

 -----------------------------------------------------------
 # opt freq B3LYP/6-31G(d) empiricaldispersion=gd3bj scf=xqc
 -----------------------------------------------------------

 -------------------------------
 CID_112555316_JID_6924_neutraal
 -------------------------------
 Symbolic Z-matrix:
 Charge =  0 Multiplicity = 1

 SCF Done:  E(RB3LYP) =  -708.285044325     A.U. after   15 cycles
 SCF Done:  E(RB3LYP) =  -708.290423804     A.U. after   13 cycles
 SCF Done:  E(RB3LYP) =  -708.289550082     A.U. after   12 cycles
 SCF Done:  E(RB3LYP) =  -708.291291467     A.U. after   12 cycles
 SCF Done:  E(RB3LYP) =  -708.291687465     A.U. after   12 cycles
 SCF Done:  E(RB3LYP) =  -708.291656335     A.U. after   14 cycles
 SCF Done:  E(RB3LYP) =  -708.292107685     A.U. after   12 cycles
 SCF Done:  E(RB3LYP) =  -708.292210566     A.U. after   12 cycles
 SCF Done:  E(RB3LYP) =  -708.292303320     A.U. after   11 cycles
 SCF Done:  E(RB3LYP) =  -708.292335162     A.U. after   11 cycles
 SCF Done:  E(RB3LYP) =  -708.292978259     A.U. after   10 cycles
 SCF Done:  E(RB3LYP) =  -708.292978092     A.U. after    9 cycles
 SCF Done:  E(RB3LYP) =  -708.292978301     A.U. after   10 cycles
 SCF Done:  E(RB3LYP) =  -708.292978320     A.U. after    7 cycles
 SCF Done:  E(RB3LYP) =  -708.292978494     A.U. after    8 cycles
 Optimization completed.
    -- Stationary point found.
 Normal termination of Gaussian 16 at Fri Dec 11 01:25:29 2020.

 --------------------------------------------------------------------
 #N Geom=AllCheck Guess=TCheck SCRF=Check GenChk RB3LYP/6-31G(d) Freq
 --------------------------------------------------------------------

 Structure from the checkpoint file:  "JID_6924.chk"
 -------------------------------
 CID_112555316_JID_6924_neutraal
 -------------------------------
 Charge =  0 Multiplicity = 1

 SCF Done:  E(RB3LYP) =  -708.292978494     A.U. after    1 cycles

  Exact polarizability: 183.857  30.255 120.524   1.773   5.751 141.338
 Approx polarizability: 262.318  65.672 182.704   5.555  12.916 230.848

                      1                      2                      3
                      A                      A                      A
 Frequencies --     22.0953                36.4916                53.6899
 Red. masses --      3.9447                 3.6717                 4.2741
 Frc consts  --      0.0011                 0.0029                 0.0073
 IR Inten    --      0.7897                 1.0084                 0.3586

                      4                      5                      6
                      A                      A                      A
 Frequencies --     80.3405                94.5624               101.1230
 Red. masses --      4.6349                 3.1970                 3.8241
 Frc consts  --      0.0176                 0.0168                 0.0230
 IR Inten    --      0.2569                 1.2620                 0.6609

                      7                      8                      9
                      A                      A                      A
 Frequencies --    165.4421               173.3332               207.2736
 Red. masses --      1.6260                 1.7782                 2.1678
 Frc consts  --      0.0262                 0.0315                 0.0549
 IR Inten    --      1.6584                 0.2525                 0.9029

                     10                     11                     12
                      A                      A                      A
 Frequencies --    215.6458               234.2627               245.9396
 Red. masses --      2.2654                 1.2431                 1.5456
 Frc consts  --      0.0621                 0.0402                 0.0551
 IR Inten    --      4.6984                 0.7279                 0.1983

                     13                     14                     15
                      A                      A                      A
 Frequencies --    271.8501               280.8376               293.6024
 Red. masses --      1.1193                 2.5165                 1.8782
 Frc consts  --      0.0487                 0.1169                 0.0954
 IR Inten    --     21.2592                 1.4498                 0.1669

                     16                     17                     18
                      A                      A                      A
 Frequencies --    331.2670               367.8880               373.1548
 Red. masses --      3.4836                 2.3774                 3.8216
 Frc consts  --      0.2252                 0.1896                 0.3135
 IR Inten    --      1.3910                 3.3701                11.3022

                     19                     20                     21
                      A                      A                      A
 Frequencies --    394.1020               414.4742               458.0444
 Red. masses --      5.0979                 2.0465                 2.4198
 Frc consts  --      0.4665                 0.2071                 0.2991
 IR Inten    --      6.0158                 4.2620                 2.2222

                     22                     23                     24
                      A                      A                      A
 Frequencies --    464.2391               472.0059               520.9135
 Red. masses --      4.2447                 2.9968                 3.3206
 Frc consts  --      0.5390                 0.3934                 0.5309
 IR Inten    --      1.6253                 1.2045                24.1419

                     25                     26                     27
                      A                      A                      A
 Frequencies --    563.5851               579.2187               594.5181
 Red. masses --      2.9782                 2.0921                 1.7928
 Frc consts  --      0.5573                 0.4135                 0.3734
 IR Inten    --     34.7233               111.8339                51.2272

                     28                     29                     30
                      A                      A                      A
 Frequencies --    611.8170               647.7249               730.9670
 Red. masses --      3.0385                 1.8025                 3.6763
 Frc consts  --      0.6701                 0.4456                 1.1573
 IR Inten    --     87.7483               207.4748                17.3899

                     31                     32                     33
                      A                      A                      A
 Frequencies --    741.7837               754.6889               783.3034
 Red. masses --      6.1459                 3.1114                 3.9468
 Frc consts  --      1.9925                 1.0441                 1.4268
 IR Inten    --     14.4366                 0.6523                 4.8534

                     34                     35                     36
                      A                      A                      A
 Frequencies --    788.7269               888.4709               904.6392
 Red. masses --      3.0316                 1.5589                 1.3699
 Frc consts  --      1.1112                 0.7250                 0.6605
 IR Inten    --      1.5905                22.1386                 0.8330

                     37                     38                     39
                      A                      A                      A
 Frequencies --    907.0765               923.9793               941.1798
 Red. masses --      2.0594                 2.0048                 1.2245
 Frc consts  --      0.9983                 1.0084                 0.6391
 IR Inten    --      9.8204                 0.1087                 2.6610

                     40                     41                     42
                      A                      A                      A
 Frequencies --    947.9256               977.3058              1002.1558
 Red. masses --      2.4873                 1.4183                 3.4827
 Frc consts  --      1.3168                 0.7981                 2.0608
 IR Inten    --      0.9730                 0.1128                 2.9506

                     43                     44                     45
                      A                      A                      A
 Frequencies --   1011.6158              1033.3128              1034.2386
 Red. masses --      1.8159                 2.2411                 1.6324
 Frc consts  --      1.0949                 1.4099                 1.0288
 IR Inten    --      1.7513                 4.5507                 9.3751

                     46                     47                     48
                      A                      A                      A
 Frequencies --   1073.9346              1119.6300              1135.2652
 Red. masses --      1.5014                 1.5694                 1.6357
 Frc consts  --      1.0202                 1.1592                 1.2421
 IR Inten    --      5.1678                 3.1857                31.2145

                     49                     50                     51
                      A                      A                      A
 Frequencies --   1153.6273              1165.9901              1203.6262
 Red. masses --      1.7528                 2.4475                 1.6680
 Frc consts  --      1.3744                 1.9605                 1.4237
 IR Inten    --      4.3432                 4.7659                14.0925

                     52                     53                     54
                      A                      A                      A
 Frequencies --   1215.5544              1259.3881              1276.2721
 Red. masses --      1.6237                 1.5886                 1.4717
 Frc consts  --      1.4135                 1.4845                 1.4124
 IR Inten    --     28.9920                57.0395                22.4331

                     55                     56                     57
                      A                      A                      A
 Frequencies --   1319.2165              1327.5623              1342.9911
 Red. masses --      1.8030                 3.0855                 2.7138
 Frc consts  --      1.8487                 3.2039                 2.8839
 IR Inten    --    131.5866                39.2301                18.5363

                     58                     59                     60
                      A                      A                      A
 Frequencies --   1352.8887              1363.5006              1384.0957
 Red. masses --      1.2510                 2.6530                 1.4864
 Frc consts  --      1.3491                 2.9060                 1.6777
 IR Inten    --      1.8377                34.0132                43.7131

                     61                     62                     63
                      A                      A                      A
 Frequencies --   1406.9276              1412.1623              1430.4749
 Red. masses --      1.6492                 1.5564                 1.2663
 Frc consts  --      1.9233                 1.8287                 1.5267
 IR Inten    --     97.4476                42.3675                 5.1897

                     64                     65                     66
                      A                      A                      A
 Frequencies --   1445.4670              1450.3662              1455.6854
 Red. masses --      1.2686                 1.2402                 2.1636
 Frc consts  --      1.5616                 1.5371                 2.7013
 IR Inten    --      6.1041                 7.0527                 9.7254

                     67                     68                     69
                      A                      A                      A
 Frequencies --   1498.9308              1510.0037              1511.2143
 Red. masses --      1.8208                 1.0809                 1.4001
 Frc consts  --      2.4103                 1.4521                 1.8839
 IR Inten    --      4.8470                 0.0417                73.6339

                     70                     71                     72
                      A                      A                      A
 Frequencies --   1518.5620              1521.0936              1527.1539
 Red. masses --      1.5134                 1.1264                 1.0754
 Frc consts  --      2.0563                 1.5356                 1.4777
 IR Inten    --     92.4605                31.1078                13.7886

                     73                     74                     75
                      A                      A                      A
 Frequencies --   1529.4487              1537.8142              1541.8746
 Red. masses --      1.0761                 1.0720                 1.5275
 Frc consts  --      1.4831                 1.4936                 2.1396
 IR Inten    --     19.5557                 7.0386               100.4366

                     76                     77                     78
                      A                      A                      A
 Frequencies --   1545.3920              1627.0140              1668.9573
 Red. masses --      1.0538                 5.8522                 3.9238
 Frc consts  --      1.4828                 9.1275                 6.4394
 IR Inten    --      3.8897                18.4094                 6.8573

                     79                     80                     81
                      A                      A                      A
 Frequencies --   1695.5355              1784.3418              3018.0549
 Red. masses --      1.2738                 7.8842                 1.0808
 Frc consts  --      2.1575                14.7899                 5.8001
 IR Inten    --     94.7190               413.9511                 8.6060

                     82                     83                     84
                      A                      A                      A
 Frequencies --   3034.5123              3036.2982              3037.4289
 Red. masses --      1.0518                 1.0436                 1.0451
 Frc consts  --      5.7061                 5.6685                 5.6812
 IR Inten    --     14.4429                23.8205                39.0651

                     85                     86                     87
                      A                      A                      A
 Frequencies --   3045.3762              3082.8868              3091.7750
 Red. masses --      1.0440                 1.0989                 1.0705
 Frc consts  --      5.7049                 6.1536                 6.0290
 IR Inten    --     55.1418                13.3817                18.2168

                     88                     89                     90
                      A                      A                      A
 Frequencies --   3093.4930              3097.6739              3105.0963
 Red. masses --      1.0937                 1.1010                 1.1003
 Frc consts  --      6.1664                 6.2244                 6.2507
 IR Inten    --     14.2487                 2.5570                72.9808

                     91                     92                     93
                      A                      A                      A
 Frequencies --   3111.4253              3134.0399              3144.9421
 Red. masses --      1.1024                 1.1012                 1.0967
 Frc consts  --      6.2880                 6.3728                 6.3906
 IR Inten    --     35.7205                14.8316                21.3475

                     94                     95                     96
                      A                      A                      A
 Frequencies --   3155.3657              3175.3621              3175.5458
 Red. masses --      1.0900                 1.0909                 1.0942
 Frc consts  --      6.3940                 6.4806                 6.5012
 IR Inten    --     35.7111                14.6048                 9.6736

                     97                     98                     99
                      A                      A                      A
 Frequencies --   3549.8774              3583.0406              3647.5963
 Red. masses --      1.0479                 1.0751                 1.0982
 Frc consts  --      7.7802                 8.1322                 8.6087
 IR Inten    --     18.4988                18.1547                10.3517

 - Thermochemistry -
 -------------------
 Temperature   298.150 Kelvin.  Pressure   1.00000 Atm.
 Atom     1 has atomic number  6 and mass  12.00000

 Molecular mass:   221.15281 amu.
 Principal axes and moments of inertia in atomic units:
                           1         2         3
     Eigenvalues --  2459.703785077.501995648.28348
           X            0.99958  -0.02904  -0.00227
           Y            0.02908   0.99940   0.01905
           Z            0.00171  -0.01911   0.99982
 This molecule is an asymmetric top.
 Rotational symmetry number  1.
 Warning -- assumption of classical behavior for rotation
           may cause significant error
 Rotational temperatures (Kelvin)      0.03521     0.01706     0.01533
 Rotational constants (GHZ):           0.73372     0.35544     0.31952
 Zero-point vibrational energy     797147.0 (Joules/Mol)
                                  190.52270 (Kcal/Mol)
 Warning -- explicit consideration of  28 degrees of freedom as
           vibrations may cause significant error
 Vibrational temperatures:     31.79    52.50    77.25   115.59   136.05
          (Kelvin)            145.49   238.03   249.39   298.22   310.27
                              337.05   353.85   391.13   404.06   422.43
                              476.62   529.31   536.89   567.02   596.34
                              659.02   667.94   679.11   749.48   810.87
                              833.37   855.38   880.27   931.93  1051.70
                             1067.26  1085.83  1127.00  1134.80  1278.31
                             1301.57  1305.08  1329.40  1354.15  1363.85
                             1406.13  1441.88  1455.49  1486.71  1488.04
                             1545.15  1610.90  1633.39  1659.81  1677.60
                             1731.75  1748.91  1811.98  1836.27  1898.06
                             1910.07  1932.26  1946.51  1961.77  1991.41
                             2024.26  2031.79  2058.13  2079.70  2086.75
                             2094.41  2156.63  2172.56  2174.30  2184.87
                             2188.51  2197.23  2200.54  2212.57  2218.41
                             2223.47  2340.91  2401.26  2439.50  2567.27
                             4342.31  4365.99  4368.56  4370.18  4381.62
                             4435.59  4448.37  4450.85  4456.86  4467.54
                             4476.65  4509.18  4524.87  4539.87  4568.64
                             4568.90  5107.48  5155.20  5248.08

 Zero-point correction=                           0.303617 (Hartree/Particle)
 Thermal correction to Energy=                    0.320615
 Thermal correction to Enthalpy=                  0.321559
 Thermal correction to Gibbs Free Energy=         0.258406
 Sum of electronic and zero-point Energies=           -707.989361
 Sum of electronic and thermal Energies=              -707.972363
 Sum of electronic and thermal Enthalpies=            -707.971419
 Sum of electronic and thermal Free Energies=         -708.034573

                     E (Thermal)             CV                S
                      KCal/Mol        Cal/Mol-Kelvin    Cal/Mol-Kelvin
 Total                  201.189             64.267            132.917
 Electronic               0.000              0.000              0.000
 Translational            0.889              2.981             42.084
 Rotational               0.889              2.981             32.623
 Vibrational            199.412             58.305             58.211
 Vibration     1          0.593              1.985              6.436
 Vibration     2          0.594              1.982              5.441
 Vibration     3          0.596              1.976              4.677
 Vibration     4          0.600              1.962              3.883
 Vibration     5          0.603              1.953              3.563
 Vibration     6          0.604              1.948              3.433
 Vibration     7          0.624              1.885              2.487
 Vibration     8          0.627              1.875              2.399
 Vibration     9          0.641              1.829              2.068
 Vibration    10          0.645              1.817              1.995
 Vibration    11          0.654              1.788              1.846
 Vibration    12          0.660              1.769              1.759
 Vibration    13          0.675              1.725              1.584
 Vibration    14          0.681              1.709              1.529
 Vibration    15          0.688              1.686              1.453
 Vibration    16          0.714              1.613              1.254
 Vibration    17          0.740              1.538              1.089
 Vibration    18          0.745              1.527              1.067
 Vibration    19          0.761              1.483              0.985
 Vibration    20          0.778              1.439              0.911
 Vibration    21          0.816              1.343              0.772
 Vibration    22          0.822              1.329              0.754
 Vibration    23          0.829              1.312              0.732
 Vibration    24          0.876              1.204              0.608
 Vibration    25          0.919              1.110              0.517
 Vibration    26          0.936              1.076              0.487
 Vibration    27          0.952              1.043              0.459
 Vibration    28          0.971              1.007              0.430

 Optimization completed.
    -- Stationary point found.
 Normal termination of Gaussian 16 at Fri Dec 11 01:38:31 2020.

 ----------------------------------------------------------------------
 # B3LYP/6-311++G(d,p) empiricaldispersion=gd3bj scf=xqc pop=npa geom=c
 heck
 ----------------------------------------------------------------------

 ---------------------------------------
 CID_112555316_JID_6924_Energie_neutraal
 ---------------------------------------
 Structure from the checkpoint file:  "JID_6924.chk"
 Charge =  0 Multiplicity = 1

 SCF Done:  E(RB3LYP) =  -708.497578172     A.U. after   16 cycles
 Normal termination of Gaussian 16 at Fri Dec 11 01:44:46 2020.

 ----------------------------------------------------------------------
 # B3LYP/6-311++G(d,p) empiricaldispersion=gd3bj scf=xqc pop=npa geom=c
 heck
 ----------------------------------------------------------------------

 -------------------------------------
 CID_112555316_JID_6924_Energie_kation
 -------------------------------------
 Structure from the checkpoint file:  "JID_6924.chk"
 Charge =  1 Multiplicity = 2

 SCF Done:  E(UB3LYP) =  -708.215753630     A.U. after   23 cycles
 Normal termination of Gaussian 16 at Fri Dec 11 01:56:24 2020.
 Gaussian 16:  ES64L-G16RevA.03 25-Dec-2016

 ----------------------------------------------------------------------
 # B3LYP/6-311++G(d,p) empiricaldispersion=gd3bj scf=xqc pop=npa geom=c
 heck
 ----------------------------------------------------------------------

 ------------------------------------
 CID_112555316_JID_6924_Energie_anion
 ------------------------------------
 Structure from the checkpoint file:  "JID_6924.chk"
 Charge = -1 Multiplicity = 2

                         Standard orientation:
 ---------------------------------------------------------------------
 Center     Atomic      Atomic             Coordinates (Angstroms)
 Number     Number       Type             X           Y           Z
 ---------------------------------------------------------------------
      1          6           0       -0.959513    0.809979    2.544179
      2          6           0       -1.461658    0.549506    1.148753
      3          6           0       -2.640093   -0.152443    0.920573
      4          6           0       -3.071143   -0.423051   -0.386188
      5          6           0       -2.264879    0.059342   -1.426524
      6          7           0       -1.148772    0.761572   -1.230421
      7          6           0       -0.743384    0.992997    0.017812
      8          7           0        0.447826    1.724681    0.210352
      9          6           0        1.681201    1.638194   -0.417706
     10          8           0        2.577670    2.393039   -0.064817
     11          6           0        1.914568    0.545383   -1.444414
     12          6           0        2.760048   -0.585878   -0.823653
     13          6           0        2.068140   -1.381762    0.297781
     14          6           0        0.873227   -2.195604   -0.216077
     15          6           0        3.080459   -2.298083    0.996180
     16          7           0       -4.209131   -1.188890   -0.641217
     17          1           0       -0.977012    1.879575    2.794671
     18          1           0       -1.574560    0.291504    3.285021
     19          1           0        0.076384    0.470646    2.658759
     20          1           0       -3.218712   -0.517851    1.766382
     21          1           0       -2.544806   -0.122631   -2.463813
     22          1           0        0.467355    2.383857    0.979575
     23          1           0        0.979069    0.173811   -1.859481
     24          1           0        2.484255    1.007384   -2.256672
     25          1           0        3.054227   -1.280887   -1.622341
     26          1           0        3.683244   -0.140323   -0.434217
     27          1           0        1.697622   -0.663964    1.044469
     28          1           0        1.206226   -2.943233   -0.948034
     29          1           0        0.383097   -2.730844    0.605485
     30          1           0        0.117930   -1.569191   -0.697424
     31          1           0        3.914899   -1.724155    1.415221
     32          1           0        2.610976   -2.860061    1.812151
     33          1           0        3.497452   -3.026506    0.288593
     34          1           0       -4.921328   -1.147364    0.077217
     35          1           0       -4.608978   -1.057105   -1.562323
 ---------------------------------------------------------------------

 SCF Done:  E(UB3LYP) =  -708.491916136     A.U. after   33 cycles
 SCF Done:  E(UB3LYP) =  -708.491916136     a.u. after    1 cycles

 The electronic state is 2-A.
 Alpha  occ. eigenvalues --  -18.99566 -14.24586 -14.20887 -14.20016 -10.18064
 Alpha  occ. eigenvalues --  -10.13150 -10.10940 -10.09106 -10.08795 -10.08710
 Alpha  occ. eigenvalues --  -10.08374 -10.07911 -10.07859 -10.07846 -10.06951
 Alpha  occ. eigenvalues --  -10.06532  -0.94821  -0.86545  -0.81798  -0.79293
 Alpha  occ. eigenvalues --   -0.73000  -0.70903  -0.66516  -0.64350  -0.60439
 Alpha  occ. eigenvalues --   -0.59819  -0.56942  -0.53820  -0.50988  -0.49028
 Alpha  occ. eigenvalues --   -0.46373  -0.44109  -0.42120  -0.39851  -0.39400
 Alpha  occ. eigenvalues --   -0.38008  -0.36226  -0.35258  -0.34540  -0.33966
 Alpha  occ. eigenvalues --   -0.33481  -0.32720  -0.31319  -0.30680  -0.30387
 Alpha  occ. eigenvalues --   -0.29886  -0.29609  -0.29056  -0.28298  -0.27276
 Alpha  occ. eigenvalues --   -0.26867  -0.24305  -0.24047  -0.23429  -0.23278
 Alpha  occ. eigenvalues --   -0.18358  -0.16877  -0.16546  -0.15910  -0.10239
 Alpha  occ. eigenvalues --    0.04213
 Alpha virt. eigenvalues --    0.06190   0.06669   0.07041   0.07731   0.08318
 Alpha virt. eigenvalues --    0.08872   0.09126   0.09620   0.10204   0.10681
 Alpha virt. eigenvalues --    0.10807   0.11543   0.11881   0.12574   0.12604

  Beta  occ. eigenvalues --  -18.99559 -14.24590 -14.20803 -14.19892 -10.18053
  Beta  occ. eigenvalues --  -10.13135 -10.10929 -10.09068 -10.08792 -10.08698
  Beta  occ. eigenvalues --  -10.08374 -10.07911 -10.07855 -10.07822 -10.06843
  Beta  occ. eigenvalues --  -10.06527  -0.94807  -0.86441  -0.81714  -0.79173
  Beta  occ. eigenvalues --   -0.72995  -0.70787  -0.66504  -0.64215  -0.60360
  Beta  occ. eigenvalues --   -0.59810  -0.56911  -0.53683  -0.50900  -0.48987
  Beta  occ. eigenvalues --   -0.46328  -0.44041  -0.42061  -0.39766  -0.39330
  Beta  occ. eigenvalues --   -0.37981  -0.36189  -0.35186  -0.34507  -0.33911
  Beta  occ. eigenvalues --   -0.33392  -0.32682  -0.31254  -0.30645  -0.30338
  Beta  occ. eigenvalues --   -0.29769  -0.29527  -0.29016  -0.28269  -0.27219
  Beta  occ. eigenvalues --   -0.26809  -0.24287  -0.24020  -0.23317  -0.23213
  Beta  occ. eigenvalues --   -0.18168  -0.16845  -0.16222  -0.15773  -0.09998
  Beta virt. eigenvalues --    0.06123   0.07084   0.07589   0.07614   0.07992
  Beta virt. eigenvalues --    0.08708   0.09256   0.09522   0.09768   0.10428
  Beta virt. eigenvalues --    0.10658   0.11080   0.11744   0.12067   0.12583

 Mulliken charges and spin densities:
               1          2
     1  C    1.415823  -2.037197
     2  C   -1.040932   1.292167
     3  C    0.507085  -0.518342
     4  C    1.137248  -1.575777
     5  C   -0.434682   0.463074
     6  N   -0.193306   0.068008
     7  C    0.032587  -0.078091
     8  N   -0.125126   0.008155
     9  C   -0.188946  -0.072421
    10  O   -0.323028   0.007285
    11  C   -0.138754  -0.001957
    12  C   -0.349361  -0.043878
    13  C    0.143487   0.189996
    14  C   -0.364493  -0.240320
    15  C   -0.425762  -0.052000
    16  N   -0.313393   0.020820
    17  H   -0.091282   0.254737
    18  H   -0.162120   0.314985
    19  H    0.014927   0.141642
    20  H   -0.828980   1.012647
    21  H   -0.156899   0.333292
    22  H    0.307319   0.004692
    23  H    0.255279  -0.033170
    24  H    0.200390   0.003407
    25  H    0.128633   0.002281
    26  H    0.165325   0.005795
    27  H    0.091409  -0.039770
    28  H    0.109273   0.015566
    29  H    0.112432   0.015561
    30  H    0.004292   0.144662
    31  H    0.107247   0.031720
    32  H    0.071517   0.069729
    33  H    0.111189   0.010891
    34  H   -0.400296   0.662000
    35  H   -0.378099   0.619809
 Sum of Mulliken charges =  -1.00000   1.00000

 Dipole moment (field-independent basis, Debye):
    X=             10.3287    Y=             -0.6630    Z=             -1.2323  Tot=             10.4230
 Quadrupole moment (field-independent basis, Debye-Ang):
   XX=           -197.7919   YY=           -133.9874   ZZ=           -131.9976
   XY=            -21.1245   XZ=              1.3834   YZ=             -1.0150

 Summary of Natural Population Analysis:

                                       Natural Population
                Natural  -----------------------------------------------
    Atom  No    Charge         Core      Valence    Rydberg      Total
 -----------------------------------------------------------------------
      C    1   -0.29512      0.99964     2.28923    0.00625     3.29512
      C    2   -0.03095      0.99948     2.02167    0.00979     3.03095
      C    3   -0.08440      0.99948     2.07387    0.01106     3.08440
      C    4    0.07053      0.99948     1.91800    0.01199     2.92947
      C    5    0.00751      0.99954     1.97840    0.01455     2.99249
      N    6   -0.22614      0.99967     2.71651    0.00996     3.72614
      C    7    0.16497      0.99946     1.82043    0.01514     2.83503
      N    8   -0.31626      0.99964     2.80735    0.00927     3.81626
      C    9    0.35183      0.99967     1.62513    0.02337     2.64817
      O   10   -0.32792      0.99988     3.32220    0.00584     4.32792
      C   11   -0.23840      0.99958     2.23087    0.00795     3.23840
      C   12   -0.18125      0.99961     2.17419    0.00744     3.18125
      C   13   -0.12253      0.99961     2.11378    0.00914     3.12253
      C   14   -0.28629      0.99965     2.28140    0.00524     3.28629
      C   15   -0.28098      0.99966     2.27665    0.00468     3.28098
      N   16   -0.39349      0.99972     2.88289    0.01088     3.89349
      H   17    0.10230      0.00000     0.39642    0.00129     0.39770
      H   18    0.10732      0.00000     0.39171    0.00097     0.39268
      H   19    0.10338      0.00000     0.39528    0.00134     0.39662
      H   20    0.10342      0.00000     0.39481    0.00177     0.39658
      H   21    0.08746      0.00000     0.41127    0.00127     0.41254
      H   22    0.19606      0.00000     0.30130    0.00263     0.30394
      H   23    0.11977      0.00000     0.37879    0.00144     0.38023
      H   24    0.10823      0.00000     0.39085    0.00091     0.39177
      H   25    0.09357      0.00000     0.40537    0.00106     0.40643
      H   26    0.10098      0.00000     0.39781    0.00121     0.39902
      H   27    0.09568      0.00000     0.40200    0.00232     0.40432
      H   28    0.09157      0.00000     0.40758    0.00085     0.40843
      H   29    0.10014      0.00000     0.39910    0.00076     0.39986
      H   30    0.10845      0.00000     0.39044    0.00110     0.39155
      H   31    0.09753      0.00000     0.40169    0.00078     0.40247
      H   32    0.09847      0.00000     0.40075    0.00078     0.40153
      H   33    0.09318      0.00000     0.40592    0.00090     0.40682
      H   34    0.19372      0.00000     0.29088    0.01540     0.30628
      H   35    0.18765      0.00000     0.30678    0.00557     0.31235
 =======================================================================
   * Total *   -0.00000     15.99375    43.80132    0.20493    60.00000

 Normal termination of Gaussian 16 at Fri Dec 11 02:11:59 2020.
