 Gaussian 16, Revision A.03,

 -----------------------------------------------------------
 # opt freq B3LYP/6-31G(d) empiricaldispersion=gd3bj scf=xqc
 -----------------------------------------------------------

 -------------------------------
 CID_151659488_JID_6084_neutraal
 -------------------------------
 Symbolic Z-matrix:
 Charge =  0 Multiplicity = 1

 SCF Done:  E(RB3LYP) =  -816.988613034     A.U. after   16 cycles
 SCF Done:  E(RB3LYP) =  -816.994630944     A.U. after   14 cycles
 SCF Done:  E(RB3LYP) =  -816.992241525     A.U. after   15 cycles
 SCF Done:  E(RB3LYP) =  -816.998557640     A.U. after   12 cycles
 SCF Done:  E(RB3LYP) =  -816.998446948     A.U. after   14 cycles
 SCF Done:  E(RB3LYP) =  -816.999826656     A.U. after   13 cycles
 SCF Done:  E(RB3LYP) =  -817.000798870     A.U. after   16 cycles
 SCF Done:  E(RB3LYP) =  -816.993864883     A.U. after   16 cycles
 SCF Done:  E(RB3LYP) =  -816.999365513     A.U. after   15 cycles
 SCF Done:  E(RB3LYP) =  -817.001275086     A.U. after   12 cycles
 SCF Done:  E(RB3LYP) =  -817.002893487     A.U. after    8 cycles
 SCF Done:  E(RB3LYP) =  -817.002894365     A.U. after    9 cycles
 SCF Done:  E(RB3LYP) =  -817.002895053     A.U. after    9 cycles
 SCF Done:  E(RB3LYP) =  -817.002895250     A.U. after    8 cycles
 SCF Done:  E(RB3LYP) =  -817.002895253     A.U. after    7 cycles
 Optimization completed.
    -- Stationary point found.
 Normal termination of Gaussian 16 at Thu Dec 10 21:23:55 2020.

 --------------------------------------------------------------------
 #N Geom=AllCheck Guess=TCheck SCRF=Check GenChk RB3LYP/6-31G(d) Freq
 --------------------------------------------------------------------

 Structure from the checkpoint file:  "JID_6084.chk"
 -------------------------------
 CID_151659488_JID_6084_neutraal
 -------------------------------
 Charge =  0 Multiplicity = 1

 SCF Done:  E(RB3LYP) =  -817.002895253     A.U. after    1 cycles

  Exact polarizability: 122.412   4.179 129.741  -2.182  -8.174 109.973
 Approx polarizability: 170.091  19.879 203.341 -12.822 -32.892 177.359

                      1                      2                      3
                      A                      A                      A
 Frequencies --     33.2168                43.5632                60.4394
 Red. masses --      9.0784                 5.8446                 6.5936
 Frc consts  --      0.0059                 0.0065                 0.0142
 IR Inten    --      0.6029                 0.8311                 1.6972

                      4                      5                      6
                      A                      A                      A
 Frequencies --     64.5789                90.7555               121.3525
 Red. masses --      9.9941                 4.2507                 2.8810
 Frc consts  --      0.0246                 0.0206                 0.0250
 IR Inten    --      0.6848                 3.9525                 3.1106

                      7                      8                      9
                      A                      A                      A
 Frequencies --    141.9327               165.9730               187.7933
 Red. masses --      3.2490                 6.5623                 3.3594
 Frc consts  --      0.0386                 0.1065                 0.0698
 IR Inten    --      0.9938                 2.6384                 1.2961

                     10                     11                     12
                      A                      A                      A
 Frequencies --    220.6662               245.1521               271.8292
 Red. masses --      3.6583                 3.8546                 5.2686
 Frc consts  --      0.1050                 0.1365                 0.2294
 IR Inten    --      0.7929                 4.7361                 1.0935

                     13                     14                     15
                      A                      A                      A
 Frequencies --    334.8712               361.6187               385.0907
 Red. masses --      2.1516                 5.1827                 2.3160
 Frc consts  --      0.1422                 0.3993                 0.2024
 IR Inten    --      2.0125                 1.7181                 0.6117

                     16                     17                     18
                      A                      A                      A
 Frequencies --    440.0648               459.2885               474.1641
 Red. masses --      3.6227                 3.2869                 4.8021
 Frc consts  --      0.4134                 0.4085                 0.6361
 IR Inten    --      4.4868                 7.5605                 9.0812

                     19                     20                     21
                      A                      A                      A
 Frequencies --    530.0877               546.5376               579.8031
 Red. masses --      3.2434                12.7173                 3.6606
 Frc consts  --      0.5370                 2.2381                 0.7251
 IR Inten    --      8.1323                 8.5725                 2.1272

                     22                     23                     24
                      A                      A                      A
 Frequencies --    628.8833               639.9717               685.5052
 Red. masses --      3.3385                 6.1722                 9.2038
 Frc consts  --      0.7779                 1.4894                 2.5482
 IR Inten    --      8.0146                 3.6147                 3.7259

                     25                     26                     27
                      A                      A                      A
 Frequencies --    700.1485               788.1612               823.8618
 Red. masses --      3.5895                 2.0300                 3.4185
 Frc consts  --      1.0367                 0.7430                 1.3671
 IR Inten    --      5.2058                12.6503                 1.7526

                     28                     29                     30
                      A                      A                      A
 Frequencies --    839.7924               868.9917               880.6904
 Red. masses --      2.7075                 3.0665                 2.6502
 Frc consts  --      1.1250                 1.3643                 1.2111
 IR Inten    --      6.6377                15.7681                26.2328

                     31                     32                     33
                      A                      A                      A
 Frequencies --    886.7239               929.4078               932.0843
 Red. masses --      2.4942                 2.1859                 3.8830
 Frc consts  --      1.1555                 1.1125                 1.9876
 IR Inten    --     15.5191                58.0648                27.3810

                     34                     35                     36
                      A                      A                      A
 Frequencies --    962.7558               976.6290              1038.6206
 Red. masses --      1.6499                 1.3242                 2.7064
 Frc consts  --      0.9011                 0.7442                 1.7201
 IR Inten    --     26.6461                 4.2554                13.6432

                     37                     38                     39
                      A                      A                      A
 Frequencies --   1047.9240              1069.9200              1076.6196
 Red. masses --      4.0832                 2.0062                 2.0216
 Frc consts  --      2.6419                 1.3531                 1.3806
 IR Inten    --    105.4012                15.4407                39.3030

                     40                     41                     42
                      A                      A                      A
 Frequencies --   1098.2450              1099.4671              1125.6608
 Red. masses --      5.8542                 3.4461                 3.4722
 Frc consts  --      4.1602                 2.4544                 2.5922
 IR Inten    --     81.4741                 0.4748                79.8647

                     43                     44                     45
                      A                      A                      A
 Frequencies --   1136.7444              1152.5854              1154.4392
 Red. masses --      4.1794                 2.5643                 5.1913
 Frc consts  --      3.1819                 2.0071                 4.0763
 IR Inten    --     81.8077                 6.9322                54.9585

                     46                     47                     48
                      A                      A                      A
 Frequencies --   1178.3505              1186.1258              1203.5073
 Red. masses --      2.0163                 1.6269                 2.1387
 Frc consts  --      1.6495                 1.3486                 1.8252
 IR Inten    --      4.4886                31.8352                80.8479

                     49                     50                     51
                      A                      A                      A
 Frequencies --   1225.8811              1249.0146              1251.1320
 Red. masses --      1.3839                 1.7939                 1.2526
 Frc consts  --      1.2253                 1.6489                 1.1552
 IR Inten    --     28.1532                41.2771                 3.0260

                     52                     53                     54
                      A                      A                      A
 Frequencies --   1305.5030              1311.5232              1321.2421
 Red. masses --      1.1887                 1.3462                 1.2387
 Frc consts  --      1.1937                 1.3643                 1.2741
 IR Inten    --      3.4915                 3.6296                18.8761

                     55                     56                     57
                      A                      A                      A
 Frequencies --   1354.6758              1356.4544              1375.8048
 Red. masses --      1.3084                 1.2412                 1.3096
 Frc consts  --      1.4147                 1.3456                 1.4606
 IR Inten    --      5.8350                 9.7542                 2.0129

                     58                     59                     60
                      A                      A                      A
 Frequencies --   1392.4536              1398.0536              1404.3021
 Red. masses --      1.2989                 1.3742                 1.5211
 Frc consts  --      1.4839                 1.5825                 1.7674
 IR Inten    --      3.3252                 6.3673                 2.6222

                     61                     62                     63
                      A                      A                      A
 Frequencies --   1413.2461              1427.2327              1437.4666
 Red. masses --      1.3717                 1.3524                 1.3232
 Frc consts  --      1.6142                 1.6231                 1.6109
 IR Inten    --      1.7108                14.2489                 4.8102

                     64                     65                     66
                      A                      A                      A
 Frequencies --   1467.2117              1471.0197              1507.3721
 Red. masses --      1.1344                 1.2211                 1.0917
 Frc consts  --      1.4388                 1.5568                 1.4615
 IR Inten    --      0.9034                 2.1442                 2.6103

                     67                     68                     69
                      A                      A                      A
 Frequencies --   1519.6153              1534.8240              1552.8947
 Red. masses --      1.0838                 1.0978                 1.0860
 Frc consts  --      1.4745                 1.5236                 1.5429
 IR Inten    --      9.2829                 8.3955                 1.2618

                     70                     71                     72
                      A                      A                      A
 Frequencies --   1561.6522              1563.4166              2207.8292
 Red. masses --      1.0882                 1.0942                13.9601
 Frc consts  --      1.5636                 1.5757                40.0932
 IR Inten    --      2.6512                 4.0710               255.1709

                     73                     74                     75
                      A                      A                      A
 Frequencies --   3039.5522              3045.1895              3045.2751
 Red. masses --      1.0632                 1.0636                 1.0664
 Frc consts  --      5.7874                 5.8113                 5.8267
 IR Inten    --     89.2978                15.7617                 6.7242

                     76                     77                     78
                      A                      A                      A
 Frequencies --   3050.8705              3058.9522              3075.4880
 Red. masses --      1.0715                 1.0614                 1.0665
 Frc consts  --      5.8762                 5.8515                 5.9436
 IR Inten    --     14.6017                22.5165                17.1499

                     79                     80                     81
                      A                      A                      A
 Frequencies --   3078.6040              3089.3715              3096.8497
 Red. masses --      1.0819                 1.0931                 1.0998
 Frc consts  --      6.0413                 6.1466                 6.2145
 IR Inten    --     22.7560                43.4934                67.3538

                     82                     83                     84
                      A                      A                      A
 Frequencies --   3099.4573              3102.7741              3108.8721
 Red. masses --      1.1004                 1.0879                 1.0997
 Frc consts  --      6.2284                 6.1709                 6.2622
 IR Inten    --     25.3564                30.7292                48.0484

                     85                     86                     87
                      A                      A                      A
 Frequencies --   3115.3893              3117.7209              3132.7385
 Red. masses --      1.1069                 1.0964                 1.0865
 Frc consts  --      6.3299                 6.2789                 6.2826
 IR Inten    --     44.8266                25.2096                30.7277

 - Thermochemistry -
 -------------------
 Temperature   298.150 Kelvin.  Pressure   1.00000 Atm.
 Atom     1 has atomic number  6 and mass  12.00000

 Molecular mass:   229.10626 amu.
 Principal axes and moments of inertia in atomic units:
                           1         2         3
     Eigenvalues --  2828.070203364.334094704.52745
           X            0.99932   0.03562   0.00996
           Y           -0.03574   0.99929   0.01166
           Z           -0.00953  -0.01200   0.99988
 This molecule is an asymmetric top.
 Rotational symmetry number  1.
 Warning -- assumption of classical behavior for rotation
           may cause significant error
 Rotational temperatures (Kelvin)      0.03063     0.02574     0.01841
 Rotational constants (GHZ):           0.63815     0.53643     0.38362
 Zero-point vibrational energy     674320.1 (Joules/Mol)
                                  161.16638 (Kcal/Mol)
 Warning -- explicit consideration of  21 degrees of freedom as
           vibrations may cause significant error
 Vibrational temperatures:     47.79    62.68    86.96    92.91   130.58
          (Kelvin)            174.60   204.21   238.80   270.19   317.49
                              352.72   391.10   481.81   520.29   554.06
                              633.16   660.81   682.22   762.68   786.35
                              834.21   904.82   920.78   986.29  1007.36
                             1133.99  1185.35  1208.27  1250.29  1267.12
                             1275.80  1337.21  1341.06  1385.19  1405.15
                             1494.34  1507.73  1539.38  1549.02  1580.13
                             1581.89  1619.57  1635.52  1658.31  1660.98
                             1695.38  1706.57  1731.58  1763.77  1797.05
                             1800.10  1878.33  1886.99  1900.97  1949.08
                             1951.64  1979.48  2003.43  2011.49  2020.48
                             2033.35  2053.47  2068.19  2110.99  2116.47
                             2168.77  2186.39  2208.27  2234.27  2246.87
                             2249.41  3176.57  4373.24  4381.35  4381.47
                             4389.52  4401.15  4424.94  4429.42  4444.92
                             4455.68  4459.43  4464.20  4472.97  4482.35
                             4485.70  4507.31

 Zero-point correction=                           0.256835 (Hartree/Particle)
 Thermal correction to Energy=                    0.271749
 Thermal correction to Enthalpy=                  0.272693
 Thermal correction to Gibbs Free Energy=         0.213400
 Sum of electronic and zero-point Energies=           -816.746060
 Sum of electronic and thermal Energies=              -816.731147
 Sum of electronic and thermal Enthalpies=            -816.730202
 Sum of electronic and thermal Free Energies=         -816.789496

                     E (Thermal)             CV                S
                      KCal/Mol        Cal/Mol-Kelvin    Cal/Mol-Kelvin
 Total                  170.525             55.569            124.793
 Electronic               0.000              0.000              0.000
 Translational            0.889              2.981             42.189
 Rotational               0.889              2.981             32.171
 Vibrational            168.747             49.608             50.433
 Vibration     1          0.594              1.983              5.627
 Vibration     2          0.595              1.980              5.090
 Vibration     3          0.597              1.973              4.443
 Vibration     4          0.597              1.971              4.312
 Vibration     5          0.602              1.956              3.644
 Vibration     6          0.609              1.931              3.079
 Vibration     7          0.615              1.911              2.778
 Vibration     8          0.624              1.884              2.481
 Vibration     9          0.632              1.857              2.250
 Vibration    10          0.647              1.810              1.954
 Vibration    11          0.660              1.771              1.765
 Vibration    12          0.675              1.725              1.585
 Vibration    13          0.716              1.606              1.236
 Vibration    14          0.736              1.551              1.115
 Vibration    15          0.754              1.502              1.019
 Vibration    16          0.800              1.383              0.826
 Vibration    17          0.817              1.340              0.768
 Vibration    18          0.831              1.307              0.726
 Vibration    19          0.885              1.183              0.587
 Vibration    20          0.902              1.147              0.551
 Vibration    21          0.936              1.075              0.486

 Optimization completed.
    -- Stationary point found.
 Normal termination of Gaussian 16 at Thu Dec 10 21:35:26 2020.

 ----------------------------------------------------------------------
 # B3LYP/6-311++G(d,p) empiricaldispersion=gd3bj scf=xqc pop=npa geom=c
 heck
 ----------------------------------------------------------------------

 ---------------------------------------
 CID_151659488_JID_6084_Energie_neutraal
 ---------------------------------------
 Structure from the checkpoint file:  "JID_6084.chk"
 Charge =  0 Multiplicity = 1

 SCF Done:  E(RB3LYP) =  -817.234943026     A.U. after   16 cycles
 Normal termination of Gaussian 16 at Thu Dec 10 21:40:23 2020.

 ----------------------------------------------------------------------
 # B3LYP/6-311++G(d,p) empiricaldispersion=gd3bj scf=xqc pop=npa geom=c
 heck
 ----------------------------------------------------------------------

 -------------------------------------
 CID_151659488_JID_6084_Energie_kation
 -------------------------------------
 Structure from the checkpoint file:  "JID_6084.chk"
 Charge =  1 Multiplicity = 2

 SCF Done:  E(UB3LYP) =  -816.903611068     A.U. after   33 cycles
 SCF Done:  E(UB3LYP) =  -816.903611068     a.u. after    1 cycles
 Normal termination of Gaussian 16 at Thu Dec 10 21:55:52 2020.
 Gaussian 16:  ES64L-G16RevA.03 25-Dec-2016

 ----------------------------------------------------------------------
 # B3LYP/6-311++G(d,p) empiricaldispersion=gd3bj scf=xqc pop=npa geom=c
 heck
 ----------------------------------------------------------------------

 ------------------------------------
 CID_151659488_JID_6084_Energie_anion
 ------------------------------------
 Structure from the checkpoint file:  "JID_6084.chk"
 Charge = -1 Multiplicity = 2

                         Standard orientation:
 ---------------------------------------------------------------------
 Center     Atomic      Atomic             Coordinates (Angstroms)
 Number     Number       Type             X           Y           Z
 ---------------------------------------------------------------------
      1          6           0       -2.554488    1.152462   -0.479800
      2          6           0       -2.909422   -0.101957   -1.283643
      3          6           0       -1.822560   -1.160464   -1.126488
      4          8           0       -1.516412   -1.460506    0.239852
      5          6           0       -1.379883   -0.437208    1.197953
      6          6           0       -2.327430    0.756133    0.981801
      7          8           0       -0.015516   -0.125091    1.492961
      8          6           0        0.880503    0.702957    0.786604
      9          6           0        0.759534    2.228270    0.919257
     10          8           0        1.694907    2.746272   -0.035380
     11          6           0        2.046112    1.722693   -0.978956
     12          6           0        1.055004    0.582670   -0.727790
     13          8           0        1.425818   -0.691106   -1.253405
     14          7           0        2.403032   -1.356280   -0.415291
     15          7           0        1.787055   -2.277952    0.186170
     16          7           0        1.372363   -3.166483    0.762128
     17          1           0       -1.666816    1.635616   -0.905027
     18          1           0       -3.361264    1.891788   -0.537554
     19          1           0       -3.863598   -0.505244   -0.920157
     20          1           0       -3.036442    0.127926   -2.348250
     21          1           0       -2.149100   -2.116327   -1.546544
     22          1           0       -0.911493   -0.872107   -1.661259
     23          1           0       -1.660388   -0.925577    2.133861
     24          1           0       -1.984574    1.594524    1.594616
     25          1           0       -3.297085    0.447594    1.392953
     26          1           0        1.847190    0.429300    1.222197
     27          1           0       -0.252251    2.586769    0.688092
     28          1           0        1.034163    2.583305    1.916924
     29          1           0        3.074253    1.376498   -0.807064
     30          1           0        1.978052    2.130261   -1.992466
     31          1           0        0.117605    0.790781   -1.247228
 ---------------------------------------------------------------------

 SCF Done:  E(UB3LYP) =  -817.242008668     A.U. after   32 cycles

 The electronic state is 2-A.
 Alpha  occ. eigenvalues --  -19.02637 -19.02032 -19.01967 -19.01696 -14.28095
 Alpha  occ. eigenvalues --  -14.22979 -14.20225 -10.16715 -10.12001 -10.11816
 Alpha  occ. eigenvalues --  -10.11367 -10.11337 -10.10801 -10.07409 -10.07305
 Alpha  occ. eigenvalues --  -10.07062  -0.98461  -0.95563  -0.94150  -0.91520
 Alpha  occ. eigenvalues --   -0.90252  -0.76927  -0.70555  -0.68253  -0.64881
 Alpha  occ. eigenvalues --   -0.63589  -0.55566  -0.54949  -0.51279  -0.50104
 Alpha  occ. eigenvalues --   -0.45888  -0.42391  -0.42227  -0.39700  -0.38560
 Alpha  occ. eigenvalues --   -0.37480  -0.36315  -0.35820  -0.35097  -0.34069
 Alpha  occ. eigenvalues --   -0.33698  -0.33012  -0.32277  -0.31771  -0.30130
 Alpha  occ. eigenvalues --   -0.28957  -0.28275  -0.28052  -0.27522  -0.25742
 Alpha  occ. eigenvalues --   -0.24953  -0.24314  -0.23250  -0.21871  -0.20262
 Alpha  occ. eigenvalues --   -0.18489  -0.16909  -0.16328  -0.15244  -0.13546
 Alpha  occ. eigenvalues --   -0.09472   0.04385
 Alpha virt. eigenvalues --    0.05990   0.08005   0.08131   0.08862   0.09878
 Alpha virt. eigenvalues --    0.10275   0.11030   0.11752   0.11789   0.12770
 Alpha virt. eigenvalues --    0.13010   0.13681   0.14508   0.15275   0.15504

  Beta  occ. eigenvalues --  -19.02631 -19.01966 -19.01706 -19.01691 -14.27707
  Beta  occ. eigenvalues --  -14.22961 -14.19501 -10.16714 -10.11998 -10.11807
  Beta  occ. eigenvalues --  -10.11366 -10.11333 -10.10800 -10.07396 -10.07278
  Beta  occ. eigenvalues --  -10.07047  -0.97684  -0.95518  -0.94115  -0.90813
  Beta  occ. eigenvalues --   -0.90185  -0.76342  -0.70522  -0.68191  -0.64802
  Beta  occ. eigenvalues --   -0.63528  -0.55511  -0.54922  -0.51047  -0.50053
  Beta  occ. eigenvalues --   -0.45654  -0.42281  -0.42126  -0.39636  -0.38416
  Beta  occ. eigenvalues --   -0.37426  -0.36136  -0.35590  -0.34390  -0.33636
  Beta  occ. eigenvalues --   -0.33338  -0.32935  -0.32182  -0.31547  -0.29893
  Beta  occ. eigenvalues --   -0.28241  -0.28131  -0.27354  -0.27176  -0.25543
  Beta  occ. eigenvalues --   -0.24768  -0.24131  -0.23185  -0.21270  -0.20193
  Beta  occ. eigenvalues --   -0.18018  -0.16762  -0.16291  -0.15126  -0.13271
  Beta  occ. eigenvalues --   -0.09170
  Beta virt. eigenvalues --    0.06816   0.08158   0.08254   0.09211   0.09860
  Beta virt. eigenvalues --    0.10373   0.10968   0.11237   0.11910   0.12306
  Beta virt. eigenvalues --    0.12959   0.13124   0.13853   0.14475   0.15362

 Mulliken charges and spin densities:
               1          2
     1  C    0.015959  -0.094950
     2  C    0.524078  -1.019730
     3  C   -0.330005   0.166824
     4  O   -0.056973   0.013803
     5  C   -0.159337  -0.165916
     6  C    0.028581  -0.336751
     7  O   -0.021962   0.007898
     8  C   -0.449085   0.074260
     9  C   -0.153356  -0.191148
    10  O   -0.166981   0.010238
    11  C   -0.564662   0.026469
    12  C   -0.053540  -0.015199
    13  O    0.094499   0.003284
    14  N   -0.138095  -0.017059
    15  N    0.355609   0.135877
    16  N   -0.629534   0.440857
    17  H    0.038162   0.087635
    18  H   -0.771972   0.973833
    19  H   -0.009574   0.155113
    20  H   -0.052557   0.201882
    21  H    0.148018   0.036107
    22  H    0.193238  -0.002293
    23  H    0.159578   0.025074
    24  H    0.130374   0.042784
    25  H   -0.201756   0.375379
    26  H    0.254608  -0.005218
    27  H    0.126303   0.054259
    28  H    0.098811   0.058259
    29  H    0.192614   0.000564
    30  H    0.142765   0.005314
    31  H    0.256192  -0.047450
 Sum of Mulliken charges =  -1.00000   1.00000

 Dipole moment (field-independent basis, Debye):
    X=              0.4755    Y=              3.1183    Z=             -0.4304  Tot=              3.1836
 Quadrupole moment (field-independent basis, Debye-Ang):
   XX=           -146.8495   YY=           -142.1015   ZZ=           -110.5091
   XY=             15.1931   XZ=             -0.6077   YZ=              5.5171

 Summary of Natural Population Analysis:

                                       Natural Population
                Natural  -----------------------------------------------
    Atom  No    Charge         Core      Valence    Rydberg      Total
 -----------------------------------------------------------------------
      C    1   -0.19608      0.99962     2.18648    0.00999     3.19608
      C    2   -0.20479      0.99963     2.19668    0.00848     3.20479
      C    3   -0.01265      0.99955     2.00091    0.01218     3.01265
      O    4   -0.29638      0.99987     3.28729    0.00922     4.29638
      C    5    0.22476      0.99955     1.75560    0.02009     2.77524
      C    6   -0.21787      0.99960     2.20913    0.00914     3.21787
      O    7   -0.30315      0.99986     3.29382    0.00947     4.30315
      C    8    0.03824      0.99946     1.94583    0.01647     2.96176
      C    9   -0.01716      0.99958     2.00414    0.01344     3.01716
      O   10   -0.30592      0.99990     3.29762    0.00840     4.30592
      C   11   -0.01287      0.99953     2.00118    0.01216     3.01287
      C   12    0.03807      0.99945     1.94624    0.01623     2.96193
      O   13   -0.20785      0.99988     3.19749    0.01048     4.20785
      N   14   -0.11104      0.99974     2.59509    0.01621     3.61104
      N   15    0.12429      0.99971     2.36087    0.01513     3.37571
      N   16    0.06944      0.99981     2.41734    0.01341     3.43056
      H   17    0.09236      0.00000     0.40570    0.00194     0.40764
      H   18    0.10359      0.00000     0.39377    0.00264     0.39641
      H   19    0.09569      0.00000     0.40304    0.00127     0.40431
      H   20    0.10018      0.00000     0.39900    0.00082     0.39982
      H   21    0.08901      0.00000     0.40990    0.00109     0.41099
      H   22    0.08835      0.00000     0.40981    0.00184     0.41165
      H   23    0.08528      0.00000     0.41345    0.00127     0.41472
      H   24    0.10407      0.00000     0.39481    0.00113     0.39593
      H   25    0.10301      0.00000     0.39581    0.00118     0.39699
      H   26    0.10327      0.00000     0.39548    0.00125     0.39673
      H   27    0.07913      0.00000     0.41898    0.00190     0.42087
      H   28    0.08561      0.00000     0.41322    0.00116     0.41439
      H   29    0.08831      0.00000     0.41047    0.00122     0.41169
      H   30    0.08380      0.00000     0.41511    0.00109     0.41620
      H   31    0.08937      0.00000     0.40787    0.00275     0.41063
 =======================================================================
   * Total *    0.00009     15.99476    44.78212    0.22303    60.99991

 Normal termination of Gaussian 16 at Thu Dec 10 22:10:51 2020.
