 Gaussian 16, Revision A.03,

 -----------------------------------------------------------
 # opt freq B3LYP/6-31G(d) empiricaldispersion=gd3bj scf=xqc
 -----------------------------------------------------------

 ------------------------------
 CID_63648429_JID_7024_neutraal
 ------------------------------
 Symbolic Z-matrix:
 Charge =  0 Multiplicity = 1

 SCF Done:  E(RB3LYP) =  -1075.55877357     A.U. after   14 cycles
 SCF Done:  E(RB3LYP) =  -1075.56199592     A.U. after   11 cycles
 SCF Done:  E(RB3LYP) =  -1075.56239082     A.U. after   11 cycles
 SCF Done:  E(RB3LYP) =  -1075.56258971     A.U. after   10 cycles
 SCF Done:  E(RB3LYP) =  -1075.56265772     A.U. after   11 cycles
 SCF Done:  E(RB3LYP) =  -1075.56270159     A.U. after   11 cycles
 SCF Done:  E(RB3LYP) =  -1075.56274757     A.U. after   11 cycles
 SCF Done:  E(RB3LYP) =  -1075.56276573     A.U. after   11 cycles
 SCF Done:  E(RB3LYP) =  -1075.56277829     A.U. after   10 cycles
 SCF Done:  E(RB3LYP) =  -1075.56279454     A.U. after   11 cycles
 SCF Done:  E(RB3LYP) =  -1075.56279791     A.U. after    8 cycles
 SCF Done:  E(RB3LYP) =  -1075.56279743     A.U. after    9 cycles
 SCF Done:  E(RB3LYP) =  -1075.56279818     A.U. after   10 cycles
 SCF Done:  E(RB3LYP) =  -1075.56279750     A.U. after   10 cycles
 SCF Done:  E(RB3LYP) =  -1075.56279736     A.U. after    7 cycles
 Optimization completed.
    -- Stationary point found.
 Normal termination of Gaussian 16 at Sun Dec 13 16:10:45 2020.

 --------------------------------------------------------------------
 #N Geom=AllCheck Guess=TCheck SCRF=Check GenChk RB3LYP/6-31G(d) Freq
 --------------------------------------------------------------------

 Structure from the checkpoint file:  "JID_7024.chk"
 ------------------------------
 CID_63648429_JID_7024_neutraal
 ------------------------------
 Charge =  0 Multiplicity = 1

 SCF Done:  E(RB3LYP) =  -1075.56279736     A.U. after    1 cycles

  Exact polarizability: 231.841 -25.167 141.629  -3.327  -5.139 153.963
 Approx polarizability: 285.018 -43.962 216.539  -8.280 -12.827 247.650

                      1                      2                      3
                      A                      A                      A
 Frequencies --     10.8526                19.7716                20.5974
 Red. masses --      3.0670                 3.6947                 4.1453
 Frc consts  --      0.0002                 0.0009                 0.0010
 IR Inten    --      1.4504                 0.3280                 0.0365

                      4                      5                      6
                      A                      A                      A
 Frequencies --     33.5556                47.4801                68.3257
 Red. masses --      3.5834                 3.9321                 3.0284
 Frc consts  --      0.0024                 0.0052                 0.0083
 IR Inten    --      0.1147                 0.0185                 0.0236

                      7                      8                      9
                      A                      A                      A
 Frequencies --     75.4057               115.9848               131.8811
 Red. masses --      3.3204                 3.1793                 4.1150
 Frc consts  --      0.0111                 0.0252                 0.0422
 IR Inten    --      0.0979                 0.1731                 1.7258

                     10                     11                     12
                      A                      A                      A
 Frequencies --    158.6843               162.3313               194.2780
 Red. masses --      1.3148                 1.2456                 3.3957
 Frc consts  --      0.0195                 0.0193                 0.0755
 IR Inten    --      0.0186                 0.0334                 0.3651

                     13                     14                     15
                      A                      A                      A
 Frequencies --    232.4997               238.2274               253.8045
 Red. masses --      2.7970                 1.9719                 2.0061
 Frc consts  --      0.0891                 0.0659                 0.0761
 IR Inten    --      1.1814                 0.7149                 0.2722

                     16                     17                     18
                      A                      A                      A
 Frequencies --    268.5678               284.1899               317.8653
 Red. masses --      1.4198                 2.3120                 2.5713
 Frc consts  --      0.0603                 0.1100                 0.1531
 IR Inten    --      0.9360                 5.0016                 2.6576

                     19                     20                     21
                      A                      A                      A
 Frequencies --    339.5185               361.9109               378.6476
 Red. masses --      2.3213                 3.3707                 5.6253
 Frc consts  --      0.1577                 0.2601                 0.4752
 IR Inten    --      1.4649                 0.2959                 3.3954

                     22                     23                     24
                      A                      A                      A
 Frequencies --    405.7503               430.9788               442.6769
 Red. masses --      2.3372                 3.1283                 3.3536
 Frc consts  --      0.2267                 0.3424                 0.3872
 IR Inten    --      2.6817                 0.2352                 5.0971

                     25                     26                     27
                      A                      A                      A
 Frequencies --    469.5437               500.2905               557.9256
 Red. masses --      3.2308                 2.8637                 2.9434
 Frc consts  --      0.4197                 0.4223                 0.5398
 IR Inten    --      1.2617                 8.0917                 9.8871

                     28                     29                     30
                      A                      A                      A
 Frequencies --    612.2698               640.8227               652.7919
 Red. masses --      3.0091                 5.0602                 7.1698
 Frc consts  --      0.6646                 1.2243                 1.8002
 IR Inten    --      1.5218                 7.2424                 0.3390

                     31                     32                     33
                      A                      A                      A
 Frequencies --    702.3590               728.5464               746.0167
 Red. masses --      6.0162                 1.4667                 3.4908
 Frc consts  --      1.7486                 0.4587                 1.1447
 IR Inten    --      0.3150                82.4406                 2.3994

                     34                     35                     36
                      A                      A                      A
 Frequencies --    756.7322               801.7081               826.3089
 Red. masses --      1.1717                 3.5833                 2.2991
 Frc consts  --      0.3953                 1.3570                 0.9249
 IR Inten    --     12.4057                 4.7420                 0.0028

                     37                     38                     39
                      A                      A                      A
 Frequencies --    843.5538               852.0563               865.2542
 Red. masses --      1.2356                 1.9626                 1.6943
 Frc consts  --      0.5180                 0.8395                 0.7473
 IR Inten    --      0.1193                 4.0980                37.7911

                     40                     41                     42
                      A                      A                      A
 Frequencies --    872.0664               912.7882               946.8164
 Red. masses --      1.8864                 1.3451                 2.2022
 Frc consts  --      0.8453                 0.6603                 1.1632
 IR Inten    --      9.7727                 2.6822                41.3801

                     43                     44                     45
                      A                      A                      A
 Frequencies --    969.1825               969.6341               981.7391
 Red. masses --      1.3697                 1.3461                 2.0336
 Frc consts  --      0.7580                 0.7457                 1.1548
 IR Inten    --      4.1287                 2.0402                 1.7056

                     46                     47                     48
                      A                      A                      A
 Frequencies --    984.1402               987.6212              1007.5706
 Red. masses --      1.4474                 1.1786                 1.3117
 Frc consts  --      0.8259                 0.6773                 0.7846
 IR Inten    --      0.5628                 2.9481                32.4333

                     49                     50                     51
                      A                      A                      A
 Frequencies --   1029.9172              1037.4421              1092.0374
 Red. masses --      1.5740                 3.2354                 2.5342
 Frc consts  --      0.9837                 2.0517                 1.7806
 IR Inten    --      2.5912                 9.2244                50.4046

                     52                     53                     54
                      A                      A                      A
 Frequencies --   1093.1616              1117.6468              1118.5216
 Red. masses --      2.9617                 1.5664                 2.7822
 Frc consts  --      2.0853                 1.1528                 2.0508
 IR Inten    --     64.0457                 7.6201                 1.2823

                     55                     56                     57
                      A                      A                      A
 Frequencies --   1127.5877              1147.6322              1156.5323
 Red. masses --      1.3241                 2.2191                 2.0728
 Frc consts  --      0.9919                 1.7220                 1.6335
 IR Inten    --      7.6674                69.2646                 1.6020

                     58                     59                     60
                      A                      A                      A
 Frequencies --   1176.6800              1197.2612              1200.0416
 Red. masses --      3.1349                 1.3879                 1.6626
 Frc consts  --      2.5573                 1.1722                 1.4107
 IR Inten    --     28.2525                32.7531                 6.9760

                     61                     62                     63
                      A                      A                      A
 Frequencies --   1252.1434              1257.2555              1278.8173
 Red. masses --      2.2033                 1.6246                 1.3078
 Frc consts  --      2.0353                 1.5130                 1.2601
 IR Inten    --    178.6021                65.9821                 1.4174

                     64                     65                     66
                      A                      A                      A
 Frequencies --   1318.9807              1323.4724              1325.8750
 Red. masses --      1.2210                 1.2796                10.2037
 Frc consts  --      1.2515                 1.3206                10.5685
 IR Inten    --      0.2866                 0.7052                 0.2235

                     67                     68                     69
                      A                      A                      A
 Frequencies --   1352.4227              1364.7776              1383.8940
 Red. masses --      1.1765                 1.3093                 1.1552
 Frc consts  --      1.2679                 1.4368                 1.3035
 IR Inten    --      5.6056                 5.3204                 7.3808

                     70                     71                     72
                      A                      A                      A
 Frequencies --   1388.5463              1403.8978              1404.9975
 Red. masses --      1.3680                 1.2764                 1.4487
 Frc consts  --      1.5541                 1.4822                 1.6849
 IR Inten    --      8.3350                 2.1948                 4.3616

                     73                     74                     75
                      A                      A                      A
 Frequencies --   1419.8758              1432.5409              1439.5033
 Red. masses --      1.3009                 1.2890                 1.4219
 Frc consts  --      1.5452                 1.5586                 1.7360
 IR Inten    --      2.9163                 9.1517                 6.1921

                     76                     77                     78
                      A                      A                      A
 Frequencies --   1441.5063              1445.0153              1496.3962
 Red. masses --      2.5101                 1.2785                 1.0555
 Frc consts  --      3.0731                 1.5729                 1.3926
 IR Inten    --      4.5732                12.3366                10.0401

                     79                     80                     81
                      A                      A                      A
 Frequencies --   1503.8171              1508.7912              1513.7804
 Red. masses --      1.1106                 1.1004                 1.0549
 Frc consts  --      1.4798                 1.4759                 1.4243
 IR Inten    --      2.1704                 4.5744                 8.5765

                     82                     83                     84
                      A                      A                      A
 Frequencies --   1514.7023              1521.7507              1528.2829
 Red. masses --      1.1267                 1.0740                 1.0521
 Frc consts  --      1.5230                 1.4654                 1.4478
 IR Inten    --     10.8941                 6.1866                 0.8427

                     85                     86                     87
                      A                      A                      A
 Frequencies --   1529.8620              1531.6284              1538.5456
 Red. masses --      1.0812                 1.0532                 2.1581
 Frc consts  --      1.4910                 1.4557                 3.0099
 IR Inten    --     14.1268                 1.6525               105.6484

                     88                     89                     90
                      A                      A                      A
 Frequencies --   1542.3259              1551.5443              1617.7798
 Red. masses --      1.1242                 1.0861                 6.9803
 Frc consts  --      1.5756                 1.5404                10.7638
 IR Inten    --      9.1922                10.3194                 3.8527

                     91                     92                     93
                      A                      A                      A
 Frequencies --   1649.4186              2952.3761              3034.6376
 Red. masses --      5.8436                 1.0729                 1.0662
 Frc consts  --      9.3668                 5.5098                 5.7848
 IR Inten    --     47.2227                54.1571                21.4519

                     94                     95                     96
                      A                      A                      A
 Frequencies --   3037.6058              3045.1603              3046.8941
 Red. masses --      1.0619                 1.0367                 1.0595
 Frc consts  --      5.7727                 5.6642                 5.7953
 IR Inten    --     20.8326                27.9210                34.6720

                     97                     98                     99
                      A                      A                      A
 Frequencies --   3057.8258              3060.2713              3063.2747
 Red. masses --      1.0357                 1.0872                 1.0290
 Frc consts  --      5.7058                 5.9992                 5.6889
 IR Inten    --      8.9924                36.9125                28.3389

                    100                    101                    102
                      A                      A                      A
 Frequencies --   3068.2661              3084.7615              3087.8716
 Red. masses --      1.0973                 1.0936                 1.1006
 Frc consts  --      6.0862                 6.1311                 6.1832
 IR Inten    --     34.0711                 1.6160                42.7665

                    103                    104                    105
                      A                      A                      A
 Frequencies --   3102.1773              3107.9358              3114.7115
 Red. masses --      1.0984                 1.1020                 1.1016
 Frc consts  --      6.2278                 6.2718                 6.2969
 IR Inten    --     40.8953                90.1195                40.9547

                    106                    107                    108
                      A                      A                      A
 Frequencies --   3125.9003              3136.3825              3150.9605
 Red. masses --      1.1006                 1.1025                 1.1082
 Frc consts  --      6.3363                 6.3899                 6.4827
 IR Inten    --     56.5918                22.7466                11.0995

                    109                    110                    111
                      A                      A                      A
 Frequencies --   3155.8728              3202.5457              3204.8533
 Red. masses --      1.1051                 1.0884                 1.0884
 Frc consts  --      6.4846                 6.5771                 6.5868
 IR Inten    --     11.8267                 6.3772                 4.4619

                    112                    113                    114
                      A                      A                      A
 Frequencies --   3220.6074              3222.9930              3517.5236
 Red. masses --      1.0941                 1.0945                 1.0733
 Frc consts  --      6.6861                 6.6988                 7.8242
 IR Inten    --     11.6721                 6.2081                 0.4759

 - Thermochemistry -
 -------------------
 Temperature   298.150 Kelvin.  Pressure   1.00000 Atm.
 Atom     1 has atomic number  6 and mass  12.00000

 Molecular mass:   253.15004 amu.
 Principal axes and moments of inertia in atomic units:
                           1         2         3
     Eigenvalues --  1954.58063********************
           X            0.99999  -0.00130   0.00290
           Y            0.00130   1.00000   0.00087
           Z           -0.00290  -0.00087   1.00000
 This molecule is an asymmetric top.
 Rotational symmetry number  1.
 Warning -- assumption of classical behavior for rotation
           may cause significant error
 Rotational temperatures (Kelvin)      0.04431     0.00660     0.00642
 Rotational constants (GHZ):           0.92334     0.13753     0.13381
 Zero-point vibrational energy     922677.0 (Joules/Mol)
                                  220.52509 (Kcal/Mol)
 Warning -- explicit consideration of  28 degrees of freedom as
           vibrations may cause significant error
 Vibrational temperatures:     15.61    28.45    29.64    48.28    68.31
          (Kelvin)             98.31   108.49   166.88   189.75   228.31
                              233.56   279.52   334.52   342.76   365.17
                              386.41   408.89   457.34   488.49   520.71
                              544.79   583.78   620.08   636.91   675.57
                              719.81   802.73   880.92   922.00   939.22
                             1010.54  1048.22  1073.35  1088.77  1153.48
                             1188.87  1213.69  1225.92  1244.91  1254.71
                             1313.30  1362.26  1394.44  1395.09  1412.50
                             1415.96  1420.97  1449.67  1481.82  1492.65
                             1571.20  1572.82  1608.04  1609.30  1622.35
                             1651.19  1663.99  1692.98  1722.59  1726.59
                             1801.56  1808.91  1839.93  1897.72  1904.18
                             1907.64  1945.83  1963.61  1991.11  1997.81
                             2019.90  2021.48  2042.88  2061.11  2071.12
                             2074.01  2079.05  2152.98  2163.66  2170.81
                             2177.99  2179.32  2189.46  2198.86  2201.13
                             2203.67  2213.62  2219.06  2232.33  2327.62
                             2373.15  4247.81  4366.17  4370.44  4381.31
                             4383.80  4399.53  4403.05  4407.37  4414.55
                             4438.28  4442.76  4463.34  4471.63  4481.38
                             4497.47  4512.55  4533.53  4540.60  4607.75
                             4611.07  4633.74  4637.17  5060.93

 Zero-point correction=                           0.351429 (Hartree/Particle)
 Thermal correction to Energy=                    0.370874
 Thermal correction to Enthalpy=                  0.371819
 Thermal correction to Gibbs Free Energy=         0.299146
 Sum of electronic and zero-point Energies=          -1075.211368
 Sum of electronic and thermal Energies=             -1075.191923
 Sum of electronic and thermal Enthalpies=           -1075.190979
 Sum of electronic and thermal Free Energies=        -1075.263651

                     E (Thermal)             CV                S
                      KCal/Mol        Cal/Mol-Kelvin    Cal/Mol-Kelvin
 Total                  232.727             71.166            152.951
 Electronic               0.000              0.000              0.000
 Translational            0.889              2.981             42.487
 Rotational               0.889              2.981             34.202
 Vibrational            230.950             65.205             76.262
 Vibration     1          0.593              1.987              7.848
 Vibration     2          0.593              1.986              6.657
 Vibration     3          0.593              1.986              6.576
 Vibration     4          0.594              1.983              5.607
 Vibration     5          0.595              1.979              4.920
 Vibration     6          0.598              1.969              4.201
 Vibration     7          0.599              1.965              4.007
 Vibration     8          0.608              1.936              3.166
 Vibration     9          0.612              1.921              2.918
 Vibration    10          0.621              1.893              2.565
 Vibration    11          0.622              1.889              2.522
 Vibration    12          0.635              1.848              2.187
 Vibration    13          0.653              1.791              1.860
 Vibration    14          0.656              1.782              1.816
 Vibration    15          0.665              1.756              1.704
 Vibration    16          0.673              1.731              1.605
 Vibration    17          0.683              1.703              1.508
 Vibration    18          0.704              1.639              1.321
 Vibration    19          0.719              1.597              1.214
 Vibration    20          0.736              1.551              1.114
 Vibration    21          0.749              1.516              1.045
 Vibration    22          0.771              1.458              0.942
 Vibration    23          0.792              1.403              0.855
 Vibration    24          0.802              1.377              0.818
 Vibration    25          0.827              1.318              0.739
 Vibration    26          0.856              1.249              0.657
 Vibration    27          0.913              1.122              0.528
 Vibration    28          0.971              1.006              0.429

 Optimization completed.
    -- Stationary point found.
 Normal termination of Gaussian 16 at Sun Dec 13 16:26:02 2020.

 ----------------------------------------------------------------------
 # B3LYP/6-311++G(d,p) empiricaldispersion=gd3bj scf=xqc pop=npa geom=c
 heck
 ----------------------------------------------------------------------

 --------------------------------------
 CID_63648429_JID_7024_Energie_neutraal
 --------------------------------------
 Structure from the checkpoint file:  "JID_7024.chk"
 Charge =  0 Multiplicity = 1

 SCF Done:  E(RB3LYP) =  -1075.77763472     A.U. after   14 cycles
 Normal termination of Gaussian 16 at Sun Dec 13 16:33:51 2020.

 ----------------------------------------------------------------------
 # B3LYP/6-311++G(d,p) empiricaldispersion=gd3bj scf=xqc pop=npa geom=c
 heck
 ----------------------------------------------------------------------

 ------------------------------------
 CID_63648429_JID_7024_Energie_kation
 ------------------------------------
 Structure from the checkpoint file:  "JID_7024.chk"
 Charge =  1 Multiplicity = 2

 SCF Done:  E(UB3LYP) =  -1075.49554983     A.U. after   29 cycles
 Normal termination of Gaussian 16 at Sun Dec 13 16:56:35 2020.
 Gaussian 16:  ES64L-G16RevA.03 25-Dec-2016

 ----------------------------------------------------------------------
 # B3LYP/6-311++G(d,p) empiricaldispersion=gd3bj scf=xqc pop=npa geom=c
 heck
 ----------------------------------------------------------------------

 -----------------------------------
 CID_63648429_JID_7024_Energie_anion
 -----------------------------------
 Structure from the checkpoint file:  "JID_7024.chk"
 Charge = -1 Multiplicity = 2

                         Standard orientation:
 ---------------------------------------------------------------------
 Center     Atomic      Atomic             Coordinates (Angstroms)
 Number     Number       Type             X           Y           Z
 ---------------------------------------------------------------------
      1          6           0        5.596888    0.802933    1.573270
      2          6           0        5.477197    1.534886    0.232678
      3          6           0        5.253888    0.609184   -0.973752
      4          6           0        3.994211   -0.257718   -0.891708
      5          7           0        2.788736    0.564748   -0.819861
      6          6           0        1.528051   -0.156721   -0.939898
      7          6           0        1.256870   -1.245464    0.117770
      8          6           0        1.252825   -0.700339    1.541976
      9          8           0        0.048710   -1.979396   -0.201658
     10          6           0       -1.156663   -1.317344   -0.137652
     11          6           0       -1.892045   -1.311747    1.051844
     12          6           0       -3.141341   -0.695881    1.097749
     13          6           0       -3.675582   -0.088318   -0.044715
     14          6           0       -2.947049   -0.121819   -1.240465
     15          6           0       -1.694692   -0.729451   -1.287701
     16         16           0       -5.289568    0.689816    0.015322
     17          6           0       -4.781670    2.432116    0.279588
     18          1           0        4.671838    0.276712    1.837464
     19          1           0        5.819249    1.502258    2.386650
     20          1           0        6.399779    0.056236    1.544682
     21          1           0        4.665642    2.273442    0.284145
     22          1           0        6.391552    2.116005    0.057920
     23          1           0        5.196126    1.216799   -1.884675
     24          1           0        6.122005   -0.055968   -1.080503
     25          1           0        3.918624   -0.865813   -1.802283
     26          1           0        4.094949   -0.971612   -0.054036
     27          1           0        2.792444    1.116800    0.033827
     28          1           0        0.716426    0.579548   -0.908274
     29          1           0        1.494906   -0.630600   -1.929045
     30          1           0        2.024036   -2.020797    0.037169
     31          1           0        0.503431    0.088511    1.667697
     32          1           0        1.041577   -1.497656    2.260751
     33          1           0        2.234683   -0.280186    1.785574
     34          1           0       -1.481426   -1.801567    1.928227
     35          1           0       -3.712761   -0.689804    2.020660
     36          1           0       -3.369731    0.324373   -2.135424
     37          1           0       -1.130456   -0.770632   -2.213377
     38          1           0       -4.233120    2.538022    1.219016
     39          1           0       -4.165432    2.787152   -0.550423
     40          1           0       -5.697403    3.027763    0.327482
 ---------------------------------------------------------------------

 SCF Done:  E(UB3LYP) =  -1075.76867778     A.U. after   33 cycles
 SCF Done:  E(UB3LYP) =  -1075.76867778     a.u. after    1 cycles

 The electronic state is 2-A.
 Alpha  occ. eigenvalues --  -88.74719 -19.04286 -14.21191 -10.13629 -10.13076
 Alpha  occ. eigenvalues --  -10.10367 -10.10361 -10.10275 -10.09755 -10.08725
 Alpha  occ. eigenvalues --  -10.08611 -10.08250 -10.08214 -10.07987 -10.07765
 Alpha  occ. eigenvalues --  -10.07589 -10.07044  -7.83283  -5.79686  -5.79329
 Alpha  occ. eigenvalues --   -5.78645  -0.95808  -0.82243  -0.76962  -0.71026
 Alpha  occ. eigenvalues --   -0.69984  -0.67796  -0.66136  -0.63557  -0.62907
 Alpha  occ. eigenvalues --   -0.58899  -0.56022  -0.54676  -0.52473  -0.51229
 Alpha  occ. eigenvalues --   -0.48257  -0.47546  -0.42412  -0.41433  -0.39340
 Alpha  occ. eigenvalues --   -0.38886  -0.37918  -0.37541  -0.35966  -0.35457
 Alpha  occ. eigenvalues --   -0.34453  -0.33781  -0.33603  -0.32958  -0.32680
 Alpha  occ. eigenvalues --   -0.31519  -0.30904  -0.30274  -0.29508  -0.29053
 Alpha  occ. eigenvalues --   -0.28132  -0.27574  -0.26428  -0.26275  -0.24913
 Alpha  occ. eigenvalues --   -0.24521  -0.24010  -0.23925  -0.22343  -0.19385
 Alpha  occ. eigenvalues --   -0.16989  -0.15421  -0.13758  -0.13292   0.03831
 Alpha virt. eigenvalues --    0.05130   0.06359   0.06744   0.06950   0.07303
 Alpha virt. eigenvalues --    0.07426   0.08061   0.08371   0.09096   0.09318
 Alpha virt. eigenvalues --    0.09685   0.09832   0.10518   0.10756   0.10978

  Beta  occ. eigenvalues --  -88.74716 -19.04289 -14.21183 -10.13603 -10.12930
  Beta  occ. eigenvalues --  -10.10357 -10.10351 -10.10199 -10.09663 -10.08690
  Beta  occ. eigenvalues --  -10.08561 -10.08256 -10.08225 -10.07973 -10.07753
  Beta  occ. eigenvalues --  -10.07568 -10.07005  -7.83279  -5.79676  -5.79326
  Beta  occ. eigenvalues --   -5.78643  -0.95752  -0.82226  -0.76838  -0.70970
  Beta  occ. eigenvalues --   -0.69866  -0.67736  -0.66040  -0.63448  -0.62835
  Beta  occ. eigenvalues --   -0.58851  -0.55908  -0.54591  -0.52426  -0.51172
  Beta  occ. eigenvalues --   -0.48163  -0.47469  -0.42374  -0.41379  -0.39286
  Beta  occ. eigenvalues --   -0.38822  -0.37853  -0.37483  -0.35925  -0.35392
  Beta  occ. eigenvalues --   -0.34404  -0.33745  -0.33544  -0.32888  -0.32620
  Beta  occ. eigenvalues --   -0.31415  -0.30863  -0.30171  -0.29452  -0.28935
  Beta  occ. eigenvalues --   -0.28093  -0.27511  -0.26359  -0.26170  -0.24818
  Beta  occ. eigenvalues --   -0.24473  -0.23979  -0.23874  -0.22238  -0.19374
  Beta  occ. eigenvalues --   -0.16730  -0.15014  -0.13728  -0.13199
  Beta virt. eigenvalues --    0.05775   0.06197   0.06866   0.07048   0.07275
  Beta virt. eigenvalues --    0.07392   0.07819   0.08112   0.08492   0.09458
  Beta virt. eigenvalues --    0.09559   0.09850   0.09932   0.10761   0.10882

 Mulliken charges and spin densities:
               1          2
     1  C    1.033174  -1.589279
     2  C   -0.988676   0.866630
     3  C    0.462767  -0.864448
     4  C    0.014766  -0.287144
     5  N    0.053049   0.002862
     6  C   -0.820672   0.052703
     7  C   -0.254676   0.220009
     8  C    0.138565  -0.695526
     9  O   -0.065634   0.010786
    10  C   -0.261189  -0.339683
    11  C    0.108351  -0.064357
    12  C   -0.652164   0.087278
    13  C    1.216669   0.085535
    14  C   -0.639787   0.259419
    15  C    0.054725  -0.022013
    16  S   -0.327832   0.182132
    17  C    0.198724  -0.923613
    18  H    0.104553   0.012819
    19  H   -0.406774   0.549047
    20  H   -0.205692   0.345648
    21  H   -0.010907   0.142308
    22  H   -0.190286   0.351938
    23  H    0.122430   0.027595
    24  H   -0.169475   0.311908
    25  H   -0.040594   0.187912
    26  H    0.144334  -0.032666
    27  H    0.321329  -0.077022
    28  H    0.101465   0.081345
    29  H    0.147193   0.038828
    30  H   -0.063135   0.291159
    31  H    0.129461   0.038304
    32  H   -0.015946   0.170682
    33  H   -0.202104   0.346063
    34  H    0.056712   0.111001
    35  H    0.088118   0.089842
    36  H    0.087446   0.092381
    37  H    0.096657   0.068465
    38  H   -0.080397   0.255027
    39  H   -0.040168   0.212393
    40  H   -0.244377   0.403734
 Sum of Mulliken charges =  -1.00000   1.00000

 Dipole moment (field-independent basis, Debye):
    X=             -1.7364    Y=             -2.1122    Z=             -1.9037  Tot=              3.3318
 Quadrupole moment (field-independent basis, Debye-Ang):
   XX=           -260.7645   YY=           -156.6724   ZZ=           -142.7062
   XY=              5.3520   XZ=            -10.6876   YZ=             -3.6380

 Summary of Natural Population Analysis:

                                       Natural Population
                Natural  -----------------------------------------------
    Atom  No    Charge         Core      Valence    Rydberg      Total
 -----------------------------------------------------------------------
      C    1   -0.28866      0.99967     2.28349    0.00550     3.28866
      C    2   -0.19355      0.99964     2.18551    0.00840     3.19355
      C    3   -0.19121      0.99963     2.18213    0.00946     3.19121
      C    4   -0.09013      0.99962     2.07998    0.01053     3.09013
      N    5   -0.34014      0.99974     2.82963    0.01076     3.84014
      C    6   -0.09943      0.99960     2.08849    0.01135     3.09943
      C    7    0.06402      0.99952     1.92392    0.01254     2.93598
      C    8   -0.30816      0.99964     2.30112    0.00740     3.30816
      O    9   -0.29823      0.99986     3.28809    0.01028     4.29823
      C   10    0.17645      0.99936     1.81095    0.01323     2.82355
      C   11   -0.12366      0.99951     2.11593    0.00822     3.12366
      C   12   -0.08943      0.99950     2.07979    0.01014     3.08943
      C   13   -0.08810      0.99940     2.07667    0.01203     3.08810
      C   14   -0.09210      0.99950     2.08257    0.01003     3.09210
      C   15   -0.12358      0.99951     2.11579    0.00828     3.12358
      S   16    0.09013      4.99957     2.88687    0.02343     7.90987
      C   17   -0.33958      0.99962     2.33363    0.00632     3.33958
      H   18    0.09442      0.00000     0.40413    0.00145     0.40558
      H   19    0.10087      0.00000     0.39794    0.00119     0.39913
      H   20    0.09746      0.00000     0.40125    0.00129     0.40254
      H   21    0.09241      0.00000     0.40643    0.00115     0.40759
      H   22    0.09738      0.00000     0.40154    0.00107     0.40262
      H   23    0.09820      0.00000     0.40060    0.00120     0.40180
      H   24    0.09581      0.00000     0.40323    0.00095     0.40419
      H   25    0.09283      0.00000     0.40605    0.00113     0.40717
      H   26    0.07978      0.00000     0.41852    0.00170     0.42022
      H   27    0.17229      0.00000     0.32420    0.00350     0.32771
      H   28    0.09843      0.00000     0.40027    0.00130     0.40157
      H   29    0.09404      0.00000     0.40468    0.00128     0.40596
      H   30    0.09047      0.00000     0.40789    0.00164     0.40953
      H   31    0.10286      0.00000     0.39604    0.00110     0.39714
      H   32    0.10457      0.00000     0.39442    0.00101     0.39543
      H   33    0.10319      0.00000     0.39567    0.00114     0.39681
      H   34    0.10422      0.00000     0.39442    0.00137     0.39578
      H   35    0.10296      0.00000     0.39583    0.00121     0.39704
      H   36    0.10285      0.00000     0.39605    0.00110     0.39715
      H   37    0.10394      0.00000     0.39456    0.00150     0.39606
      H   38    0.10086      0.00000     0.39757    0.00157     0.39914
      H   39    0.10027      0.00000     0.39816    0.00157     0.39973
      H   40    0.10522      0.00000     0.39293    0.00185     0.39478
 =======================================================================
   * Total *   -0.00000     20.99288    47.79695    0.21017    69.00000

 Normal termination of Gaussian 16 at Sun Dec 13 17:21:33 2020.
