 Gaussian 16, Revision A.03,

 -----------------------------------------------------------
 # opt freq B3LYP/6-31G(d) empiricaldispersion=gd3bj scf=xqc
 -----------------------------------------------------------

 ------------------------------
 CID_45086529_JID_2964_neutraal
 ------------------------------
 Symbolic Z-matrix:
 Charge =  0 Multiplicity = 1

 SCF Done:  E(RB3LYP) =  -611.771608357     A.U. after   15 cycles
 SCF Done:  E(RB3LYP) =  -611.774597843     A.U. after   12 cycles
 SCF Done:  E(RB3LYP) =  -611.774897538     A.U. after   11 cycles
 SCF Done:  E(RB3LYP) =  -611.775130632     A.U. after   12 cycles
 SCF Done:  E(RB3LYP) =  -611.775251829     A.U. after   12 cycles
 SCF Done:  E(RB3LYP) =  -611.775512499     A.U. after   12 cycles
 SCF Done:  E(RB3LYP) =  -611.776182976     A.U. after   13 cycles
 SCF Done:  E(RB3LYP) =  -611.776326662     A.U. after   12 cycles
 SCF Done:  E(RB3LYP) =  -611.776558834     A.U. after   11 cycles
 SCF Done:  E(RB3LYP) =  -611.776586053     A.U. after   11 cycles
 SCF Done:  E(RB3LYP) =  -611.776597179     A.U. after   10 cycles
 SCF Done:  E(RB3LYP) =  -611.776600314     A.U. after    9 cycles
 SCF Done:  E(RB3LYP) =  -611.776601148     A.U. after    9 cycles
 SCF Done:  E(RB3LYP) =  -611.776601367     A.U. after    8 cycles
 SCF Done:  E(RB3LYP) =  -611.776601431     A.U. after    8 cycles
 Optimization completed.
    -- Stationary point found.

 1\1\GINC-NODE116\FOpt\RB3LYP\6-31G(d)\C8H10O4\VSC10255\09-Dec-2020\0\\
 # opt freq B3LYP/6-31G(d) empiricaldispersion=gd3bj scf=xqc\\CID_45086
 529_JID_2964_neutraal\\0,1\C,0.4415283243,0.0761856541,-0.1135518707\C
 ,0.6235994217,-0.1410133983,1.3882190281\C,0.986374114,1.1281738285,2.
 0974639246\C,0.8766407072,2.4571164084,1.7717128331\C,1.3318358158,3.1
 91440383,2.9045618181\C,1.6880697046,2.2609742054,3.8456038227\O,1.479
 3099602,1.0015246166,3.3591165944\C,2.2332876404,2.3660267532,5.200988
 8681\O,2.521225258,1.4323069861,5.9191131172\O,2.3753735284,3.66939357

 Normal termination of Gaussian 16 at Wed Dec  9 18:18:42 2020.

 --------------------------------------------------------------------
 #N Geom=AllCheck Guess=TCheck SCRF=Check GenChk RB3LYP/6-31G(d) Freq
 --------------------------------------------------------------------

 Structure from the checkpoint file:  "JID_2964.chk"
 ------------------------------
 CID_45086529_JID_2964_neutraal
 ------------------------------
 Charge =  0 Multiplicity = 1

 SCF Done:  E(RB3LYP) =  -611.776601431     A.U. after    1 cycles

  Exact polarizability: 140.681   3.498  91.306   0.943  -5.516  59.572
 Approx polarizability: 171.146   6.828 163.691  -0.675 -14.936  89.270

                      1                      2                      3
                      A                      A                      A
 Frequencies --     31.1457                54.1626                99.0451
 Red. masses --      3.8068                 4.9469                 3.1148
 Frc consts  --      0.0022                 0.0086                 0.0180
 IR Inten    --      0.1191                 0.9691                 1.0737

                      4                      5                      6
                      A                      A                      A
 Frequencies --    104.2427               133.2450               145.2147
 Red. masses --      4.0645                 1.4323                 3.0938
 Frc consts  --      0.0260                 0.0150                 0.0384
 IR Inten    --      1.1298                 0.0391                 1.3008

                      7                      8                      9
                      A                      A                      A
 Frequencies --    211.7441               229.9859               266.9311
 Red. masses --      5.0027                 3.6418                 1.0948
 Frc consts  --      0.1322                 0.1135                 0.0460
 IR Inten    --      1.4121                 2.3700                 0.0828

                     10                     11                     12
                      A                      A                      A
 Frequencies --    274.2515               317.4930               330.9919
 Red. masses --      3.5333                 1.2137                 3.7834
 Frc consts  --      0.1566                 0.0721                 0.2442
 IR Inten    --     11.3666                94.5801                52.3462

                     13                     14                     15
                      A                      A                      A
 Frequencies --    414.8733               431.8502               488.3932
 Red. masses --      4.7194                 4.3617                 5.2521
 Frc consts  --      0.4786                 0.4793                 0.7381
 IR Inten    --     22.3629                 8.3867                 1.3887

                     16                     17                     18
                      A                      A                      A
 Frequencies --    546.6936               619.3259               643.7024
 Red. masses --      4.2944                 5.2199                 3.8594
 Frc consts  --      0.7562                 1.1797                 0.9422
 IR Inten    --     14.0988                 3.4828                 6.1006

                     19                     20                     21
                      A                      A                      A
 Frequencies --    735.7131               757.2387               808.2235
 Red. masses --      4.0938                 5.6697                 5.4806
 Frc consts  --      1.3056                 1.9155                 2.1093
 IR Inten    --      2.2044                24.5551                10.3093

                     22                     23                     24
                      A                      A                      A
 Frequencies --    819.2482               884.1313               904.0054
 Red. masses --      1.3137                 1.3621                 2.6460
 Frc consts  --      0.5195                 0.6273                 1.2741
 IR Inten    --     25.4088                 0.3401                22.9501

                     25                     26                     27
                      A                      A                      A
 Frequencies --    956.9420               982.9079              1027.1154
 Red. masses --      5.2894                 3.7833                 3.8840
 Frc consts  --      2.8538                 2.1535                 2.4142
 IR Inten    --      2.5479                 5.7171                30.6450

                     28                     29                     30
                      A                      A                      A
 Frequencies --   1039.0125              1056.3917              1110.1755
 Red. masses --      1.8396                 1.4137                 2.1881
 Frc consts  --      1.1701                 0.9295                 1.5889
 IR Inten    --     46.0313                24.4425                 6.7801

                     31                     32                     33
                      A                      A                      A
 Frequencies --   1117.9104              1183.5243              1186.1141
 Red. masses --      2.3295                 3.0854                 1.2709
 Frc consts  --      1.7153                 2.5464                 1.0535
 IR Inten    --     84.5680               163.7219                 0.8276

                     34                     35                     36
                      A                      A                      A
 Frequencies --   1221.9857              1229.9755              1254.4349
 Red. masses --      2.2454                 2.1929                 1.9567
 Frc consts  --      1.9755                 1.9546                 1.8141
 IR Inten    --    166.5990                 2.1430               133.1291

                     37                     38                     39
                      A                      A                      A
 Frequencies --   1301.5822              1339.6787              1363.7310
 Red. masses --      1.4654                 5.8523                 1.8701
 Frc consts  --      1.4627                 6.1884                 2.0491
 IR Inten    --     10.0250               316.7256                41.3235

                     40                     41                     42
                      A                      A                      A
 Frequencies --   1423.2605              1436.0201              1446.6267
 Red. masses --      1.6542                 1.2740                 1.7786
 Frc consts  --      1.9742                 1.5480                 2.1930
 IR Inten    --     28.3956                29.1201                21.8622

                     43                     44                     45
                      A                      A                      A
 Frequencies --   1492.2201              1512.0073              1520.3727
 Red. masses --      1.2301                 1.0479                 1.0723
 Frc consts  --      1.6139                 1.4115                 1.4604
 IR Inten    --      9.9878                 5.7775                 8.7949

                     46                     47                     48
                      A                      A                      A
 Frequencies --   1525.9887              1527.4057              1565.4683
 Red. masses --      1.0543                 1.0550                 6.7587
 Frc consts  --      1.4465                 1.4502                 9.7590
 IR Inten    --     14.5075                 2.0695                80.0886

                     49                     50                     51
                      A                      A                      A
 Frequencies --   1633.0735              1818.9375              3052.0387
 Red. masses --      6.1875                11.8616                 1.0394
 Frc consts  --      9.7225                23.1222                 5.7046
 IR Inten    --      9.0858               282.2851                12.0430

                     52                     53                     54
                      A                      A                      A
 Frequencies --   3074.6746              3084.5851              3120.9498
 Red. masses --      1.0296                 1.0844                 1.0992
 Frc consts  --      5.7349                 6.0793                 6.3081
 IR Inten    --     38.4766                 8.9213                31.9593

                     55                     56                     57
                      A                      A                      A
 Frequencies --   3148.3227              3148.4644              3182.1453
 Red. masses --      1.1075                 1.1024                 1.1069
 Frc consts  --      6.4675                 6.4383                 6.6041
 IR Inten    --     21.0058                20.1254                18.0566

                     58                     59                     60
                      A                      A                      A
 Frequencies --   3274.1676              3292.2177              3721.0192
 Red. masses --      1.0940                 1.1001                 1.0661
 Frc consts  --      6.9101                 7.0250                 8.6968
 IR Inten    --      4.0770                 0.0240                10.0273

 - Thermochemistry -
 -------------------
 Temperature   298.150 Kelvin.  Pressure   1.00000 Atm.
 Atom     1 has atomic number  6 and mass  12.00000

 Molecular mass:   170.05791 amu.
 Principal axes and moments of inertia in atomic units:
                           1         2         3
     Eigenvalues --   665.143124116.100864578.22735
           X            0.99997   0.00544   0.00519
           Y           -0.00542   0.99998  -0.00437
           Z           -0.00522   0.00434   0.99998
 This molecule is an asymmetric top.
 Rotational symmetry number  1.
 Warning -- assumption of classical behavior for rotation
           may cause significant error
 Rotational temperatures (Kelvin)      0.13022     0.02104     0.01892
 Rotational constants (GHZ):           2.71331     0.43846     0.39420
 Zero-point vibrational energy     458309.1 (Joules/Mol)
                                  109.53851 (Kcal/Mol)
 Warning -- explicit consideration of  17 degrees of freedom as
           vibrations may cause significant error
 Vibrational temperatures:     44.81    77.93   142.50   149.98   191.71
          (Kelvin)            208.93   304.65   330.90   384.05   394.59
                              456.80   476.22   596.91   621.34   702.69
                              786.57   891.07   926.14  1058.53  1089.50
                             1162.85  1178.72  1272.07  1300.66  1376.83
                             1414.19  1477.79  1494.91  1519.91  1597.29
                             1608.42  1702.83  1706.55  1758.16  1769.66
                             1804.85  1872.69  1927.50  1962.10  2047.75
                             2066.11  2081.37  2146.97  2175.44  2187.48
                             2195.56  2197.60  2252.36  2349.63  2617.05
                             4391.20  4423.77  4438.03  4490.35  4529.73
                             4529.94  4578.40  4710.80  4736.77  5353.72

 Zero-point correction=                           0.174561 (Hartree/Particle)
 Thermal correction to Energy=                    0.186758
 Thermal correction to Enthalpy=                  0.187702
 Thermal correction to Gibbs Free Energy=         0.135098
 Sum of electronic and zero-point Energies=           -611.602041
 Sum of electronic and thermal Energies=              -611.589843
 Sum of electronic and thermal Enthalpies=            -611.588899
 Sum of electronic and thermal Free Energies=         -611.641503

                     E (Thermal)             CV                S
                      KCal/Mol        Cal/Mol-Kelvin    Cal/Mol-Kelvin
 Total                  117.192             43.431            110.715
 Electronic               0.000              0.000              0.000
 Translational            0.889              2.981             41.301
 Rotational               0.889              2.981             30.906
 Vibrational            115.415             37.469             38.508
 Vibration     1          0.594              1.983              5.755
 Vibration     2          0.596              1.976              4.659
 Vibration     3          0.604              1.950              3.473
 Vibration     4          0.605              1.946              3.373
 Vibration     5          0.613              1.920              2.899
 Vibration     6          0.617              1.908              2.734
 Vibration     7          0.643              1.823              2.029
 Vibration     8          0.652              1.795              1.879
 Vibration     9          0.672              1.734              1.616
 Vibration    10          0.677              1.721              1.569
 Vibration    11          0.704              1.640              1.323
 Vibration    12          0.713              1.614              1.255
 Vibration    13          0.778              1.438              0.910
 Vibration    14          0.793              1.401              0.853
 Vibration    15          0.844              1.276              0.688
 Vibration    16          0.902              1.147              0.551
 Vibration    17          0.979              0.991              0.418

 Optimization completed.
    -- Stationary point found.

 1\1\GINC-NODE116\Freq\RB3LYP\6-31G(d)\C8H10O4\VSC10255\09-Dec-2020\0\\
 #N Geom=AllCheck Guess=TCheck SCRF=Check GenChk RB3LYP/6-31G(d) Freq\\
 CID_45086529_JID_2964_neutraal\\0,1\C,0.4415283243,0.0761856541,-0.113
 5518707\C,0.6235994217,-0.1410133983,1.3882190281\C,0.986374114,1.1281
 738285,2.0974639246\C,0.8766407072,2.4571164084,1.7717128331\C,1.33183
 58158,3.191440383,2.9045618181\C,1.6880697046,2.2609742054,3.845603822
 7\O,1.4793099602,1.0015246166,3.3591165944\C,2.2332876404,2.3660267532
 ,5.2009888681\O,2.521225258,1.4323069861,5.9191131172\O,2.3753735284,3

 Normal termination of Gaussian 16 at Wed Dec  9 18:23:23 2020.

 ----------------------------------------------------------------------
 # B3LYP/6-311++G(d,p) empiricaldispersion=gd3bj scf=xqc pop=npa geom=c
 heck
 ----------------------------------------------------------------------

 --------------------------------------
 CID_45086529_JID_2964_Energie_neutraal
 --------------------------------------
 Structure from the checkpoint file:  "JID_2964.chk"
 Charge =  0 Multiplicity = 1

 SCF Done:  E(RB3LYP) =  -611.963993213     A.U. after   15 cycles
 Normal termination of Gaussian 16 at Wed Dec  9 18:25:33 2020.

 ----------------------------------------------------------------------
 # B3LYP/6-311++G(d,p) empiricaldispersion=gd3bj scf=xqc pop=npa geom=c
 heck
 ----------------------------------------------------------------------

 ------------------------------------
 CID_45086529_JID_2964_Energie_kation
 ------------------------------------
 Structure from the checkpoint file:  "JID_2964.chk"
 Charge =  1 Multiplicity = 2

 SCF Done:  E(UB3LYP) =  -611.640899557     A.U. after   24 cycles
 Normal termination of Gaussian 16 at Wed Dec  9 18:29:58 2020.
 Gaussian 16:  ES64L-G16RevA.03 25-Dec-2016

 -----------------------------------
 CID_45086529_JID_2964_Energie_anion
 -----------------------------------
 Structure from the checkpoint file:  "JID_2964.chk"
 Charge = -1 Multiplicity = 2

                         Standard orientation:
 ---------------------------------------------------------------------
 Center     Atomic      Atomic             Coordinates (Angstroms)
 Number     Number       Type             X           Y           Z
 ---------------------------------------------------------------------
      1          6           0        3.920700    0.474218    0.497964
      2          6           0        2.770400   -0.503710    0.261093
      3          6           0        1.455243    0.201455    0.124800
      4          6           0        1.103088    1.498792   -0.152951
      5          6           0       -0.319731    1.527402   -0.220379
      6          6           0       -0.739918    0.245286    0.020142
      7          8           0        0.337888   -0.567337    0.230959
      8          6           0       -2.063960   -0.376030    0.099169
      9          8           0       -2.281021   -1.543731    0.343715
     10          8           0       -3.028041    0.547014   -0.140727
     11          6           0       -4.368944    0.039920   -0.083772
     12          8           0        3.022781   -1.347610   -0.866775
     13          1           0        4.012974    1.178435   -0.338061
     14          1           0        4.857349   -0.083622    0.576046
     15          1           0        3.772696    1.051942    1.416400
     16          1           0        2.701060   -1.200369    1.103127
     17          1           0        1.778545    2.332217   -0.281652
     18          1           0       -0.959434    2.375241   -0.415363
     19          1           0       -4.514050   -0.747087   -0.828586
     20          1           0       -4.583954   -0.367557    0.907682
     21          1           0       -5.012615    0.893737   -0.296262
     22          1           0        2.993313   -0.783632   -1.657100
 ---------------------------------------------------------------------

 SCF Done:  E(UB3LYP) =  -611.962232564     A.U. after   33 cycles
 SCF Done:  E(UB3LYP) =  -611.962232564     a.u. after    1 cycles

 The electronic state is 2-A.
 Alpha  occ. eigenvalues --  -19.03307 -19.02740 -18.99670 -18.94915 -10.13605
 Alpha  occ. eigenvalues --  -10.11222 -10.10710 -10.07917 -10.07257 -10.04932
 Alpha  occ. eigenvalues --  -10.03633 -10.02832  -0.97231  -0.95997  -0.89919
 Alpha  occ. eigenvalues --   -0.87011  -0.66737  -0.65761  -0.62293  -0.58799
 Alpha  occ. eigenvalues --   -0.51855  -0.47812  -0.45232  -0.41974  -0.40741
 Alpha  occ. eigenvalues --   -0.37390  -0.36062  -0.34954  -0.33199  -0.31938
 Alpha  occ. eigenvalues --   -0.31289  -0.30026  -0.28569  -0.27499  -0.26879
 Alpha  occ. eigenvalues --   -0.26346  -0.25495  -0.24120  -0.22902  -0.20886
 Alpha  occ. eigenvalues --   -0.17580  -0.16144  -0.14909  -0.13498  -0.09783
 Alpha  occ. eigenvalues --    0.05218
 Alpha virt. eigenvalues --    0.07602   0.07865   0.09398   0.09912   0.10762
 Alpha virt. eigenvalues --    0.11230   0.12085   0.12207   0.12783   0.13735
 Alpha virt. eigenvalues --    0.15085   0.15786   0.17208   0.17753   0.18104

  Beta  occ. eigenvalues --  -19.03043 -19.02662 -18.99589 -18.94608 -10.13364
  Beta  occ. eigenvalues --  -10.11226 -10.10713 -10.07700 -10.07138 -10.04905
  Beta  occ. eigenvalues --  -10.03697 -10.02670  -0.96837  -0.95686  -0.89712
  Beta  occ. eigenvalues --   -0.86539  -0.66492  -0.65448  -0.62080  -0.58632
  Beta  occ. eigenvalues --   -0.51655  -0.47409  -0.45091  -0.41760  -0.40569
  Beta  occ. eigenvalues --   -0.37225  -0.35649  -0.34696  -0.32928  -0.31767
  Beta  occ. eigenvalues --   -0.30468  -0.29853  -0.28436  -0.27313  -0.26694
  Beta  occ. eigenvalues --   -0.25910  -0.24782  -0.23936  -0.22686  -0.20745
  Beta  occ. eigenvalues --   -0.16546  -0.16008  -0.13982  -0.13207  -0.08469
  Beta virt. eigenvalues --    0.07755   0.07961   0.09635   0.10248   0.10556
  Beta virt. eigenvalues --    0.11062   0.11433   0.12174   0.12254   0.12926
  Beta virt. eigenvalues --    0.13967   0.15265   0.16207   0.17185   0.17777

 Mulliken charges and spin densities:
               1          2
     1  C    0.964419  -1.327884
     2  C   -1.714117   1.033272
     3  C    1.461984  -0.838230
     4  C   -0.783648   0.390693
     5  C   -0.035683   0.016903
     6  C   -0.397904   0.057285
     7  O   -0.062708   0.067284
     8  C    0.533839  -0.108649
     9  O   -0.364050   0.101599
    10  O   -0.144112   0.013460
    11  C   -0.201080  -0.020321
    12  O   -0.136930  -0.040766
    13  H   -0.248347   0.396961
    14  H   -0.251320   0.394493
    15  H    0.046622   0.076385
    16  H   -0.009000   0.179983
    17  H   -0.322866   0.461930
    18  H    0.120636   0.030030
    19  H    0.144091   0.015934
    20  H    0.155381   0.002316
    21  H    0.114189   0.003430
    22  H    0.130606   0.093891
 Sum of Mulliken charges =  -1.00000   1.00000

 Dipole moment (field-independent basis, Debye):
    X=             -4.0552    Y=              2.4955    Z=              0.1137  Tot=              4.7628
 Quadrupole moment (field-independent basis, Debye-Ang):
   XX=           -114.0222   YY=            -96.6867   ZZ=            -82.2346
   XY=             -3.4399   XZ=              3.6026   YZ=             -0.9693

 Summary of Natural Population Analysis:

                                       Natural Population
                Natural  -----------------------------------------------
    Atom  No    Charge         Core      Valence    Rydberg      Total
 -----------------------------------------------------------------------
      C    1   -0.29425      0.99966     2.28923    0.00536     3.29425
      C    2    0.03958      0.99954     1.94700    0.01388     2.96042
      C    3    0.17835      0.99946     1.80631    0.01588     2.82165
      C    4   -0.17660      0.99951     2.16839    0.00870     3.17660
      C    5   -0.10379      0.99953     2.09530    0.00896     3.10379
      C    6    0.11140      0.99941     1.87540    0.01379     2.88860
      O    7   -0.19973      0.99985     3.19193    0.00796     4.19973
      C    8    0.40297      0.99963     1.57340    0.02401     2.59703
      O    9   -0.28718      0.99987     3.28171    0.00559     4.28718
      O   10   -0.28026      0.99987     3.27254    0.00786     4.28026
      C   11   -0.10497      0.99962     2.09685    0.00851     3.10497
      O   12   -0.36434      0.99990     3.35770    0.00674     4.36434
      H   13    0.09716      0.00000     0.40117    0.00166     0.40284
      H   14    0.10027      0.00000     0.39867    0.00106     0.39973
      H   15    0.10103      0.00000     0.39790    0.00107     0.39897
      H   16    0.09163      0.00000     0.40624    0.00213     0.40837
      H   17    0.10367      0.00000     0.39538    0.00096     0.39633
      H   18    0.10318      0.00000     0.39562    0.00120     0.39682
      H   19    0.08707      0.00000     0.41165    0.00127     0.41293
      H   20    0.08647      0.00000     0.41225    0.00128     0.41353
      H   21    0.08197      0.00000     0.41722    0.00081     0.41803
      H   22    0.22638      0.00000     0.27025    0.00338     0.27362
 =======================================================================
   * Total *    0.00000     11.99584    32.86211    0.14205    45.00000

 Normal termination of Gaussian 16 at Wed Dec  9 18:35:55 2020.
