 Gaussian 16, Revision A.03,

 -----------------------------------------------------------
 # opt freq B3LYP/6-31G(d) empiricaldispersion=gd3bj scf=xqc
 -----------------------------------------------------------

 -------------------------------
 CID_82061158_JID_10008_neutraal
 -------------------------------
 Symbolic Z-matrix:
 Charge =  0 Multiplicity = 1

 SCF Done:  E(RB3LYP) =  -845.879025310     A.U. after   15 cycles
 SCF Done:  E(RB3LYP) =  -845.883453480     A.U. after   12 cycles
 SCF Done:  E(RB3LYP) =  -845.884003457     A.U. after   12 cycles
 SCF Done:  E(RB3LYP) =  -845.884141381     A.U. after   11 cycles
 SCF Done:  E(RB3LYP) =  -845.884206943     A.U. after   11 cycles
 SCF Done:  E(RB3LYP) =  -845.884246229     A.U. after   11 cycles
 SCF Done:  E(RB3LYP) =  -845.884271913     A.U. after   11 cycles
 SCF Done:  E(RB3LYP) =  -845.884311515     A.U. after   11 cycles
 SCF Done:  E(RB3LYP) =  -845.884356441     A.U. after   12 cycles
 SCF Done:  E(RB3LYP) =  -845.884425089     A.U. after   12 cycles
 SCF Done:  E(RB3LYP) =  -845.886861197     A.U. after   10 cycles
 SCF Done:  E(RB3LYP) =  -845.886862268     A.U. after    7 cycles
 SCF Done:  E(RB3LYP) =  -845.886862812     A.U. after    7 cycles
 SCF Done:  E(RB3LYP) =  -845.886862929     A.U. after    7 cycles
 SCF Done:  E(RB3LYP) =  -845.886862982     A.U. after    6 cycles
 Optimization completed.
    -- Stationary point found.
 Normal termination of Gaussian 16 at Mon Dec 14 13:46:22 2020.

 --------------------------------------------------------------------
 #N Geom=AllCheck Guess=TCheck SCRF=Check GenChk RB3LYP/6-31G(d) Freq
 --------------------------------------------------------------------

 Structure from the checkpoint file:  "JID_10008.chk"
 -------------------------------
 CID_82061158_JID_10008_neutraal
 -------------------------------
 Charge =  0 Multiplicity = 1

 SCF Done:  E(RB3LYP) =  -845.886862981     A.U. after    1 cycles

  Exact polarizability: 289.025   1.682 177.003 -15.573   5.901 131.975
 Approx polarizability: 358.329   5.571 305.937 -29.991  17.534 212.558

                      1                      2                      3
                      A                      A                      A
 Frequencies --     16.2615                21.1388                41.2637
 Red. masses --      4.6605                 3.6315                 4.5333
 Frc consts  --      0.0007                 0.0010                 0.0045
 IR Inten    --      0.5959                 0.9780                 0.1968

                      4                      5                      6
                      A                      A                      A
 Frequencies --     48.8416                75.0949                97.5815
 Red. masses --      3.0794                 4.2330                 3.7275
 Frc consts  --      0.0043                 0.0141                 0.0209
 IR Inten    --      0.1629                 0.1630                 0.4581

                      7                      8                      9
                      A                      A                      A
 Frequencies --    129.9510               166.2954               176.3756
 Red. masses --      3.0350                 1.1376                 4.9124
 Frc consts  --      0.0302                 0.0185                 0.0900
 IR Inten    --      0.7199                 1.5096                 0.8814

                     10                     11                     12
                      A                      A                      A
 Frequencies --    225.6617               229.0674               237.3699
 Red. masses --      3.1981                 2.0223                 1.6149
 Frc consts  --      0.0960                 0.0625                 0.0536
 IR Inten    --      0.1205                 0.6186                 1.2511

                     13                     14                     15
                      A                      A                      A
 Frequencies --    258.8009               288.5811               291.8087
 Red. masses --      1.9913                 1.1901                 1.3863
 Frc consts  --      0.0786                 0.0584                 0.0696
 IR Inten    --      1.1671                 1.0730                 0.8200

                     16                     17                     18
                      A                      A                      A
 Frequencies --    296.4140               308.1759               309.0809
 Red. masses --      2.5076                 2.9157                 2.5972
 Frc consts  --      0.1298                 0.1632                 0.1462
 IR Inten    --      2.5158                 5.9390                 1.0192

                     19                     20                     21
                      A                      A                      A
 Frequencies --    330.6272               349.5801               360.7676
 Red. masses --      3.6391                 1.1291                 2.3565
 Frc consts  --      0.2344                 0.0813                 0.1807
 IR Inten    --      0.8364                39.1388                 7.2952

                     22                     23                     24
                      A                      A                      A
 Frequencies --    394.0257               403.0722               422.5193
 Red. masses --      2.4450                 3.1608                 2.0298
 Frc consts  --      0.2237                 0.3026                 0.2135
 IR Inten    --      0.5225                 3.0954                 0.3861

                     25                     26                     27
                      A                      A                      A
 Frequencies --    428.3488               452.7618               480.5293
 Red. masses --      2.9709                 2.8786                 3.5524
 Frc consts  --      0.3212                 0.3477                 0.4833
 IR Inten    --      0.4402                 1.0431                 0.7689

                     28                     29                     30
                      A                      A                      A
 Frequencies --    519.9828               540.1988               552.2795
 Red. masses --      3.9660                 3.8709                 4.2590
 Frc consts  --      0.6318                 0.6655                 0.7654
 IR Inten    --      5.7480                 3.5181                15.9036

                     31                     32                     33
                      A                      A                      A
 Frequencies --    573.2639               597.3023               616.1925
 Red. masses --      3.7139                 4.7492                 4.8035
 Frc consts  --      0.7191                 0.9983                 1.0746
 IR Inten    --     11.6070                 4.1899                 5.6771

                     34                     35                     36
                      A                      A                      A
 Frequencies --    656.6338               668.0941               717.3253
 Red. masses --      6.4174                 1.5077                 4.2558
 Frc consts  --      1.6303                 0.3965                 1.2902
 IR Inten    --      4.8357               270.1306                 1.3318

                     37                     38                     39
                      A                      A                      A
 Frequencies --    742.6900               752.0257               777.9581
 Red. masses --      5.3582                 4.3707                 4.2327
 Frc consts  --      1.7413                 1.4563                 1.5093
 IR Inten    --      4.3394                10.6538                 0.7609

                     40                     41                     42
                      A                      A                      A
 Frequencies --    795.0165               828.1958               836.4351
 Red. masses --      4.2181                 1.2306                 1.2668
 Frc consts  --      1.5708                 0.4973                 0.5222
 IR Inten    --      5.8106                21.9735                 0.4112

                     43                     44                     45
                      A                      A                      A
 Frequencies --    857.1216               863.7273               868.6030
 Red. masses --      3.1836                 4.2721                 2.6236
 Frc consts  --      1.3780                 1.8778                 1.1663
 IR Inten    --     18.7454                 2.7874                19.9728

                     46                     47                     48
                      A                      A                      A
 Frequencies --    911.0397               921.8114               938.3164
 Red. masses --      1.8702                 2.1879                 1.3057
 Frc consts  --      0.9146                 1.0954                 0.6773
 IR Inten    --      0.1445                 3.0932                 0.2204

                     49                     50                     51
                      A                      A                      A
 Frequencies --    951.3172               953.5721               957.6731
 Red. masses --      1.6008                 1.5205                 1.3291
 Frc consts  --      0.8536                 0.8146                 0.7182
 IR Inten    --      0.1544                 0.1783                 0.4478

                     52                     53                     54
                      A                      A                      A
 Frequencies --    960.8508               970.2367               975.4307
 Red. masses --      1.3717                 2.8173                 1.2008
 Frc consts  --      0.7461                 1.5626                 0.6731
 IR Inten    --      2.9310                42.4395                 0.0003

                     55                     56                     57
                      A                      A                      A
 Frequencies --   1033.7151              1043.7540              1062.8612
 Red. masses --      1.6894                 2.4727                 1.4244
 Frc consts  --      1.0636                 1.5872                 0.9481
 IR Inten    --      3.8518                 9.9770                 0.1885

                     58                     59                     60
                      A                      A                      A
 Frequencies --   1066.2882              1070.9352              1134.6705
 Red. masses --      1.4312                 1.4927                 1.4846
 Frc consts  --      0.9588                 1.0087                 1.1262
 IR Inten    --      0.0417                 1.6170                 3.5923

                     61                     62                     63
                      A                      A                      A
 Frequencies --   1137.7686              1184.2549              1198.7457
 Red. masses --      1.4108                 1.3103                 1.5764
 Frc consts  --      1.0761                 1.0827                 1.3347
 IR Inten    --      7.5026                 3.0927                37.1344

                     64                     65                     66
                      A                      A                      A
 Frequencies --   1206.9298              1240.7212              1246.4807
 Red. masses --      1.3970                 2.0767                 2.6412
 Frc consts  --      1.1990                 1.8836                 2.4178
 IR Inten    --    117.5156                29.5346                 0.9987

                     67                     68                     69
                      A                      A                      A
 Frequencies --   1257.3407              1277.8565              1284.5952
 Red. masses --      4.8383                 2.7189                 3.0191
 Frc consts  --      4.5066                 2.6159                 2.9353
 IR Inten    --    144.6691                63.1867               251.3093

                     70                     71                     72
                      A                      A                      A
 Frequencies --   1305.5794              1314.9218              1315.7908
 Red. masses --      3.5595                 2.2185                 2.2194
 Frc consts  --      3.5747                 2.2600                 2.2639
 IR Inten    --    231.8827                 8.7891                11.4404

                     73                     74                     75
                      A                      A                      A
 Frequencies --   1342.8591              1371.2234              1373.6998
 Red. masses --      1.5946                 1.5301                 2.6436
 Frc consts  --      1.6942                 1.6951                 2.9392
 IR Inten    --      2.4501                 0.2495                 4.4311

                     76                     77                     78
                      A                      A                      A
 Frequencies --   1388.8537              1427.7606              1428.7965
 Red. masses --      4.0150                 1.2427                 1.2553
 Frc consts  --      4.5630                 1.4926                 1.5099
 IR Inten    --     17.3794                 3.7159                 7.5154

                     79                     80                     81
                      A                      A                      A
 Frequencies --   1440.6162              1457.9703              1467.5598
 Red. masses --      1.3270                 1.2308                 2.7817
 Frc consts  --      1.6226                 1.5414                 3.5298
 IR Inten    --     21.8060                 7.6910                 2.3253

                     82                     83                     84
                      A                      A                      A
 Frequencies --   1482.2887              1511.6072              1511.8599
 Red. masses --      3.2557                 1.0865                 1.0481
 Frc consts  --      4.2147                 1.4627                 1.4115
 IR Inten    --    290.5133                 0.8726                 0.0263

                     85                     86                     87
                      A                      A                      A
 Frequencies --   1512.6739              1519.2248              1520.2778
 Red. masses --      1.0449                 1.0538                 1.0450
 Frc consts  --      1.4087                 1.4330                 1.4231
 IR Inten    --      8.8914                 1.7307                 2.0161

                     88                     89                     90
                      A                      A                      A
 Frequencies --   1523.0648              1530.2714              1538.0018
 Red. masses --      1.3267                 2.1960                 1.0635
 Frc consts  --      1.8133                 3.0299                 1.4821
 IR Inten    --     82.7186                 6.1365                 2.2293

                     91                     92                     93
                      A                      A                      A
 Frequencies --   1538.7236              1549.5050              1560.9046
 Red. masses --      1.0617                 1.0590                 2.5354
 Frc consts  --      1.4811                 1.4981                 3.6395
 IR Inten    --      6.3689                13.2768               144.2814

                     94                     95                     96
                      A                      A                      A
 Frequencies --   1625.5152              1643.3964              1656.2892
 Red. masses --      4.3808                 6.6602                 3.5770
 Frc consts  --      6.8200                10.5980                 5.7814
 IR Inten    --     27.8097                17.8126                93.5331

                     97                     98                     99
                      A                      A                      A
 Frequencies --   1672.5569              1685.8122              3025.5276
 Red. masses --      5.6806                 1.5137                 1.0453
 Frc consts  --      9.3628                 2.5346                 5.6375
 IR Inten    --      9.3018                66.9125                32.8184

                    100                    101                    102
                      A                      A                      A
 Frequencies --   3031.8094              3035.8358              3038.7373
 Red. masses --      1.0552                 1.0368                 1.0362
 Frc consts  --      5.7149                 5.6300                 5.6372
 IR Inten    --     17.0716                45.9702                35.3053

                    103                    104                    105
                      A                      A                      A
 Frequencies --   3047.1285              3072.2251              3079.0626
 Red. masses --      1.0392                 1.1041                 1.0936
 Frc consts  --      5.6852                 6.1397                 6.1087
 IR Inten    --     23.3432                14.5906                18.8688

                    106                    107                    108
                      A                      A                      A
 Frequencies --   3099.6272              3101.2233              3105.1445
 Red. masses --      1.1024                 1.1019                 1.1020
 Frc consts  --      6.2405                 6.2440                 6.2601
 IR Inten    --      0.4730                 6.7493                49.2952

                    109                    110                    111
                      A                      A                      A
 Frequencies --   3108.8357              3122.8104              3126.5457
 Red. masses --      1.1011                 1.1009                 1.1001
 Frc consts  --      6.2701                 6.3253                 6.3360
 IR Inten    --     87.0627                 5.2042                67.7482

                    112                    113                    114
                      A                      A                      A
 Frequencies --   3136.7776              3183.4224              3187.4560
 Red. masses --      1.0989                 1.0872                 1.0889
 Frc consts  --      6.3704                 6.4917                 6.5184
 IR Inten    --     14.2539                 8.4648                14.4370

                    115                    116                    117
                      A                      A                      A
 Frequencies --   3188.1994              3203.8465              3216.8416
 Red. masses --      1.0888                 1.0955                 1.0936
 Frc consts  --      6.5207                 6.6254                 6.6674
 IR Inten    --     21.4939                34.8034                 8.1797

                    118                    119                    120
                      A                      A                      A
 Frequencies --   3236.0002              3551.5936              3655.0814
 Red. masses --      1.0929                 1.0472                 1.0984
 Frc consts  --      6.7429                 7.7827                 8.6458
 IR Inten    --      7.6003                17.3133                22.8353

 - Thermochemistry -
 -------------------
 Temperature   298.150 Kelvin.  Pressure   1.00000 Atm.
 Atom     1 has atomic number  6 and mass  12.00000

 Molecular mass:   270.17321 amu.
 Principal axes and moments of inertia in atomic units:
                           1         2         3
     Eigenvalues --  1621.77542********************
           X            1.00000   0.00157  -0.00058
           Y           -0.00156   0.99997   0.00752
           Z            0.00060  -0.00751   0.99997
 This molecule is an asymmetric top.
 Rotational symmetry number  1.
 Warning -- assumption of classical behavior for rotation
           may cause significant error
 Rotational temperatures (Kelvin)      0.05341     0.00594     0.00572
 Rotational constants (GHZ):           1.11282     0.12374     0.11927
 Zero-point vibrational energy     947212.4 (Joules/Mol)
                                  226.38919 (Kcal/Mol)
 Warning -- explicit consideration of  33 degrees of freedom as
           vibrations may cause significant error
 Vibrational temperatures:     23.40    30.41    59.37    70.27   108.04
          (Kelvin)            140.40   186.97   239.26   253.77   324.68
                              329.58   341.52   372.36   415.20   419.85
                              426.47   443.40   444.70   475.70   502.97
                              519.06   566.92   579.93   607.91   616.30
                              651.42   691.37   748.14   777.23   794.61
                              824.80   859.38   886.56   944.75   961.24
                             1032.07  1068.57  1082.00  1119.31  1143.85
                             1191.59  1203.44  1233.21  1242.71  1249.73
                             1310.78  1326.28  1350.03  1368.73  1371.98
                             1377.88  1382.45  1395.95  1403.43  1487.29
                             1501.73  1529.22  1534.15  1540.84  1632.54
                             1637.00  1703.88  1724.73  1736.50  1785.12
                             1793.41  1809.03  1838.55  1848.25  1878.44
                             1891.88  1893.13  1932.07  1972.88  1976.45
                             1998.25  2054.23  2055.72  2072.73  2097.69
                             2111.49  2132.68  2174.87  2175.23  2176.40
                             2185.83  2187.34  2191.35  2201.72  2212.84
                             2213.88  2229.39  2245.79  2338.75  2364.48
                             2383.03  2406.44  2425.51  4353.06  4362.10
                             4367.89  4372.07  4384.14  4420.25  4430.08
                             4459.67  4461.97  4467.61  4472.92  4493.03
                             4498.40  4513.12  4580.23  4586.04  4587.11
                             4609.62  4628.32  4655.88  5109.95  5258.85

 Zero-point correction=                           0.360774 (Hartree/Particle)
 Thermal correction to Energy=                    0.380432
 Thermal correction to Enthalpy=                  0.381376
 Thermal correction to Gibbs Free Energy=         0.311498
 Sum of electronic and zero-point Energies=           -845.526089
 Sum of electronic and thermal Energies=              -845.506431
 Sum of electronic and thermal Enthalpies=            -845.505487
 Sum of electronic and thermal Free Energies=         -845.575365

                     E (Thermal)             CV                S
                      KCal/Mol        Cal/Mol-Kelvin    Cal/Mol-Kelvin
 Total                  238.725             76.973            147.071
 Electronic               0.000              0.000              0.000
 Translational            0.889              2.981             42.681
 Rotational               0.889              2.981             34.236
 Vibrational            236.947             71.011             70.154
 Vibration     1          0.593              1.986              7.045
 Vibration     2          0.593              1.985              6.524
 Vibration     3          0.594              1.981              5.197
 Vibration     4          0.595              1.978              4.864
 Vibration     5          0.599              1.966              4.015
 Vibration     6          0.603              1.951              3.502
 Vibration     7          0.612              1.923              2.947
 Vibration     8          0.624              1.884              2.477
 Vibration     9          0.628              1.871              2.366
 Vibration    10          0.650              1.802              1.913
 Vibration    11          0.652              1.797              1.886
 Vibration    12          0.656              1.783              1.823
 Vibration    13          0.668              1.748              1.670
 Vibration    14          0.685              1.695              1.482
 Vibration    15          0.687              1.689              1.463
 Vibration    16          0.690              1.680              1.437
 Vibration    17          0.698              1.658              1.372
 Vibration    18          0.698              1.656              1.367
 Vibration    19          0.713              1.614              1.257
 Vibration    20          0.727              1.576              1.168
 Vibration    21          0.735              1.553              1.119
 Vibration    22          0.761              1.483              0.985
 Vibration    23          0.768              1.463              0.951
 Vibration    24          0.785              1.421              0.883
 Vibration    25          0.790              1.409              0.864
 Vibration    26          0.811              1.355              0.787
 Vibration    27          0.837              1.293              0.709
 Vibration    28          0.875              1.206              0.610
 Vibration    29          0.895              1.161              0.565
 Vibration    30          0.908              1.135              0.539
 Vibration    31          0.930              1.089              0.498
 Vibration    32          0.955              1.038              0.454
 Vibration    33          0.976              0.998              0.423

 Optimization completed.
    -- Stationary point found.
 Normal termination of Gaussian 16 at Mon Dec 14 14:08:09 2020.

 ----------------------------------------------------------------------
 # B3LYP/6-311++G(d,p) empiricaldispersion=gd3bj scf=xqc pop=npa geom=c
 heck
 ----------------------------------------------------------------------

 ---------------------------------------
 CID_82061158_JID_10008_Energie_neutraal
 ---------------------------------------
 Structure from the checkpoint file:  "JID_10008.chk"
 Charge =  0 Multiplicity = 1

 SCF Done:  E(RB3LYP) =  -846.116220395     A.U. after   16 cycles
 Normal termination of Gaussian 16 at Mon Dec 14 14:19:33 2020.

 ----------------------------------------------------------------------
 # B3LYP/6-311++G(d,p) empiricaldispersion=gd3bj scf=xqc pop=npa geom=c
 heck
 ----------------------------------------------------------------------

 -------------------------------------
 CID_82061158_JID_10008_Energie_kation
 -------------------------------------
 Structure from the checkpoint file:  "JID_10008.chk"
 Charge =  1 Multiplicity = 2

 SCF Done:  E(UB3LYP) =  -845.848979445     A.U. after   22 cycles
 Normal termination of Gaussian 16 at Mon Dec 14 14:42:42 2020.
 Gaussian 16:  ES64L-G16RevA.03 25-Dec-2016

 ----------------------------------------------------------------------
 # B3LYP/6-311++G(d,p) empiricaldispersion=gd3bj scf=xqc pop=npa geom=c
 heck
 ----------------------------------------------------------------------

 ------------------------------------
 CID_82061158_JID_10008_Energie_anion
 ------------------------------------
 Structure from the checkpoint file:  "JID_10008.chk"
 Charge = -1 Multiplicity = 2

                         Standard orientation:
 ---------------------------------------------------------------------
 Center     Atomic      Atomic             Coordinates (Angstroms)
 Number     Number       Type             X           Y           Z
 ---------------------------------------------------------------------
      1          6           0        6.260276    0.476997   -0.651026
      2          6           0        4.942127   -0.130497   -0.254873
      3          6           0        3.794456    0.670841   -0.194251
      4          6           0        2.591707    0.041054    0.195366
      5          7           0        2.470649   -1.231351    0.504774
      6          6           0        3.575008   -1.994498    0.437951
      7          6           0        4.812734   -1.488384    0.067919
      8          8           0        1.506853    0.887077    0.263530
      9          6           0        0.215457    0.385811    0.350202
     10          6           0       -0.268283   -0.592319   -0.517698
     11          6           0       -1.603159   -0.976983   -0.426352
     12          6           0       -2.475157   -0.398129    0.506662
     13          6           0       -1.957201    0.577973    1.366219
     14          6           0       -0.621732    0.971119    1.294877
     15          6           0       -3.927967   -0.805083    0.572575
     16          6           0       -4.903450    0.009145   -0.328120
     17          6           0       -4.516866   -0.130841   -1.808710
     18          6           0       -6.317297   -0.557780   -0.117395
     19          6           0       -4.889485    1.494662    0.064594
     20          7           0        3.819587    2.042720   -0.440871
     21          1           0        6.505542    1.334405   -0.011550
     22          1           0        6.244166    0.843659   -1.687779
     23          1           0        7.071108   -0.252175   -0.574589
     24          1           0        3.448543   -3.043185    0.694716
     25          1           0        5.682143   -2.138238    0.029883
     26          1           0        0.395239   -1.055723   -1.237647
     27          1           0       -1.977086   -1.747635   -1.095202
     28          1           0       -2.606212    1.033331    2.109474
     29          1           0       -0.217155    1.723249    1.964308
     30          1           0       -4.019395   -1.863689    0.296627
     31          1           0       -4.279354   -0.722578    1.609371
     32          1           0       -4.519725   -1.182734   -2.120626
     33          1           0       -5.229491    0.407903   -2.444450
     34          1           0       -3.518803    0.275177   -2.001100
     35          1           0       -6.626778   -0.469265    0.931107
     36          1           0       -7.049982   -0.019240   -0.730110
     37          1           0       -6.363546   -1.618261   -0.393487
     38          1           0       -5.164466    1.627997    1.118356
     39          1           0       -3.899898    1.938004   -0.084286
     40          1           0       -5.607647    2.059165   -0.541891
     41          1           0        2.897994    2.435860   -0.587111
     42          1           0        4.481311    2.339256   -1.147213
 ---------------------------------------------------------------------

 SCF Done:  E(UB3LYP) =  -846.106405360     A.U. after   33 cycles
 SCF Done:  E(UB3LYP) =  -846.106405361     a.u. after    1 cycles

 The electronic state is 2-A.
 Alpha  occ. eigenvalues --  -19.08221 -14.23064 -14.22086 -10.17477 -10.15186
 Alpha  occ. eigenvalues --  -10.13002 -10.11309 -10.10517 -10.10400 -10.09702
 Alpha  occ. eigenvalues --  -10.09338 -10.09272 -10.09231 -10.09183 -10.08942
 Alpha  occ. eigenvalues --  -10.08743 -10.08206 -10.07774 -10.07473 -10.07457
 Alpha  occ. eigenvalues --   -1.00515  -0.86053  -0.82732  -0.78084  -0.74493
 Alpha  occ. eigenvalues --   -0.72166  -0.68844  -0.66978  -0.65362  -0.62801
 Alpha  occ. eigenvalues --   -0.60721  -0.60498  -0.59889  -0.55124  -0.53928
 Alpha  occ. eigenvalues --   -0.53244  -0.49523  -0.46020  -0.45465  -0.44935
 Alpha  occ. eigenvalues --   -0.42539  -0.40685  -0.39759  -0.38012  -0.37718
 Alpha  occ. eigenvalues --   -0.37304  -0.36762  -0.36464  -0.35291  -0.34836
 Alpha  occ. eigenvalues --   -0.34395  -0.33661  -0.32777  -0.31652  -0.31256
 Alpha  occ. eigenvalues --   -0.30845  -0.29671  -0.29430  -0.28783  -0.28532
 Alpha  occ. eigenvalues --   -0.27950  -0.27715  -0.26942  -0.25248  -0.24661
 Alpha  occ. eigenvalues --   -0.24467  -0.24136  -0.24039  -0.18923  -0.17894
 Alpha  occ. eigenvalues --   -0.17278  -0.15171  -0.12139   0.03634
 Alpha virt. eigenvalues --    0.04615   0.05922   0.06427   0.06598   0.06714
 Alpha virt. eigenvalues --    0.06984   0.07121   0.07764   0.08142   0.08447
 Alpha virt. eigenvalues --    0.08782   0.09222   0.09404   0.09442   0.09876

  Beta  occ. eigenvalues --  -19.08216 -14.23017 -14.22081 -10.17475 -10.15185
  Beta  occ. eigenvalues --  -10.13001 -10.11309 -10.10515 -10.10395 -10.09703
  Beta  occ. eigenvalues --  -10.09332 -10.09265 -10.09227 -10.09178 -10.08932
  Beta  occ. eigenvalues --  -10.08736 -10.08150 -10.07750 -10.07456 -10.07437
  Beta  occ. eigenvalues --   -1.00507  -0.86038  -0.82676  -0.78076  -0.74481
  Beta  occ. eigenvalues --   -0.72135  -0.68827  -0.66967  -0.65340  -0.62742
  Beta  occ. eigenvalues --   -0.60682  -0.60464  -0.59856  -0.55102  -0.53896
  Beta  occ. eigenvalues --   -0.53226  -0.49501  -0.45989  -0.45437  -0.44907
  Beta  occ. eigenvalues --   -0.42476  -0.40674  -0.39739  -0.37980  -0.37695
  Beta  occ. eigenvalues --   -0.37276  -0.36741  -0.36449  -0.35267  -0.34808
  Beta  occ. eigenvalues --   -0.34381  -0.33632  -0.32738  -0.31621  -0.31233
  Beta  occ. eigenvalues --   -0.30817  -0.29632  -0.29410  -0.28752  -0.28509
  Beta  occ. eigenvalues --   -0.27931  -0.27698  -0.26927  -0.25238  -0.24629
  Beta  occ. eigenvalues --   -0.24445  -0.24116  -0.24015  -0.18910  -0.17873
  Beta  occ. eigenvalues --   -0.17264  -0.15153  -0.12111
  Beta virt. eigenvalues --    0.05173   0.05907   0.06077   0.06526   0.06857
  Beta virt. eigenvalues --    0.07011   0.07228   0.07346   0.07904   0.08454
  Beta virt. eigenvalues --    0.08645   0.08879   0.09290   0.09480   0.09646

 Mulliken charges and spin densities:
               1          2
     1  C    3.506441  -3.818829
     2  C   -0.255297   1.130345
     3  C   -1.107977   1.562560
     4  C   -0.748717  -0.455777
     5  N    0.028817   0.053534
     6  C    0.241736  -0.283245
     7  C   -0.713371  -0.205559
     8  O    0.024554  -0.015532
     9  C   -0.476406  -0.249931
    10  C    0.125987  -0.233832
    11  C   -0.740641   0.486295
    12  C    0.818303   0.416345
    13  C   -0.306280   0.030438
    14  C   -0.205230   0.217049
    15  C    0.948350  -1.832616
    16  C   -0.948489   1.654887
    17  C   -0.074880  -0.622882
    18  C    0.524021  -1.089768
    19  C   -0.069270  -0.620492
    20  N   -0.397792   0.039963
    21  H   -0.225501   0.404804
    22  H   -0.513157   0.701067
    23  H   -0.270271   0.417219
    24  H    0.135638   0.030845
    25  H   -0.145223   0.271146
    26  H    0.036812   0.154013
    27  H    0.020504   0.125298
    28  H   -0.009216   0.151998
    29  H    0.062976   0.111731
    30  H    0.133374   0.047772
    31  H    0.141977   0.041373
    32  H   -0.038546   0.190981
    33  H    0.022577   0.115475
    34  H    0.076811   0.072685
    35  H   -0.133836   0.265453
    36  H   -0.059350   0.200845
    37  H   -0.109389   0.240470
    38  H   -0.050856   0.202812
    39  H    0.101874   0.047849
    40  H   -0.039437   0.176770
    41  H   -0.026247   0.322512
    42  H   -0.285379   0.543928
 Sum of Mulliken charges =  -1.00000   1.00000

 Dipole moment (field-independent basis, Debye):
    X=             -4.4502    Y=             -3.0900    Z=              2.7857  Tot=              6.0920
 Quadrupole moment (field-independent basis, Debye-Ang):
   XX=           -286.8607   YY=           -158.8764   ZZ=           -156.5432
   XY=            -18.2169   XZ=             13.2668   YZ=              6.0080

 Summary of Natural Population Analysis:

                                       Natural Population
                Natural  -----------------------------------------------
    Atom  No    Charge         Core      Valence    Rydberg      Total
 -----------------------------------------------------------------------
      C    1   -0.29959      0.99964     2.29348    0.00647     3.29959
      C    2   -0.01536      0.99950     2.00564    0.01022     3.01536
      C    3    0.05496      0.99940     1.93359    0.01204     2.94504
      C    4    0.25070      0.99939     1.73308    0.01683     2.74930
      N    5   -0.25192      0.99965     2.74295    0.00933     3.75192
      C    6    0.01050      0.99959     1.97640    0.01351     2.98950
      C    7   -0.12543      0.99952     2.11654    0.00937     3.12543
      O    8   -0.27748      0.99984     3.26751    0.01014     4.27748
      C    9    0.15477      0.99934     1.83244    0.01345     2.84523
      C   10   -0.11178      0.99951     2.10331    0.00897     3.11178
      C   11   -0.09386      0.99952     2.08661    0.00774     3.09386
      C   12   -0.02281      0.99951     2.01384    0.00946     3.02281
      C   13   -0.09549      0.99952     2.08822    0.00775     3.09549
      C   14   -0.11469      0.99951     2.10645    0.00873     3.11469
      C   15   -0.19501      0.99956     2.18488    0.01057     3.19501
      C   16   -0.04421      0.99959     2.03433    0.01030     3.04421
      C   17   -0.28675      0.99962     2.28105    0.00608     3.28675
      C   18   -0.28379      0.99962     2.27673    0.00743     3.28379
      C   19   -0.28858      0.99962     2.28127    0.00769     3.28858
      N   20   -0.39388      0.99971     2.88371    0.01045     3.89388
      H   21    0.10908      0.00000     0.38958    0.00135     0.39092
      H   22    0.11012      0.00000     0.38643    0.00345     0.38988
      H   23    0.10498      0.00000     0.39383    0.00119     0.39502
      H   24    0.08896      0.00000     0.41007    0.00098     0.41104
      H   25    0.10222      0.00000     0.39694    0.00084     0.39778
      H   26    0.11033      0.00000     0.38838    0.00129     0.38967
      H   27    0.10049      0.00000     0.39827    0.00123     0.39951
      H   28    0.10048      0.00000     0.39836    0.00116     0.39952
      H   29    0.10713      0.00000     0.39192    0.00095     0.39287
      H   30    0.10243      0.00000     0.39649    0.00108     0.39757
      H   31    0.10212      0.00000     0.39680    0.00108     0.39788
      H   32    0.09815      0.00000     0.40089    0.00096     0.40185
      H   33    0.09972      0.00000     0.39945    0.00083     0.40028
      H   34    0.10488      0.00000     0.39412    0.00100     0.39512
      H   35    0.09921      0.00000     0.39984    0.00095     0.40079
      H   36    0.10007      0.00000     0.39906    0.00088     0.39993
      H   37    0.09910      0.00000     0.39997    0.00093     0.40090
      H   38    0.09822      0.00000     0.40089    0.00090     0.40178
      H   39    0.10474      0.00000     0.39429    0.00097     0.39526
      H   40    0.09992      0.00000     0.39930    0.00077     0.40008
      H   41    0.19476      0.00000     0.30302    0.00222     0.30524
      H   42    0.19259      0.00000     0.30322    0.00418     0.30741
 =======================================================================
   * Total *   -0.00000     19.99114    52.78315    0.22571    73.00000

 Normal termination of Gaussian 16 at Mon Dec 14 15:17:16 2020.
