 Gaussian 16, Revision A.03,

 -----------------------------------------------------------
 # opt freq B3LYP/6-31G(d) empiricaldispersion=gd3bj scf=xqc
 -----------------------------------------------------------

 -------------------------------
 CID_152634434_JID_5903_neutraal
 -------------------------------
 Symbolic Z-matrix:
 Charge =  0 Multiplicity = 1

 SCF Done:  E(RB3LYP) =  -667.380784998     A.U. after   16 cycles
 SCF Done:  E(RB3LYP) =  -667.390064578     A.U. after   15 cycles
 SCF Done:  E(RB3LYP) =  -667.393737874     A.U. after   14 cycles
 SCF Done:  E(RB3LYP) =  -667.395860288     A.U. after   14 cycles
 SCF Done:  E(RB3LYP) =  -667.396920290     A.U. after   13 cycles
 SCF Done:  E(RB3LYP) =  -667.397694398     A.U. after   15 cycles
 SCF Done:  E(RB3LYP) =  -667.398556505     A.U. after   16 cycles
 SCF Done:  E(RB3LYP) =  -667.399291682     A.U. after   15 cycles
 SCF Done:  E(RB3LYP) =  -667.399613122     A.U. after   15 cycles
 SCF Done:  E(RB3LYP) =  -667.399875895     A.U. after   15 cycles
 SCF Done:  E(RB3LYP) =  -667.400328711     A.U. after    8 cycles
 SCF Done:  E(RB3LYP) =  -667.400328632     A.U. after    7 cycles
 SCF Done:  E(RB3LYP) =  -667.400328575     A.U. after    7 cycles
 SCF Done:  E(RB3LYP) =  -667.400328487     A.U. after    7 cycles
 SCF Done:  E(RB3LYP) =  -667.400328441     A.U. after    7 cycles
 Optimization completed.
    -- Stationary point found.
 Normal termination of Gaussian 16 at Thu Dec 10 17:50:14 2020.

 --------------------------------------------------------------------
 #N Geom=AllCheck Guess=TCheck SCRF=Check GenChk RB3LYP/6-31G(d) Freq
 --------------------------------------------------------------------

 Structure from the checkpoint file:  "JID_5903.chk"
 -------------------------------
 CID_152634434_JID_5903_neutraal
 -------------------------------
 Charge =  0 Multiplicity = 1

 SCF Done:  E(RB3LYP) =  -667.400328441     A.U. after    1 cycles

  Exact polarizability: 146.417  -3.925 157.701  -3.512   4.055 118.157
 Approx polarizability: 183.478 -14.872 269.925  -2.958  18.283 175.669

                      1                      2                      3
                      A                      A                      A
 Frequencies --     20.4555                35.9736                63.4690
 Red. masses --      3.4006                 7.8665                 3.3852
 Frc consts  --      0.0008                 0.0060                 0.0080
 IR Inten    --      0.0611                 0.0549                 0.5091

                      4                      5                      6
                      A                      A                      A
 Frequencies --     96.2289               113.2791               141.0726
 Red. masses --      3.4521                 2.7265                 2.1258
 Frc consts  --      0.0188                 0.0206                 0.0249
 IR Inten    --      0.2263                 0.0586                 0.4517

                      7                      8                      9
                      A                      A                      A
 Frequencies --    156.2056               163.4665               194.2079
 Red. masses --      2.0311                 2.4153                 1.7282
 Frc consts  --      0.0292                 0.0380                 0.0384
 IR Inten    --      0.0848                 0.5433                 1.2963

                     10                     11                     12
                      A                      A                      A
 Frequencies --    206.3260               232.9342               254.1945
 Red. masses --      5.6571                 1.5183                 1.6688
 Frc consts  --      0.1419                 0.0485                 0.0635
 IR Inten    --      0.5380                 2.5605                 3.4152

                     13                     14                     15
                      A                      A                      A
 Frequencies --    274.4917               302.5548               312.8894
 Red. masses --      2.5919                 3.3638                 2.1044
 Frc consts  --      0.1151                 0.1814                 0.1214
 IR Inten    --      1.1554                 1.1615                 2.8751

                     16                     17                     18
                      A                      A                      A
 Frequencies --    323.2419               351.5813               402.6005
 Red. masses --      2.3108                 2.3081                 3.2450
 Frc consts  --      0.1423                 0.1681                 0.3099
 IR Inten    --      0.6937                 0.5249                 1.9005

                     19                     20                     21
                      A                      A                      A
 Frequencies --    422.1125               449.5491               531.9174
 Red. masses --      2.9523                 2.2740                 4.1911
 Frc consts  --      0.3099                 0.2708                 0.6987
 IR Inten    --      0.2454                 0.3466                10.8000

                     22                     23                     24
                      A                      A                      A
 Frequencies --    545.1344               557.9397               579.1269
 Red. masses --      2.2841                 4.6705                11.0309
 Frc consts  --      0.3999                 0.8566                 2.1798
 IR Inten    --      3.3011                54.3675                 7.0812

                     25                     26                     27
                      A                      A                      A
 Frequencies --    607.9179               663.0154               724.9055
 Red. masses --      2.6640                 2.7873                 2.1883
 Frc consts  --      0.5801                 0.7219                 0.6775
 IR Inten    --      3.9755                12.7656                37.7085

                     28                     29                     30
                      A                      A                      A
 Frequencies --    770.4694               779.0050               790.4886
 Red. masses --      1.7927                 4.3246                 1.6658
 Frc consts  --      0.6270                 1.5463                 0.6133
 IR Inten    --     31.8645                 1.3138                 1.5471

                     31                     32                     33
                      A                      A                      A
 Frequencies --    800.3525               845.4802               865.6373
 Red. masses --      1.5604                 2.3092                 1.8217
 Frc consts  --      0.5889                 0.9725                 0.8043
 IR Inten    --      4.0828                19.0885                 4.6703

                     34                     35                     36
                      A                      A                      A
 Frequencies --    881.9204               933.9509               943.0017
 Red. masses --      2.2912                 1.8450                 1.8268
 Frc consts  --      1.0499                 0.9482                 0.9571
 IR Inten    --     11.7570                 9.0954                 4.9361

                     37                     38                     39
                      A                      A                      A
 Frequencies --    973.5052              1015.8351              1032.1952
 Red. masses --      2.1107                 1.9628                 1.7999
 Frc consts  --      1.1786                 1.1933                 1.1298
 IR Inten    --      8.6086                 6.8527                 2.1194

                     40                     41                     42
                      A                      A                      A
 Frequencies --   1035.7078              1041.9240              1058.4124
 Red. masses --      1.5256                 1.8769                 2.3380
 Frc consts  --      0.9642                 1.2005                 1.5431
 IR Inten    --      2.0118                 0.6695                13.3835

                     43                     44                     45
                      A                      A                      A
 Frequencies --   1070.5680              1096.2787              1129.7906
 Red. masses --      2.4449                 2.1935                 2.5243
 Frc consts  --      1.6510                 1.5532                 1.8984
 IR Inten    --      5.7706                 6.3023                 0.3201

                     46                     47                     48
                      A                      A                      A
 Frequencies --   1144.7228              1150.3040              1184.8683
 Red. masses --      2.0570                 1.9075                 2.1393
 Frc consts  --      1.5881                 1.4871                 1.7696
 IR Inten    --     11.1437                 2.1046                18.0859

                     49                     50                     51
                      A                      A                      A
 Frequencies --   1203.5695              1207.7321              1222.8310
 Red. masses --      3.0915                 2.7160                 1.7484
 Frc consts  --      2.6385                 2.3341                 1.5403
 IR Inten    --     65.4993                 0.6525                20.4932

                     52                     53                     54
                      A                      A                      A
 Frequencies --   1258.5894              1270.9801              1301.5650
 Red. masses --      3.0994                 1.3586                 1.2542
 Frc consts  --      2.8926                 1.2931                 1.2518
 IR Inten    --     52.7710                 9.9622                 4.5236

                     55                     56                     57
                      A                      A                      A
 Frequencies --   1309.2183              1321.4163              1331.5712
 Red. masses --      1.2810                 1.1684                 1.2189
 Frc consts  --      1.2937                 1.2021                 1.2733
 IR Inten    --      0.3927                 1.4847                 3.3027

                     58                     59                     60
                      A                      A                      A
 Frequencies --   1340.7288              1347.1475              1384.3819
 Red. masses --      1.1513                 1.2705                 1.3232
 Frc consts  --      1.2194                 1.3585                 1.4941
 IR Inten    --     15.9915                 3.4456                 6.4432

                     61                     62                     63
                      A                      A                      A
 Frequencies --   1394.2266              1400.4954              1403.3233
 Red. masses --      1.4159                 1.3375                 1.3224
 Frc consts  --      1.6217                 1.5457                 1.5344
 IR Inten    --      2.8113                 4.9646                 0.9925

                     64                     65                     66
                      A                      A                      A
 Frequencies --   1414.7667              1424.5999              1426.2853
 Red. masses --      1.4653                 1.4171                 1.3958
 Frc consts  --      1.7280                 1.6945                 1.6730
 IR Inten    --      0.3376                17.3166                 5.4048

                     67                     68                     69
                      A                      A                      A
 Frequencies --   1438.9295              1442.9129              1444.7632
 Red. masses --      1.2908                 1.3286                 1.2511
 Frc consts  --      1.5746                 1.6298                 1.5386
 IR Inten    --      4.5368                12.6204                 3.7562

                     70                     71                     72
                      A                      A                      A
 Frequencies --   1505.1594              1510.6683              1515.2875
 Red. masses --      1.0861                 1.0749                 1.0681
 Frc consts  --      1.4497                 1.4453                 1.4449
 IR Inten    --      2.8143                 2.5465                 3.3416

                     73                     74                     75
                      A                      A                      A
 Frequencies --   1518.1480              1522.7230              1524.4257
 Red. masses --      1.0896                 1.0768                 1.0550
 Frc consts  --      1.4796                 1.4711                 1.4445
 IR Inten    --      4.0755                 3.2582                 6.3076

                     76                     77                     78
                      A                      A                      A
 Frequencies --   1530.7571              1534.8356              1536.2619
 Red. masses --      1.0608                 1.0913                 1.0558
 Frc consts  --      1.4646                 1.5147                 1.4682
 IR Inten    --      6.8511                 3.6823                 2.7563

                     79                     80                     81
                      A                      A                      A
 Frequencies --   1540.4567              1549.0419              2215.4196
 Red. masses --      1.0424                 1.0725                13.9542
 Frc consts  --      1.4574                 1.5163                40.3523
 IR Inten    --      2.3306                 3.0334               610.0561

                     82                     83                     84
                      A                      A                      A
 Frequencies --   2947.6527              2983.7390              3036.6663
 Red. masses --      1.0817                 1.0729                 1.0648
 Frc consts  --      5.5375                 5.6278                 5.7849
 IR Inten    --     32.7636                33.5578                17.4879

                     85                     86                     87
                      A                      A                      A
 Frequencies --   3039.6589              3050.5733              3051.2117
 Red. masses --      1.0633                 1.0497                 1.0629
 Frc consts  --      5.7886                 5.7554                 5.8303
 IR Inten    --     19.6524                 9.9516                50.5470

                     88                     89                     90
                      A                      A                      A
 Frequencies --   3051.9085              3056.1669              3057.5549
 Red. masses --      1.0418                 1.0465                 1.0721
 Frc consts  --      5.7169                 5.7588                 5.9051
 IR Inten    --     23.6659                22.8872                56.3948

                     91                     92                     93
                      A                      A                      A
 Frequencies --   3076.2005              3077.6074              3085.0829
 Red. masses --      1.1003                 1.0692                 1.0955
 Frc consts  --      6.1348                 5.9665                 6.1430
 IR Inten    --     47.5672                25.6551                19.1993

                     94                     95                     96
                      A                      A                      A
 Frequencies --   3093.2374              3099.2503              3108.3155
 Red. masses --      1.1000                 1.1003                 1.1002
 Frc consts  --      6.2011                 6.2270                 6.2628
 IR Inten    --     18.1375                38.7963                11.9095

                     97                     98                     99
                      A                      A                      A
 Frequencies --   3114.5521              3127.8453              3130.3408
 Red. masses --      1.1016                 1.0957                 1.0969
 Frc consts  --      6.2958                 6.3156                 6.3328
 IR Inten    --     42.8897                32.8206                28.3685

                    100                    101                    102
                      A                      A                      A
 Frequencies --   3131.3298              3137.2943              3146.5793
 Red. masses --      1.1011                 1.1008                 1.0875
 Frc consts  --      6.3611                 6.3836                 6.3440
 IR Inten    --     34.5806                44.7221                30.2539

 - Thermochemistry -
 -------------------
 Temperature   298.150 Kelvin.  Pressure   1.00000 Atm.
 Atom     1 has atomic number  6 and mass  12.00000

 Molecular mass:   211.17970 amu.
 Principal axes and moments of inertia in atomic units:
                           1         2         3
     Eigenvalues --  2373.837343912.542504822.84131
           X            0.99979  -0.01990  -0.00418
           Y            0.01967   0.99857  -0.04962
           Z            0.00516   0.04952   0.99876
 This molecule is an asymmetric top.
 Rotational symmetry number  1.
 Warning -- assumption of classical behavior for rotation
           may cause significant error
 Rotational temperatures (Kelvin)      0.03649     0.02214     0.01796
 Rotational constants (GHZ):           0.76026     0.46127     0.37421
 Zero-point vibrational energy     844367.3 (Joules/Mol)
                                  201.80864 (Kcal/Mol)
 Warning -- explicit consideration of  25 degrees of freedom as
           vibrations may cause significant error
 Vibrational temperatures:     29.43    51.76    91.32   138.45   162.98
          (Kelvin)            202.97   224.74   235.19   279.42   296.86
                              335.14   365.73   394.93   435.31   450.18
                              465.07   505.85   579.25   607.33   646.80
                              765.31   784.33   802.75   833.23   874.66
                              953.93  1042.98  1108.53  1120.81  1137.34
                             1151.53  1216.46  1245.46  1268.89  1343.75
                             1356.77  1400.66  1461.56  1485.10  1490.15
                             1499.10  1522.82  1540.31  1577.30  1625.52
                             1647.00  1655.03  1704.76  1731.67  1737.66
                             1759.38  1810.83  1828.66  1872.66  1883.67
                             1901.22  1915.83  1929.01  1938.24  1991.82
                             2005.98  2015.00  2019.07  2035.53  2049.68
                             2052.11  2070.30  2076.03  2078.69  2165.59
                             2173.51  2180.16  2184.28  2190.86  2193.31
                             2202.42  2208.29  2210.34  2216.37  2228.73
                             3187.49  4241.01  4292.93  4369.09  4373.39
                             4389.09  4390.01  4391.02  4397.14  4399.14
                             4425.97  4427.99  4438.75  4450.48  4459.13
                             4472.17  4481.15  4500.27  4503.86  4505.29
                             4513.87  4527.23

 Zero-point correction=                           0.321603 (Hartree/Particle)
 Thermal correction to Energy=                    0.337702
 Thermal correction to Enthalpy=                  0.338646
 Thermal correction to Gibbs Free Energy=         0.277514
 Sum of electronic and zero-point Energies=           -667.078726
 Sum of electronic and thermal Energies=              -667.062626
 Sum of electronic and thermal Enthalpies=            -667.061682
 Sum of electronic and thermal Free Energies=         -667.122814

                     E (Thermal)             CV                S
                      KCal/Mol        Cal/Mol-Kelvin    Cal/Mol-Kelvin
 Total                  211.911             60.830            128.663
 Electronic               0.000              0.000              0.000
 Translational            0.889              2.981             41.946
 Rotational               0.889              2.981             32.171
 Vibrational            210.134             54.868             54.546
 Vibration     1          0.593              1.986              6.589
 Vibration     2          0.594              1.982              5.469
 Vibration     3          0.597              1.972              4.346
 Vibration     4          0.603              1.952              3.529
 Vibration     5          0.607              1.938              3.212
 Vibration     6          0.615              1.912              2.789
 Vibration     7          0.620              1.896              2.595
 Vibration     8          0.623              1.887              2.509
 Vibration     9          0.635              1.848              2.187
 Vibration    10          0.641              1.831              2.076
 Vibration    11          0.654              1.791              1.856
 Vibration    12          0.665              1.756              1.701
 Vibration    13          0.677              1.720              1.568
 Vibration    14          0.694              1.669              1.403
 Vibration    15          0.701              1.649              1.347
 Vibration    16          0.708              1.629              1.294
 Vibration    17          0.728              1.572              1.159
 Vibration    18          0.768              1.465              0.953
 Vibration    19          0.784              1.422              0.885
 Vibration    20          0.808              1.362              0.797
 Vibration    21          0.887              1.179              0.583
 Vibration    22          0.900              1.150              0.554
 Vibration    23          0.913              1.122              0.528
 Vibration    24          0.936              1.076              0.487
 Vibration    25          0.967              1.015              0.436

 Optimization completed.
    -- Stationary point found.
 Normal termination of Gaussian 16 at Thu Dec 10 18:04:28 2020.

 ----------------------------------------------------------------------
 # B3LYP/6-311++G(d,p) empiricaldispersion=gd3bj scf=xqc pop=npa geom=c
 heck
 ----------------------------------------------------------------------

 ---------------------------------------
 CID_152634434_JID_5903_Energie_neutraal
 ---------------------------------------
 Structure from the checkpoint file:  "JID_5903.chk"
 Charge =  0 Multiplicity = 1

 SCF Done:  E(RB3LYP) =  -667.581684420     A.U. after   15 cycles
 Normal termination of Gaussian 16 at Thu Dec 10 18:11:34 2020.

 ----------------------------------------------------------------------
 # B3LYP/6-311++G(d,p) empiricaldispersion=gd3bj scf=xqc pop=npa geom=c
 heck
 ----------------------------------------------------------------------

 -------------------------------------
 CID_152634434_JID_5903_Energie_kation
 -------------------------------------
 Structure from the checkpoint file:  "JID_5903.chk"
 Charge =  1 Multiplicity = 2

 SCF Done:  E(UB3LYP) =  -667.288483448     A.U. after   25 cycles
 Normal termination of Gaussian 16 at Thu Dec 10 18:28:19 2020.
 Gaussian 16:  ES64L-G16RevA.03 25-Dec-2016

 ----------------------------------------------------------------------
 # B3LYP/6-311++G(d,p) empiricaldispersion=gd3bj scf=xqc pop=npa geom=c
 heck
 ----------------------------------------------------------------------

 ------------------------------------
 CID_152634434_JID_5903_Energie_anion
 ------------------------------------
 Structure from the checkpoint file:  "JID_5903.chk"
 Charge = -1 Multiplicity = 2

                         Standard orientation:
 ---------------------------------------------------------------------
 Center     Atomic      Atomic             Coordinates (Angstroms)
 Number     Number       Type             X           Y           Z
 ---------------------------------------------------------------------
      1          6           0        3.884410    0.683638   -0.936288
      2          6           0        2.444242    1.147742   -0.694621
      3          6           0        1.488859    0.010345   -0.283646
      4          6           0        2.050734   -0.835223    0.873997
      5          6           0        2.292728   -0.049421    2.164509
      6          7           0        0.146144    0.534754    0.087964
      7          6           0       -0.429517    1.512601   -0.848224
      8          6           0       -1.720678    2.185440   -0.368293
      9          6           0       -2.966796    1.292797   -0.410421
     10          6           0       -3.098865    0.309263    0.764262
     11          6           0       -1.773567   -0.193373    1.359801
     12          7           0       -0.677966   -0.537858    0.443345
     13          7           0       -1.254543   -1.231929   -0.763148
     14          7           0       -0.827316   -2.397412   -0.815701
     15          7           0       -0.512179   -3.484411   -0.969162
     16          1           0        4.377341    0.363810   -0.013493
     17          1           0        4.478420    1.498682   -1.363383
     18          1           0        3.916800   -0.155799   -1.641331
     19          1           0        2.428007    1.931436    0.073162
     20          1           0        2.085123    1.607499   -1.620597
     21          1           0        1.381986   -0.651579   -1.162896
     22          1           0        1.352176   -1.650277    1.074034
     23          1           0        2.982014   -1.301391    0.534241
     24          1           0        1.372752    0.442475    2.494372
     25          1           0        2.630746   -0.715989    2.965367
     26          1           0        3.056406    0.726382    2.036911
     27          1           0        0.317346    2.295563   -0.978541
     28          1           0       -0.602518    1.053071   -1.836504
     29          1           0       -1.884668    3.041579   -1.035136
     30          1           0       -1.565054    2.602573    0.635460
     31          1           0       -2.948568    0.729327   -1.349967
     32          1           0       -3.864527    1.922045   -0.443752
     33          1           0       -3.700201   -0.547794    0.443711
     34          1           0       -3.648768    0.780188    1.590173
     35          1           0       -1.976157   -1.088670    1.960018
     36          1           0       -1.336935    0.552008    2.028605
 ---------------------------------------------------------------------

 SCF Done:  E(UB3LYP) =  -667.573218528     A.U. after   33 cycles
 SCF Done:  E(UB3LYP) =  -667.573218528     a.u. after    1 cycles

 The electronic state is 2-A.
 Alpha  occ. eigenvalues --  -14.31494 -14.23794 -14.22958 -14.22708 -14.22219
 Alpha  occ. eigenvalues --  -10.09015 -10.08558 -10.08145 -10.06259 -10.06254
 Alpha  occ. eigenvalues --  -10.06153 -10.06024 -10.06012 -10.05006 -10.04841
 Alpha  occ. eigenvalues --   -0.99366  -0.89531  -0.81605  -0.72685  -0.69474
 Alpha  occ. eigenvalues --   -0.68273  -0.64207  -0.60649  -0.57834  -0.55539
 Alpha  occ. eigenvalues --   -0.51847  -0.50392  -0.46056  -0.45099  -0.40003
 Alpha  occ. eigenvalues --   -0.39830  -0.38467  -0.37343  -0.36514  -0.35453
 Alpha  occ. eigenvalues --   -0.34825  -0.34410  -0.32143  -0.31326  -0.31168
 Alpha  occ. eigenvalues --   -0.30316  -0.29919  -0.28880  -0.27863  -0.26937
 Alpha  occ. eigenvalues --   -0.26704  -0.25772  -0.25270  -0.23704  -0.22874
 Alpha  occ. eigenvalues --   -0.22715  -0.21845  -0.21365  -0.21087  -0.20527
 Alpha  occ. eigenvalues --   -0.13399  -0.12309  -0.10228   0.04721
 Alpha virt. eigenvalues --    0.06426   0.06742   0.07695   0.08415   0.08876
 Alpha virt. eigenvalues --    0.09241   0.09987   0.10787   0.10864   0.11352
 Alpha virt. eigenvalues --    0.11638   0.12272   0.12662   0.13341   0.13476

  Beta  occ. eigenvalues --  -14.31134 -14.23599 -14.22972 -14.22252 -14.22232
  Beta  occ. eigenvalues --  -10.09015 -10.08552 -10.08140 -10.06242 -10.06237
  Beta  occ. eigenvalues --  -10.06146 -10.06020 -10.05989 -10.05001 -10.04825
  Beta  occ. eigenvalues --   -0.98697  -0.89293  -0.81339  -0.72566  -0.69413
  Beta  occ. eigenvalues --   -0.68251  -0.64180  -0.60580  -0.57771  -0.55490
  Beta  occ. eigenvalues --   -0.51748  -0.50133  -0.45968  -0.45013  -0.39869
  Beta  occ. eigenvalues --   -0.39668  -0.38334  -0.37013  -0.36171  -0.34785
  Beta  occ. eigenvalues --   -0.34684  -0.34188  -0.31937  -0.31173  -0.30812
  Beta  occ. eigenvalues --   -0.30182  -0.29609  -0.28719  -0.27807  -0.26846
  Beta  occ. eigenvalues --   -0.26661  -0.25727  -0.25209  -0.23683  -0.22809
  Beta  occ. eigenvalues --   -0.22556  -0.21816  -0.21333  -0.20916  -0.19984
  Beta  occ. eigenvalues --   -0.13287  -0.12168  -0.10011
  Beta virt. eigenvalues --    0.06769   0.07238   0.08007   0.08683   0.09146
  Beta virt. eigenvalues --    0.09401   0.09923   0.10641   0.10913   0.11126
  Beta virt. eigenvalues --    0.11515   0.11827   0.12440   0.12666   0.13473

 Mulliken charges and spin densities:
               1          2
     1  C    0.836595  -1.613361
     2  C   -1.136761   1.032178
     3  C    0.325452  -0.669760
     4  C   -0.466549   0.304347
     5  C    0.103222  -0.696713
     6  N    0.018222   0.057182
     7  C   -0.124746  -0.114756
     8  C    0.118121  -0.441089
     9  C   -0.166375  -0.069599
    10  C   -0.090997  -0.361045
    11  C   -0.068067  -0.143364
    12  N    0.418473   0.106413
    13  N   -0.463170   0.001153
    14  N    0.243027   0.056415
    15  N   -0.375457   0.303662
    16  H    0.027416   0.120977
    17  H   -0.362057   0.503960
    18  H   -0.012981   0.161391
    19  H   -0.073746   0.246221
    20  H    0.045517   0.096440
    21  H    0.201716  -0.031936
    22  H    0.080274   0.068123
    23  H    0.008590   0.135739
    24  H   -0.031812   0.172168
    25  H   -0.020551   0.156622
    26  H   -0.018710   0.140518
    27  H   -0.204995   0.351781
    28  H    0.124214   0.032398
    29  H   -0.236663   0.390239
    30  H   -0.026853   0.170189
    31  H    0.174325  -0.034607
    32  H   -0.052462   0.212794
    33  H    0.156367  -0.011596
    34  H   -0.072470   0.201540
    35  H    0.124968   0.041185
    36  H   -0.001078   0.124194
 Sum of Mulliken charges =  -1.00000   1.00000

 Dipole moment (field-independent basis, Debye):
    X=             -2.2260    Y=             -0.0339    Z=              0.5667  Tot=              2.2972
 Quadrupole moment (field-independent basis, Debye-Ang):
   XX=           -144.7204   YY=           -147.7781   ZZ=           -123.2592
   XY=             -4.1193   XZ=              1.8329   YZ=             -2.7257

 Summary of Natural Population Analysis:

                                       Natural Population
                Natural  -----------------------------------------------
    Atom  No    Charge         Core      Valence    Rydberg      Total
 -----------------------------------------------------------------------
      C    1   -0.28548      0.99966     2.28051    0.00531     3.28548
      C    2   -0.19960      0.99961     2.19080    0.00919     3.19960
      C    3   -0.00048      0.99957     1.98792    0.01298     3.00048
      C    4   -0.19807      0.99961     2.18956    0.00890     3.19807
      C    5   -0.28804      0.99966     2.28354    0.00484     3.28804
      N    6   -0.18232      0.99968     2.66770    0.01495     3.68232
      C    7   -0.09225      0.99959     2.08134    0.01133     3.09225
      C    8   -0.19580      0.99962     2.18742    0.00876     3.19580
      C    9   -0.19405      0.99962     2.18543    0.00899     3.19405
      C   10   -0.19911      0.99962     2.19108    0.00840     3.19911
      C   11   -0.08761      0.99960     2.07568    0.01233     3.08761
      N   12   -0.09352      0.99972     2.57847    0.01533     3.59352
      N   13   -0.16811      0.99973     2.65398    0.01440     3.66811
      N   14    0.14258      0.99971     2.34295    0.01475     3.35742
      N   15    0.00084      0.99982     2.48660    0.01274     3.49916
      H   16    0.09695      0.00000     0.40215    0.00091     0.40305
      H   17    0.09967      0.00000     0.39937    0.00096     0.40033
      H   18    0.09595      0.00000     0.40317    0.00088     0.40405
      H   19    0.09937      0.00000     0.39921    0.00142     0.40063
      H   20    0.09821      0.00000     0.40047    0.00132     0.40179
      H   21    0.08704      0.00000     0.41110    0.00187     0.41296
      H   22    0.11083      0.00000     0.38781    0.00136     0.38917
      H   23    0.09458      0.00000     0.40442    0.00100     0.40542
      H   24    0.10308      0.00000     0.39553    0.00138     0.39692
      H   25    0.09457      0.00000     0.40462    0.00081     0.40543
      H   26    0.09299      0.00000     0.40597    0.00104     0.40701
      H   27    0.09822      0.00000     0.39996    0.00182     0.40178
      H   28    0.08768      0.00000     0.41097    0.00135     0.41232
      H   29    0.09929      0.00000     0.39976    0.00096     0.40071
      H   30    0.09719      0.00000     0.40137    0.00145     0.40281
      H   31    0.10212      0.00000     0.39656    0.00132     0.39788
      H   32    0.09409      0.00000     0.40508    0.00083     0.40591
      H   33    0.09892      0.00000     0.40008    0.00100     0.40108
      H   34    0.09440      0.00000     0.40447    0.00113     0.40560
      H   35    0.09368      0.00000     0.40535    0.00097     0.40632
      H   36    0.10221      0.00000     0.39618    0.00161     0.39779
 =======================================================================
   * Total *   -0.00000     14.99483    42.81659    0.18859    58.00000

 Normal termination of Gaussian 16 at Thu Dec 10 18:50:13 2020.
