 Gaussian 16, Revision A.03,

 -----------------------------------------------------------
 # opt freq B3LYP/6-31G(d) empiricaldispersion=gd3bj scf=xqc
 -----------------------------------------------------------

 ------------------------------
 CID_71623189_JID_2231_neutraal
 ------------------------------
 Symbolic Z-matrix:
 Charge =  0 Multiplicity = 1

 SCF Done:  E(RB3LYP) =  -589.514460211     A.U. after   15 cycles
 SCF Done:  E(RB3LYP) =  -589.522747036     A.U. after   13 cycles
 SCF Done:  E(RB3LYP) =  -589.523597476     A.U. after   12 cycles
 SCF Done:  E(RB3LYP) =  -589.524275296     A.U. after   12 cycles
 SCF Done:  E(RB3LYP) =  -589.525170941     A.U. after   14 cycles
 SCF Done:  E(RB3LYP) =  -589.526068446     A.U. after   12 cycles
 SCF Done:  E(RB3LYP) =  -589.527202727     A.U. after   13 cycles
 SCF Done:  E(RB3LYP) =  -589.527497391     A.U. after   12 cycles
 SCF Done:  E(RB3LYP) =  -589.527691480     A.U. after   12 cycles
 SCF Done:  E(RB3LYP) =  -589.527750988     A.U. after   11 cycles
 SCF Done:  E(RB3LYP) =  -589.527770776     A.U. after    9 cycles
 SCF Done:  E(RB3LYP) =  -589.527774984     A.U. after    9 cycles
 SCF Done:  E(RB3LYP) =  -589.527776419     A.U. after    8 cycles
 SCF Done:  E(RB3LYP) =  -589.527776788     A.U. after    7 cycles
 SCF Done:  E(RB3LYP) =  -589.527777235     A.U. after    8 cycles
 SCF Done:  E(RB3LYP) =  -589.527777387     A.U. after    7 cycles
 Optimization completed.
    -- Stationary point found.
 Normal termination of Gaussian 16 at Wed Dec  9 16:56:00 2020.

 --------------------------------------------------------------------
 #N Geom=AllCheck Guess=TCheck SCRF=Check GenChk RB3LYP/6-31G(d) Freq
 --------------------------------------------------------------------

 Structure from the checkpoint file:  "JID_2231.chk"
 ------------------------------
 CID_71623189_JID_2231_neutraal
 ------------------------------
 Charge =  0 Multiplicity = 1

 SCF Done:  E(RB3LYP) =  -589.527777387     A.U. after    1 cycles

  Exact polarizability: 121.926  -4.872 107.183  -5.157   2.610  48.434
 Approx polarizability: 196.754 -15.932 189.526 -14.093   8.751  73.353

                      1                      2                      3
                      A                      A                      A
 Frequencies --     57.3646                88.3356               143.7222
 Red. masses --      2.9779                 3.3827                 8.1841
 Frc consts  --      0.0058                 0.0156                 0.0996
 IR Inten    --      0.3420                 0.2600                 1.7604

                      4                      5                      6
                      A                      A                      A
 Frequencies --    169.6846               187.4421               220.4346
 Red. masses --      4.4848                 3.1788                 6.4403
 Frc consts  --      0.0761                 0.0658                 0.1844
 IR Inten    --      1.7985                 2.5117                 0.1528

                      7                      8                      9
                      A                      A                      A
 Frequencies --    272.5841               344.1253               366.2753
 Red. masses --      1.3352                 4.5763                 6.6056
 Frc consts  --      0.0585                 0.3193                 0.5221
 IR Inten    --      0.2497                 2.6833                 4.4658

                     10                     11                     12
                      A                      A                      A
 Frequencies --    432.7701               539.9709               608.6491
 Red. masses --      3.5356                 4.6129                 5.5449
 Frc consts  --      0.3901                 0.7924                 1.2103
 IR Inten    --      2.2074                 9.6041                 0.1124

                     13                     14                     15
                      A                      A                      A
 Frequencies --    629.4295               630.8612               648.3370
 Red. masses --      7.0286                 7.3639                 8.9933
 Frc consts  --      1.6406                 1.7267                 2.2273
 IR Inten    --      3.4878                 4.4428                 7.9490

                     16                     17                     18
                      A                      A                      A
 Frequencies --    716.7028               720.2126               745.5422
 Red. masses --      6.8157                 4.3933                 2.1282
 Frc consts  --      2.0627                 1.3426                 0.6970
 IR Inten    --      9.8125                 6.3129                49.3171

                     19                     20                     21
                      A                      A                      A
 Frequencies --    749.6281               774.0912               813.2244
 Red. masses --      6.2608                 2.9271                 1.1933
 Frc consts  --      2.0729                 1.0334                 0.4650
 IR Inten    --     17.0010                10.1593                 1.6666

                     22                     23                     24
                      A                      A                      A
 Frequencies --    860.5375               868.6844               976.1515
 Red. masses --      1.3433                11.8427                 2.3266
 Frc consts  --      0.5861                 5.2653                 1.3062
 IR Inten    --      0.6161               143.8301                 6.1634

                     25                     26                     27
                      A                      A                      A
 Frequencies --   1038.6558              1070.5471              1121.9874
 Red. masses --      4.9265                 1.5241                 1.8926
 Frc consts  --      3.1314                 1.0292                 1.4037
 IR Inten    --      6.1829                 8.7721                18.7259

                     28                     29                     30
                      A                      A                      A
 Frequencies --   1135.0302              1150.7883              1247.6739
 Red. masses --      1.7473                 4.1240                 1.9628
 Frc consts  --      1.3263                 3.2178                 1.8002
 IR Inten    --     17.8799               104.6842                15.6384

                     31                     32                     33
                      A                      A                      A
 Frequencies --   1262.1317              1314.8802              1392.1749
 Red. masses --      3.2294                 1.6088                 1.8735
 Frc consts  --      3.0310                 1.6388                 2.1394
 IR Inten    --    147.4547                 0.6573                38.0138

                     34                     35                     36
                      A                      A                      A
 Frequencies --   1404.5025              1444.6529              1451.1939
 Red. masses --      1.6621                 1.3265                 3.7600
 Frc consts  --      1.9318                 1.6311                 4.6654
 IR Inten    --     31.4616                25.5149                38.7474

                     37                     38                     39
                      A                      A                      A
 Frequencies --   1502.8846              1512.7710              1524.7586
 Red. masses --      5.0219                 1.1777                 1.0725
 Frc consts  --      6.6829                 1.5880                 1.4692
 IR Inten    --     11.7305                 7.4406                14.4048

                     40                     41                     42
                      A                      A                      A
 Frequencies --   1541.2717              1571.1215              1581.8998
 Red. masses --      1.0756                 3.7720                 7.4822
 Frc consts  --      1.5055                 5.4858                11.0316
 IR Inten    --      2.4666                19.6078                38.8202

                     43                     44                     45
                      A                      A                      A
 Frequencies --   1856.9045              1921.0127              3066.5975
 Red. masses --     13.0219                13.0298                 1.0357
 Frc consts  --     26.4548                28.3300                 5.7387
 IR Inten    --    667.9575               296.3987                18.3870

                     46                     47                     48
                      A                      A                      A
 Frequencies --   3081.9843              3127.0674              3139.0894
 Red. masses --      1.0607                 1.1049                 1.1034
 Frc consts  --      5.9361                 6.3658                 6.4059
 IR Inten    --     20.0010                 6.6291                23.1051

                     49                     50                     51
                      A                      A                      A
 Frequencies --   3158.7456              3269.4612              3289.0607
 Red. masses --      1.1043                 1.0920                 1.1017
 Frc consts  --      6.4918                 6.8776                 7.0222
 IR Inten    --      9.3421                 0.0137                 1.2170

 - Thermochemistry -
 -------------------
 Temperature   298.150 Kelvin.  Pressure   1.00000 Atm.
 Atom     1 has atomic number  6 and mass  12.00000

 Molecular mass:   165.04259 amu.
 Principal axes and moments of inertia in atomic units:
                           1         2         3
     Eigenvalues --  1135.396962124.039803119.53180
           X            0.99985  -0.01554   0.00726
           Y            0.01560   0.99985  -0.00778
           Z           -0.00714   0.00789   0.99994
 This molecule is an asymmetric top.
 Rotational symmetry number  1.
 Warning -- assumption of classical behavior for rotation
           may cause significant error
 Rotational temperatures (Kelvin)      0.07629     0.04078     0.02777
 Rotational constants (GHZ):           1.58952     0.84967     0.57853
 Zero-point vibrational energy     375290.1 (Joules/Mol)
                                   89.69649 (Kcal/Mol)
 Warning -- explicit consideration of  12 degrees of freedom as
           vibrations may cause significant error
 Vibrational temperatures:     82.53   127.10   206.78   244.14   269.69
          (Kelvin)            317.16   392.19   495.12   526.99   622.66
                              776.90   875.71   905.61   907.67   932.81
                             1031.18  1036.23  1072.67  1078.55  1113.74
                             1170.05  1238.12  1249.84  1404.46  1494.39
                             1540.28  1614.29  1633.06  1655.73  1795.12
                             1815.93  1891.82  2003.03  2020.77  2078.53
                             2087.94  2162.32  2176.54  2193.79  2217.55
                             2260.49  2276.00  2671.67  2763.91  4412.15
                             4434.29  4499.15  4516.45  4544.73  4704.03
                             4732.22

 Zero-point correction=                           0.142940 (Hartree/Particle)
 Thermal correction to Energy=                    0.152887
 Thermal correction to Enthalpy=                  0.153831
 Thermal correction to Gibbs Free Energy=         0.106978
 Sum of electronic and zero-point Energies=           -589.384837
 Sum of electronic and thermal Energies=              -589.374891
 Sum of electronic and thermal Enthalpies=            -589.373947
 Sum of electronic and thermal Free Energies=         -589.420799

                     E (Thermal)             CV                S
                      KCal/Mol        Cal/Mol-Kelvin    Cal/Mol-Kelvin
 Total                   95.938             37.246             98.610
 Electronic               0.000              0.000              0.000
 Translational            0.889              2.981             41.211
 Rotational               0.889              2.981             30.399
 Vibrational             94.160             31.285             27.000
 Vibration     1          0.596              1.975              4.546
 Vibration     2          0.601              1.957              3.697
 Vibration     3          0.616              1.909              2.754
 Vibration     4          0.625              1.880              2.439
 Vibration     5          0.632              1.857              2.253
 Vibration     6          0.647              1.810              1.956
 Vibration     7          0.676              1.724              1.580
 Vibration     8          0.723              1.587              1.193
 Vibration     9          0.739              1.542              1.095
 Vibration    10          0.794              1.399              0.850
 Vibration    11          0.895              1.162              0.565
 Vibration    12          0.968              1.013              0.435

 Optimization completed.
    -- Stationary point found.
 Normal termination of Gaussian 16 at Wed Dec  9 17:00:19 2020.

 ----------------------------------------------------------------------
 # B3LYP/6-311++G(d,p) empiricaldispersion=gd3bj scf=xqc pop=npa geom=c
 heck
 ----------------------------------------------------------------------

 --------------------------------------
 CID_71623189_JID_2231_Energie_neutraal
 --------------------------------------
 Structure from the checkpoint file:  "JID_2231.chk"
 Charge =  0 Multiplicity = 1

 SCF Done:  E(RB3LYP) =  -589.692453626     A.U. after   15 cycles
 Normal termination of Gaussian 16 at Wed Dec  9 17:02:05 2020.

 ----------------------------------------------------------------------
 # B3LYP/6-311++G(d,p) empiricaldispersion=gd3bj scf=xqc pop=npa geom=c
 heck
 ----------------------------------------------------------------------

 ------------------------------------
 CID_71623189_JID_2231_Energie_kation
 ------------------------------------
 Structure from the checkpoint file:  "JID_2231.chk"
 Charge =  1 Multiplicity = 2

 SCF Done:  E(UB3LYP) =  -589.348098292     A.U. after   26 cycles
 Normal termination of Gaussian 16 at Wed Dec  9 17:06:14 2020.
 Gaussian 16:  ES64L-G16RevA.03 25-Dec-2016

 ----------------------------------------------------------------------
 # B3LYP/6-311++G(d,p) empiricaldispersion=gd3bj scf=xqc pop=npa geom=c
 heck
 ----------------------------------------------------------------------

 -----------------------------------
 CID_71623189_JID_2231_Energie_anion
 -----------------------------------
 Structure from the checkpoint file:  "JID_2231.chk"
 Charge = -1 Multiplicity = 2

                         Standard orientation:
 ---------------------------------------------------------------------
 Center     Atomic      Atomic             Coordinates (Angstroms)
 Number     Number       Type             X           Y           Z
 ---------------------------------------------------------------------
      1          6           0        3.002853   -0.704930    0.774460
      2          6           0        2.576958    0.154600   -0.413178
      3          7           0        1.229868    0.705523   -0.240586
      4          6           0        0.893642    2.040853   -0.120761
      5          6           0       -0.479227    2.176281    0.046391
      6          6           0       -0.988577    0.856810    0.028193
      7          6           0        0.072970   -0.005085   -0.144613
      8          6           0       -0.383514   -1.390108   -0.169536
      9          8           0        0.207278   -2.432945   -0.285105
     10          8           0       -1.771981   -1.319937   -0.013930
     11          6           0       -2.201740    0.034603    0.114804
     12          8           0       -3.359656    0.300032    0.260095
     13          1           0        2.972101   -0.127948    1.704069
     14          1           0        4.025446   -1.064335    0.620632
     15          1           0        2.346318   -1.573901    0.869706
     16          1           0        3.248562    1.005789   -0.551947
     17          1           0        2.586537   -0.433720   -1.336135
     18          1           0        1.665915    2.795747   -0.167577
     19          1           0       -1.019266    3.104373    0.162301
 ---------------------------------------------------------------------

 SCF Done:  E(UB3LYP) =  -589.719630728     A.U. after   24 cycles

 The electronic state is 2-A.
 Alpha  occ. eigenvalues --  -18.99680 -18.93630 -18.93164 -14.22891 -10.11955
 Alpha  occ. eigenvalues --  -10.11451 -10.10502 -10.07122 -10.05734 -10.03906
 Alpha  occ. eigenvalues --  -10.03759 -10.01265  -0.94079  -0.88557  -0.85921
 Alpha  occ. eigenvalues --   -0.84457  -0.69638  -0.62617  -0.60796  -0.53311
 Alpha  occ. eigenvalues --   -0.49679  -0.48167  -0.42935  -0.41659  -0.35937
 Alpha  occ. eigenvalues --   -0.33876  -0.32754  -0.32078  -0.30907  -0.29957
 Alpha  occ. eigenvalues --   -0.29121  -0.27355  -0.26999  -0.25166  -0.24617
 Alpha  occ. eigenvalues --   -0.24203  -0.23780  -0.21629  -0.15449  -0.12865
 Alpha  occ. eigenvalues --   -0.12094  -0.10773  -0.09629   0.03998
 Alpha virt. eigenvalues --    0.07409   0.09137   0.10014   0.11027   0.12345
 Alpha virt. eigenvalues --    0.13040   0.13573   0.14957   0.16042   0.16422
 Alpha virt. eigenvalues --    0.17190   0.17800   0.17983   0.18876   0.19150

  Beta  occ. eigenvalues --  -18.99773 -18.93206 -18.92643 -14.22635 -10.11716
  Beta  occ. eigenvalues --  -10.11132 -10.10513 -10.07110 -10.05719 -10.03781
  Beta  occ. eigenvalues --  -10.03721 -10.01111  -0.93737  -0.87742  -0.85550
  Beta  occ. eigenvalues --   -0.83878  -0.69492  -0.62331  -0.60485  -0.53097
  Beta  occ. eigenvalues --   -0.48841  -0.47916  -0.42682  -0.41445  -0.35714
  Beta  occ. eigenvalues --   -0.33525  -0.32520  -0.31447  -0.30157  -0.29543
  Beta  occ. eigenvalues --   -0.28727  -0.27193  -0.26563  -0.24939  -0.24341
  Beta  occ. eigenvalues --   -0.23789  -0.21593  -0.21346  -0.13936  -0.12463
  Beta  occ. eigenvalues --   -0.11007  -0.10325  -0.08305
  Beta virt. eigenvalues --    0.07291   0.09049   0.09933   0.10773   0.11282
  Beta virt. eigenvalues --    0.12300   0.13023   0.14102   0.14993   0.16051
  Beta virt. eigenvalues --    0.16465   0.17235   0.17806   0.17963   0.18909

 Mulliken charges and spin densities:
               1          2
     1  C   -0.409969  -0.044678
     2  C   -0.119650  -0.048838
     3  N    0.185027   0.085302
     4  C   -0.055808   0.040354
     5  C   -0.094613   0.010341
     6  C    0.670208   0.068407
     7  C   -0.481710   0.190845
     8  C   -0.024908   0.142872
     9  O   -0.464384   0.179901
    10  O   -0.196086  -0.040108
    11  C   -0.379626   0.132090
    12  O   -0.437262   0.143079
    13  H    0.124096   0.004340
    14  H    0.056771   0.042135
    15  H    0.186288   0.020161
    16  H    0.076413   0.025949
    17  H    0.126454   0.039275
    18  H    0.112638   0.007289
    19  H    0.126120   0.001284
 Sum of Mulliken charges =  -1.00000   1.00000

 Dipole moment (field-independent basis, Debye):
    X=              7.4116    Y=              4.0140    Z=              0.0230  Tot=              8.4288
 Quadrupole moment (field-independent basis, Debye-Ang):
   XX=           -100.3448   YY=            -91.6312   ZZ=            -75.1562
   XY=              1.6809   XZ=              1.3237   YZ=             -1.2426

 Summary of Natural Population Analysis:

                                       Natural Population
                Natural  -----------------------------------------------
    Atom  No    Charge         Core      Valence    Rydberg      Total
 -----------------------------------------------------------------------
      C    1   -0.29308      0.99966     2.28889    0.00453     3.29308
      C    2   -0.07692      0.99964     2.06839    0.00888     3.07692
      N    3   -0.16489      0.99961     2.65488    0.01041     3.66489
      C    4   -0.01946      0.99960     2.00873    0.01113     3.01946
      C    5   -0.14477      0.99956     2.13593    0.00928     3.14477
      C    6   -0.07018      0.99938     2.06240    0.00840     3.07018
      C    7    0.06424      0.99937     1.92321    0.01318     2.93576
      C    8    0.42109      0.99962     1.55392    0.02537     2.57891
      O    9   -0.25706      0.99986     3.25102    0.00617     4.25706
      O   10   -0.30774      0.99987     3.29944    0.00843     4.30774
      C   11    0.42507      0.99962     1.55111    0.02420     2.57493
      O   12   -0.25804      0.99986     3.25155    0.00664     4.25804
      H   13    0.09518      0.00000     0.40372    0.00111     0.40482
      H   14    0.09084      0.00000     0.40764    0.00152     0.40916
      H   15    0.11820      0.00000     0.38008    0.00171     0.38180
      H   16    0.08855      0.00000     0.41000    0.00145     0.41145
      H   17    0.09853      0.00000     0.39978    0.00168     0.40147
      H   18    0.08917      0.00000     0.40983    0.00100     0.41083
      H   19    0.10127      0.00000     0.39778    0.00096     0.39873
 =======================================================================
   * Total *   -0.00000     11.99566    30.85831    0.14603    43.00000

 Normal termination of Gaussian 16 at Wed Dec  9 17:10:22 2020.
