 Gaussian 16, Revision A.03,

 -----------------------------------------------------------
 # opt freq B3LYP/6-31G(d) empiricaldispersion=gd3bj scf=xqc
 -----------------------------------------------------------

 -----------------------------
 CID_85771102_JID_776_neutraal
 -----------------------------
 Symbolic Z-matrix:
 Charge =  0 Multiplicity = 1

 SCF Done:  E(RB3LYP) =  -1161.58477227     A.U. after   15 cycles
 SCF Done:  E(RB3LYP) =  -1161.58900970     A.U. after   13 cycles
 SCF Done:  E(RB3LYP) =  -1161.58924741     A.U. after   12 cycles
 SCF Done:  E(RB3LYP) =  -1161.58970999     A.U. after   13 cycles
 SCF Done:  E(RB3LYP) =  -1161.58980865     A.U. after   12 cycles
 SCF Done:  E(RB3LYP) =  -1161.58985904     A.U. after   12 cycles
 SCF Done:  E(RB3LYP) =  -1161.58989631     A.U. after   11 cycles
 SCF Done:  E(RB3LYP) =  -1161.58989847     A.U. after    9 cycles
 Optimization completed.
    -- Stationary point found.
 Normal termination of Gaussian 16 at Tue Dec  8 12:28:07 2020.

 --------------------------------------------------------------------
 #N Geom=AllCheck Guess=TCheck SCRF=Check GenChk RB3LYP/6-31G(d) Freq
 --------------------------------------------------------------------

 Structure from the checkpoint file:  "JID_776.chk"
 -----------------------------
 CID_85771102_JID_776_neutraal
 -----------------------------
 Charge =  0 Multiplicity = 1

 SCF Done:  E(RB3LYP) =  -1161.58989847     A.U. after    1 cycles

  Exact polarizability: 118.804  -6.089  98.917   4.350  -2.383  94.182
 Approx polarizability: 174.098 -10.693 157.050   8.058  -6.418 154.464

                      1                      2                      3
                      A                      A                      A
 Frequencies --     72.3617                87.0478               152.8764
 Red. masses --      4.4194                 4.7908                 2.6853
 Frc consts  --      0.0136                 0.0214                 0.0370
 IR Inten    --      2.1349                 0.2835                 0.3972

                      4                      5                      6
                      A                      A                      A
 Frequencies --    176.2343               197.7269               242.0561
 Red. masses --      7.1029                 6.0025                 1.0525
 Frc consts  --      0.1300                 0.1383                 0.0363
 IR Inten    --      0.0965                 1.4912                 0.0627

                      7                      8                      9
                      A                      A                      A
 Frequencies --    250.2212               280.9195               297.8708
 Red. masses --      2.4168                 3.7348                 1.3388
 Frc consts  --      0.0892                 0.1737                 0.0700
 IR Inten    --      0.4676                 0.5674                 1.2969

                     10                     11                     12
                      A                      A                      A
 Frequencies --    322.2616               371.9444               394.9060
 Red. masses --      2.4667                 4.5415                 1.6969
 Frc consts  --      0.1509                 0.3702                 0.1559
 IR Inten    --      4.2607                 2.9710                50.2965

                     13                     14                     15
                      A                      A                      A
 Frequencies --    408.5013               414.1079               437.5323
 Red. masses --      4.4768                 2.4120                 4.5001
 Frc consts  --      0.4402                 0.2437                 0.5076
 IR Inten    --      8.6159                17.1876                 2.4755

                     16                     17                     18
                      A                      A                      A
 Frequencies --    525.5350               563.1901               651.0856
 Red. masses --      5.2985                 4.3580                 3.8994
 Frc consts  --      0.8622                 0.8144                 0.9739
 IR Inten    --      5.4247                21.6473                 2.9065

                     19                     20                     21
                      A                      A                      A
 Frequencies --    719.3453               746.8123               759.1775
 Red. masses --      3.0185                 4.5924                 5.6092
 Frc consts  --      0.9203                 1.5091                 1.9047
 IR Inten    --      0.0961                 1.5229                24.0514

                     22                     23                     24
                      A                      A                      A
 Frequencies --    884.5938               906.0166               918.4451
 Red. masses --      1.3724                 1.5306                 3.6007
 Frc consts  --      0.6327                 0.7403                 1.7896
 IR Inten    --     14.2835                 2.0697                39.9020

                     25                     26                     27
                      A                      A                      A
 Frequencies --    929.5532               989.8076              1031.9200
 Red. masses --      1.9501                 2.8696                 1.5311
 Frc consts  --      0.9928                 1.6564                 0.9606
 IR Inten    --      1.7439                54.2899                 4.2510

                     28                     29                     30
                      A                      A                      A
 Frequencies --   1080.8878              1100.6167              1105.1336
 Red. masses --      4.4188                 2.2695                 1.6061
 Frc consts  --      3.0417                 1.6198                 1.1557
 IR Inten    --      6.2476                 2.5142                 8.3676

                     31                     32                     33
                      A                      A                      A
 Frequencies --   1133.4067              1175.1546              1190.7235
 Red. masses --      1.4482                 1.5258                 2.3716
 Frc consts  --      1.0961                 1.2415                 1.9811
 IR Inten    --      4.6103                 3.3565                 4.3231

                     34                     35                     36
                      A                      A                      A
 Frequencies --   1276.6203              1301.2971              1379.6913
 Red. masses --      1.2902                 1.2481                 1.2395
 Frc consts  --      1.2389                 1.2452                 1.3901
 IR Inten    --      7.5988                14.1939                34.2357

                     37                     38                     39
                      A                      A                      A
 Frequencies --   1389.9295              1414.8361              1438.0041
 Red. masses --      1.2996                 1.2065                 1.2319
 Frc consts  --      1.4793                 1.4229                 1.5009
 IR Inten    --      4.9358                45.3856                 1.8348

                     40                     41                     42
                      A                      A                      A
 Frequencies --   1440.4444              1501.0284              1513.8606
 Red. masses --      1.2109                 1.0931                 1.0449
 Frc consts  --      1.4802                 1.4511                 1.4109
 IR Inten    --      5.2380                 1.8162                 3.4764

                     43                     44                     45
                      A                      A                      A
 Frequencies --   1519.6901              1521.9997              1529.5558
 Red. masses --      1.0462                 1.0452                 1.0434
 Frc consts  --      1.4236                 1.4266                 1.4382
 IR Inten    --      5.7305                 5.9779                 5.8089

                     46                     47                     48
                      A                      A                      A
 Frequencies --   1731.9908              3048.0201              3053.1998
 Red. masses --      6.3761                 1.0389                 1.0357
 Frc consts  --     11.2692                 5.6869                 5.6886
 IR Inten    --      2.8641                22.6148                20.0553

                     49                     50                     51
                      A                      A                      A
 Frequencies --   3064.5496              3110.7849              3111.5154
 Red. masses --      1.0558                 1.0994                 1.1016
 Frc consts  --      5.8423                 6.2682                 6.2838
 IR Inten    --     33.2635                 3.7115                18.8287

                     52                     53                     54
                      A                      A                      A
 Frequencies --   3117.8845              3126.2550              3139.5748
 Red. masses --      1.1028                 1.1003                 1.0965
 Frc consts  --      6.3162                 6.3358                 6.3681
 IR Inten    --      4.1514                15.4978                22.2099

                     55                     56                     57
                      A                      A                      A
 Frequencies --   3162.4598              3167.2773              3752.6779
 Red. masses --      1.0891                 1.0988                 1.0677
 Frc consts  --      6.4173                 6.4946                 8.8591
 IR Inten    --      7.8870                17.4477                71.5658

 - Thermochemistry -
 -------------------
 Temperature   298.150 Kelvin.  Pressure   1.00000 Atm.
 Atom     1 has atomic number  6 and mass  12.00000

 Molecular mass:   177.02821 amu.
 Principal axes and moments of inertia in atomic units:
                           1         2         3
     Eigenvalues --  1413.249512068.975032284.62782
           X            0.99815  -0.05200   0.03166
           Y            0.05536   0.99161  -0.11681
           Z           -0.02532   0.11835   0.99265
 This molecule is an asymmetric top.
 Rotational symmetry number  1.
 Warning -- assumption of classical behavior for rotation
           may cause significant error
 Rotational temperatures (Kelvin)      0.06129     0.04186     0.03791
 Rotational constants (GHZ):           1.27702     0.87229     0.78995
 Zero-point vibrational energy     444598.8 (Joules/Mol)
                                  106.26167 (Kcal/Mol)
 Warning -- explicit consideration of  17 degrees of freedom as
           vibrations may cause significant error
 Vibrational temperatures:    104.11   125.24   219.96   253.56   284.48
          (Kelvin)            348.26   360.01   404.18   428.57   463.66
                              535.15   568.18   587.74   595.81   629.51
                              756.13   810.30   936.77  1034.98  1074.50
                             1092.29  1272.73  1303.56  1321.44  1337.42
                             1424.11  1484.70  1555.16  1583.54  1590.04
                             1630.72  1690.79  1713.19  1836.77  1872.28
                             1985.07  1999.80  2035.63  2068.97  2072.48
                             2159.65  2178.11  2186.50  2189.82  2200.69
                             2491.95  4385.42  4392.87  4409.20  4475.73
                             4476.78  4485.94  4497.98  4517.15  4550.07
                             4557.01  5399.27

 Zero-point correction=                           0.169339 (Hartree/Particle)
 Thermal correction to Energy=                    0.180599
 Thermal correction to Enthalpy=                  0.181543
 Thermal correction to Gibbs Free Energy=         0.132748
 Sum of electronic and zero-point Energies=          -1161.420560
 Sum of electronic and thermal Energies=             -1161.409299
 Sum of electronic and thermal Enthalpies=           -1161.408355
 Sum of electronic and thermal Free Energies=        -1161.457150

                     E (Thermal)             CV                S
                      KCal/Mol        Cal/Mol-Kelvin    Cal/Mol-Kelvin
 Total                  113.328             42.254            102.698
 Electronic               0.000              0.000              0.000
 Translational            0.889              2.981             41.420
 Rotational               0.889              2.981             30.281
 Vibrational            111.550             36.292             30.997
 Vibration     1          0.598              1.967              4.088
 Vibration     2          0.601              1.958              3.725
 Vibration     3          0.619              1.899              2.636
 Vibration     4          0.628              1.872              2.368
 Vibration     5          0.637              1.843              2.154
 Vibration     6          0.658              1.776              1.788
 Vibration     7          0.663              1.762              1.729
 Vibration     8          0.681              1.709              1.528
 Vibration     9          0.691              1.678              1.429
 Vibration    10          0.707              1.631              1.299
 Vibration    11          0.744              1.530              1.072
 Vibration    12          0.762              1.481              0.982
 Vibration    13          0.773              1.452              0.932
 Vibration    14          0.778              1.440              0.912
 Vibration    15          0.798              1.388              0.834
 Vibration    16          0.880              1.193              0.597
 Vibration    17          0.919              1.111              0.518

 Optimization completed.
    -- Stationary point found.
 Normal termination of Gaussian 16 at Tue Dec  8 12:32:53 2020.

 ----------------------------------------------------------------------
 # B3LYP/6-311++G(d,p) empiricaldispersion=gd3bj scf=xqc pop=npa geom=c
 heck
 ----------------------------------------------------------------------

 -------------------------------------
 CID_85771102_JID_776_Energie_neutraal
 -------------------------------------
 Structure from the checkpoint file:  "JID_776.chk"
 Charge =  0 Multiplicity = 1

 SCF Done:  E(RB3LYP) =  -1161.75516340     A.U. after   14 cycles
 Normal termination of Gaussian 16 at Tue Dec  8 12:40:12 2020.

 ----------------------------------------------------------------------
 # B3LYP/6-311++G(d,p) empiricaldispersion=gd3bj scf=xqc pop=npa geom=c
 heck
 ----------------------------------------------------------------------

 -----------------------------------
 CID_85771102_JID_776_Energie_kation
 -----------------------------------
 Structure from the checkpoint file:  "JID_776.chk"
 Charge =  1 Multiplicity = 2

 SCF Done:  E(UB3LYP) =  -1161.45569995     A.U. after   25 cycles
 Normal termination of Gaussian 16 at Tue Dec  8 12:49:48 2020.
 Gaussian 16:  ES64L-G16RevA.03 25-Dec-2016

 ----------------------------------------------------------------------
 # B3LYP/6-311++G(d,p) empiricaldispersion=gd3bj scf=xqc pop=npa geom=c
 heck
 ----------------------------------------------------------------------

 ----------------------------------
 CID_85771102_JID_776_Energie_anion
 ----------------------------------
 Structure from the checkpoint file:  "JID_776.chk"
 Charge = -1 Multiplicity = 2

                         Standard orientation:
 ---------------------------------------------------------------------
 Center     Atomic      Atomic             Coordinates (Angstroms)
 Number     Number       Type             X           Y           Z
 ---------------------------------------------------------------------
      1          6           0        3.089189   -0.591290   -0.419567
      2          6           0        1.652532   -0.453381    0.081108
      3          6           0        1.488133    0.655445    1.116576
      4         16           0       -0.294364    0.906046    1.440676
      5          6           0       -0.888779    0.621249   -0.314491
      6         16           0        0.543120   -0.016818   -1.317476
      7          6           0       -1.342195    1.947700   -0.938284
      8          6           0       -2.061899   -0.334778   -0.293793
      9          7           0       -2.151060   -1.562895    0.050418
     10          8           0       -0.939654   -2.112910    0.472727
     11          1           0        3.447690    0.346218   -0.857497
     12          1           0        3.170772   -1.377653   -1.176587
     13          1           0        3.748737   -0.858740    0.414027
     14          1           0        1.295536   -1.396002    0.500528
     15          1           0        1.949298    0.372248    2.069557
     16          1           0        1.949570    1.582808    0.762956
     17          1           0       -1.653660    1.795432   -1.979235
     18          1           0       -2.192949    2.356897   -0.381909
     19          1           0       -0.528474    2.673830   -0.918606
     20          1           0       -3.017062    0.072195   -0.624307
     21          1           0       -1.196788   -3.021005    0.695832
 ---------------------------------------------------------------------

 SCF Done:  E(UB3LYP) =  -1161.74280918     A.U. after   33 cycles
 SCF Done:  E(UB3LYP) =  -1161.74280918     a.u. after    1 cycles

 The electronic state is 2-A.
 Alpha  occ. eigenvalues --  -88.72366 -88.71667 -19.04576 -14.23630 -10.12836
 Alpha  occ. eigenvalues --  -10.08642 -10.08430 -10.08237 -10.06764 -10.04613
 Alpha  occ. eigenvalues --   -7.80968  -7.80334  -5.77389  -5.77015  -5.76734
 Alpha  occ. eigenvalues --   -5.76375  -5.76295  -5.75678  -0.96846  -0.75863
 Alpha  occ. eigenvalues --   -0.72715  -0.67381  -0.62514  -0.58220  -0.54433
 Alpha  occ. eigenvalues --   -0.50623  -0.45617  -0.44410  -0.37954  -0.36740
 Alpha  occ. eigenvalues --   -0.35729  -0.32360  -0.31435  -0.30664  -0.30051
 Alpha  occ. eigenvalues --   -0.29511  -0.28596  -0.28473  -0.24395  -0.24133
 Alpha  occ. eigenvalues --   -0.22777  -0.21130  -0.18416  -0.16521  -0.14785
 Alpha  occ. eigenvalues --   -0.11095  -0.10585   0.05146
 Alpha virt. eigenvalues --    0.07934   0.08261   0.08283   0.09764   0.10102
 Alpha virt. eigenvalues --    0.10311   0.11123   0.11301   0.12406   0.13091
 Alpha virt. eigenvalues --    0.13866   0.14274   0.14507   0.15392   0.16447

  Beta  occ. eigenvalues --  -88.72360 -88.71632 -19.04515 -14.23359 -10.12797
  Beta  occ. eigenvalues --  -10.08637 -10.08374 -10.08164 -10.06762 -10.04532
  Beta  occ. eigenvalues --   -7.80960  -7.80297  -5.77390  -5.76998  -5.76650
  Beta  occ. eigenvalues --   -5.76349  -5.76290  -5.75656  -0.96612  -0.75636
  Beta  occ. eigenvalues --   -0.72534  -0.67265  -0.62380  -0.58095  -0.54288
  Beta  occ. eigenvalues --   -0.50387  -0.45482  -0.44287  -0.37813  -0.36600
  Beta  occ. eigenvalues --   -0.35593  -0.32259  -0.31352  -0.30587  -0.29867
  Beta  occ. eigenvalues --   -0.28999  -0.28482  -0.28396  -0.24272  -0.24046
  Beta  occ. eigenvalues --   -0.22610  -0.21004  -0.18280  -0.16251  -0.14180
  Beta  occ. eigenvalues --   -0.10976  -0.10494
  Beta virt. eigenvalues --    0.07735   0.08318   0.08856   0.09623   0.10385
  Beta virt. eigenvalues --    0.10627   0.10960   0.11203   0.11461   0.12788
  Beta virt. eigenvalues --    0.13454   0.14137   0.14405   0.14923   0.15552

 Mulliken charges and spin densities:
               1          2
     1  C    2.065633  -2.697073
     2  C   -1.769478   1.909902
     3  C    0.271805  -1.075175
     4  S   -0.308391   0.018172
     5  C    0.511052   0.345284
     6  S    0.417264  -0.746587
     7  C   -0.401832   0.025049
     8  C   -0.462948   0.059007
     9  N   -0.178398   0.024009
    10  O   -0.090366   0.012406
    11  H   -0.334479   0.461118
    12  H   -0.601035   0.766534
    13  H   -0.693178   0.848354
    14  H    0.107037   0.170497
    15  H   -0.162006   0.363678
    16  H    0.048789   0.184134
    17  H    0.140274   0.001413
    18  H    0.128127  -0.000893
    19  H    0.090940   0.057824
    20  H    0.143475   0.068012
    21  H    0.077715   0.204337
 Sum of Mulliken charges =  -1.00000   1.00000

 Dipole moment (field-independent basis, Debye):
    X=             -6.2695    Y=              3.5500    Z=             -0.5608  Tot=              7.2266
 Quadrupole moment (field-independent basis, Debye-Ang):
   XX=           -131.0682   YY=           -102.4991   ZZ=           -103.0716
   XY=              2.1438   XZ=              1.0488   YZ=             -2.1377

 Summary of Natural Population Analysis:

                                       Natural Population
                Natural  -----------------------------------------------
    Atom  No    Charge         Core      Valence    Rydberg      Total
 -----------------------------------------------------------------------
      C    1   -0.28808      0.99963     2.28092    0.00753     3.28808
      C    2   -0.17543      0.99957     2.16085    0.01501     3.17543
      C    3   -0.24474      0.99955     2.23276    0.01243     3.24474
      S    4    0.10363      4.99956     2.88005    0.01677     7.89637
      C    5   -0.17986      0.99956     2.16335    0.01694     3.17986
      S    6    0.12351      4.99953     2.85981    0.01715     7.87649
      C    7   -0.28865      0.99961     2.28115    0.00789     3.28865
      C    8    0.00937      0.99955     1.97029    0.02079     2.99063
      N    9   -0.04335      0.99963     2.52727    0.01645     3.54335
      O   10   -0.27929      0.99990     3.27065    0.00875     4.27929
      H   11    0.10029      0.00000     0.39815    0.00156     0.39971
      H   12    0.10564      0.00000     0.39254    0.00182     0.39436
      H   13    0.10767      0.00000     0.38765    0.00468     0.39233
      H   14    0.11190      0.00000     0.38517    0.00293     0.38810
      H   15    0.11123      0.00000     0.38728    0.00149     0.38877
      H   16    0.09885      0.00000     0.39929    0.00186     0.40115
      H   17    0.09845      0.00000     0.40048    0.00107     0.40155
      H   18    0.09813      0.00000     0.40076    0.00111     0.40187
      H   19    0.10759      0.00000     0.39134    0.00107     0.39241
      H   20    0.09116      0.00000     0.40773    0.00111     0.40884
      H   21    0.23198      0.00000     0.26345    0.00457     0.26802
 =======================================================================
   * Total *   -0.00000     17.99609    28.84095    0.16297    47.00000

 Normal termination of Gaussian 16 at Tue Dec  8 13:04:43 2020.
