 Gaussian 16, Revision A.03,

 -----------------------------------------------------------
 # opt freq B3LYP/6-31G(d) empiricaldispersion=gd3bj scf=xqc
 -----------------------------------------------------------

 -------------------------------
 CID_117526480_JID_6614_neutraal
 -------------------------------
 Symbolic Z-matrix:
 Charge =  0 Multiplicity = 1

 SCF Done:  E(RB3LYP) =  -1012.76032536     A.U. after   14 cycles
 SCF Done:  E(RB3LYP) =  -1012.76999239     A.U. after   12 cycles
 SCF Done:  E(RB3LYP) =  -1012.77049762     A.U. after   12 cycles
 SCF Done:  E(RB3LYP) =  -1012.77054536     A.U. after   11 cycles
 SCF Done:  E(RB3LYP) =  -1012.77057035     A.U. after   10 cycles
 SCF Done:  E(RB3LYP) =  -1012.77057633     A.U. after   10 cycles
 SCF Done:  E(RB3LYP) =  -1012.77057841     A.U. after    9 cycles
 SCF Done:  E(RB3LYP) =  -1012.77057907     A.U. after    9 cycles
 SCF Done:  E(RB3LYP) =  -1012.77058225     A.U. after    9 cycles
 SCF Done:  E(RB3LYP) =  -1012.77058839     A.U. after   11 cycles
 SCF Done:  E(RB3LYP) =  -1012.77059797     A.U. after    9 cycles
 SCF Done:  E(RB3LYP) =  -1012.77059811     A.U. after    9 cycles
 SCF Done:  E(RB3LYP) =  -1012.77059818     A.U. after    7 cycles
 SCF Done:  E(RB3LYP) =  -1012.77059820     A.U. after    7 cycles
 SCF Done:  E(RB3LYP) =  -1012.77059821     A.U. after    7 cycles
 Optimization completed.
    -- Stationary point found.
 Normal termination of Gaussian 16 at Thu Dec 10 22:22:33 2020.

 --------------------------------------------------------------------
 #N Geom=AllCheck Guess=TCheck SCRF=Check GenChk RB3LYP/6-31G(d) Freq
 --------------------------------------------------------------------

 Structure from the checkpoint file:  "JID_6614.chk"
 -------------------------------
 CID_117526480_JID_6614_neutraal
 -------------------------------
 Charge =  0 Multiplicity = 1

 SCF Done:  E(RB3LYP) =  -1012.77059821     A.U. after    1 cycles

  Exact polarizability: 243.871 -15.659 139.664   6.574  16.793 114.282
 Approx polarizability: 317.339 -29.800 232.572  13.475  47.960 188.619

                      1                      2                      3
                      A                      A                      A
 Frequencies --      6.7154                31.9760                48.8637
 Red. masses --      3.3648                 5.1046                 6.2951
 Frc consts  --      0.0001                 0.0031                 0.0089
 IR Inten    --      0.0901                 2.2889                 1.2046

                      4                      5                      6
                      A                      A                      A
 Frequencies --     80.1641                87.8785               132.8253
 Red. masses --      3.9895                 3.2570                 2.8046
 Frc consts  --      0.0151                 0.0148                 0.0292
 IR Inten    --      0.2004                 0.2080                 1.9816

                      7                      8                      9
                      A                      A                      A
 Frequencies --    178.5971               204.9896               235.6992
 Red. masses --      3.2104                 2.3025                 3.3222
 Frc consts  --      0.0603                 0.0570                 0.1087
 IR Inten    --      0.5523                 5.3326                 0.8466

                     10                     11                     12
                      A                      A                      A
 Frequencies --    259.1022               264.6272               300.2242
 Red. masses --      1.3474                 3.2436                 5.2577
 Frc consts  --      0.0533                 0.1338                 0.2792
 IR Inten    --     31.2537                 3.5555                 0.2667

                     13                     14                     15
                      A                      A                      A
 Frequencies --    364.4465               376.4586               422.9645
 Red. masses --      2.4912                 4.2149                 4.4764
 Frc consts  --      0.1950                 0.3519                 0.4718
 IR Inten    --      1.6582                 4.9050                 7.5448

                     16                     17                     18
                      A                      A                      A
 Frequencies --    443.7230               460.6651               474.3497
 Red. masses --      2.2092                 2.6206                 1.6024
 Frc consts  --      0.2563                 0.3277                 0.2124
 IR Inten    --     24.7062                10.1652                56.6039

                     19                     20                     21
                      A                      A                      A
 Frequencies --    537.1479               585.4297               630.8043
 Red. masses --      4.0538                 2.8244                 3.4035
 Frc consts  --      0.6891                 0.5703                 0.7979
 IR Inten    --      1.8875                 0.1960                 0.7866

                     22                     23                     24
                      A                      A                      A
 Frequencies --    654.6130               664.5595               729.1144
 Red. masses --      3.3570                 3.9989                 3.7452
 Frc consts  --      0.8476                 1.0405                 1.1731
 IR Inten    --     10.7079                 0.7312                 1.3367

                     25                     26                     27
                      A                      A                      A
 Frequencies --    730.8132               744.0943               771.7967
 Red. masses --      1.9727                 2.1752                 4.2566
 Frc consts  --      0.6208                 0.7096                 1.4939
 IR Inten    --      1.4718                 1.4621                 0.0779

                     28                     29                     30
                      A                      A                      A
 Frequencies --    796.0566               802.5883               833.2916
 Red. masses --      1.8221                 1.3694                 2.2975
 Frc consts  --      0.6803                 0.5197                 0.9400
 IR Inten    --      1.3519                 0.4901                 7.0130

                     31                     32                     33
                      A                      A                      A
 Frequencies --    840.8676               867.3907               890.1422
 Red. masses --      1.6547                 1.4156                 2.9382
 Frc consts  --      0.6893                 0.6275                 1.3717
 IR Inten    --     17.7879                 8.0800                 3.2640

                     34                     35                     36
                      A                      A                      A
 Frequencies --    927.2811               943.3873               951.0952
 Red. masses --      2.4457                 1.8262                 1.7880
 Frc consts  --      1.2390                 0.9576                 0.9530
 IR Inten    --      0.4394                 1.0651                 3.0383

                     37                     38                     39
                      A                      A                      A
 Frequencies --    951.5510               953.5001               957.2737
 Red. masses --      1.9735                 2.0337                 1.8445
 Frc consts  --      1.0528                 1.0894                 0.9959
 IR Inten    --      0.3317                 0.6123                 1.9094

                     40                     41                     42
                      A                      A                      A
 Frequencies --    997.9467              1012.0848              1042.2162
 Red. masses --      3.7284                 1.8542                 2.0683
 Frc consts  --      2.1877                 1.1190                 1.3237
 IR Inten    --      0.3389                 2.4056                12.2082

                     43                     44                     45
                      A                      A                      A
 Frequencies --   1045.7301              1064.7334              1134.0591
 Red. masses --      1.6618                 3.9775                 1.9936
 Frc consts  --      1.0707                 2.6567                 1.5106
 IR Inten    --      0.3991                 0.7077                17.8783

                     46                     47                     48
                      A                      A                      A
 Frequencies --   1154.9683              1169.3808              1182.4489
 Red. masses --      1.4121                 1.7511                 1.1395
 Frc consts  --      1.1098                 1.4108                 0.9387
 IR Inten    --      0.6490                 0.7330                 3.4571

                     49                     50                     51
                      A                      A                      A
 Frequencies --   1208.7999              1218.8098              1251.4842
 Red. masses --      1.8636                 1.3067                 1.2181
 Frc consts  --      1.6044                 1.1437                 1.1240
 IR Inten    --      4.9272                 0.5768                 2.5599

                     52                     53                     54
                      A                      A                      A
 Frequencies --   1257.6744              1262.4585              1264.7873
 Red. masses --      1.4430                 1.2382                 2.0553
 Frc consts  --      1.3447                 1.1627                 1.9371
 IR Inten    --      2.7481                 0.0552                10.3678

                     55                     56                     57
                      A                      A                      A
 Frequencies --   1273.3821              1293.0697              1296.3226
 Red. masses --      1.2138                 1.4828                 1.3855
 Frc consts  --      1.1597                 1.4607                 1.3718
 IR Inten    --      0.0246                 9.3334                 1.0035

                     58                     59                     60
                      A                      A                      A
 Frequencies --   1316.8952              1322.0587              1344.0702
 Red. masses --      2.7360                 2.2089                 1.3717
 Frc consts  --      2.7956                 2.2748                 1.4600
 IR Inten    --     69.0823                15.9000                15.4549

                     61                     62                     63
                      A                      A                      A
 Frequencies --   1367.0238              1375.7704              1413.4124
 Red. masses --      2.0504                 1.5428                 2.6414
 Frc consts  --      2.2575                 1.7205                 3.1091
 IR Inten    --     51.9379                23.0642                 1.5849

                     64                     65                     66
                      A                      A                      A
 Frequencies --   1467.9268              1492.1862              1500.0342
 Red. masses --      2.6721                 2.6914                 1.1540
 Frc consts  --      3.3925                 3.5308                 1.5299
 IR Inten    --     32.1156                27.1538                14.0750

                     67                     68                     69
                      A                      A                      A
 Frequencies --   1505.7273              1510.5417              1515.8969
 Red. masses --      1.0873                 1.1164                 1.0846
 Frc consts  --      1.4524                 1.5009                 1.4685
 IR Inten    --      0.7945                 4.8101                 2.5934

                     70                     71                     72
                      A                      A                      A
 Frequencies --   1538.5924              1541.1099              1590.0713
 Red. masses --      3.3343                 1.2463                 5.1248
 Frc consts  --      4.6506                 1.7440                 7.6341
 IR Inten    --     11.0003                 0.0469                41.6037

                     73                     74                     75
                      A                      A                      A
 Frequencies --   1634.1692              1688.2256              2677.4854
 Red. masses --      7.0548                 6.7424                 1.0380
 Frc consts  --     11.1001                11.3220                 4.3843
 IR Inten    --      1.5420                 9.1047                 7.4684

                     76                     77                     78
                      A                      A                      A
 Frequencies --   3037.2546              3062.0195              3072.0966
 Red. masses --      1.0658                 1.0853                 1.0605
 Frc consts  --      5.7925                 5.9953                 5.8967
 IR Inten    --     33.4854                23.1140                41.3424

                     79                     80                     81
                      A                      A                      A
 Frequencies --   3077.3858              3080.2234              3084.5966
 Red. masses --      1.0601                 1.0580                 1.0617
 Frc consts  --      5.9149                 5.9145                 5.9519
 IR Inten    --     25.6924                69.3351                19.5221

                     82                     83                     84
                      A                      A                      A
 Frequencies --   3098.4000              3120.2988              3130.1768
 Red. masses --      1.0964                 1.1071                 1.1073
 Frc consts  --      6.2014                 6.3506                 6.3924
 IR Inten    --     14.2876                20.0848                22.0907

                     85                     86                     87
                      A                      A                      A
 Frequencies --   3140.2770              3148.0978              3178.7784
 Red. masses --      1.1089                 1.1069                 1.0884
 Frc consts  --      6.4426                 6.4636                 6.4798
 IR Inten    --     10.0230                47.8213                15.0398

                     88                     89                     90
                      A                      A                      A
 Frequencies --   3195.5714              3215.8672              3653.8378
 Red. masses --      1.0910                 1.0934                 1.0801
 Frc consts  --      6.5641                 6.6622                 8.4963
 IR Inten    --     10.2710                10.7306                41.6947

 - Thermochemistry -
 -------------------
 Temperature   298.150 Kelvin.  Pressure   1.00000 Atm.
 Atom     1 has atomic number  6 and mass  12.00000

 Molecular mass:   232.10342 amu.
 Principal axes and moments of inertia in atomic units:
                           1         2         3
     Eigenvalues --  1376.287979375.056349944.71150
           X            0.99993  -0.01172   0.00280
           Y            0.01163   0.99952   0.02866
           Z           -0.00314  -0.02862   0.99959
 This molecule is an asymmetric top.
 Rotational symmetry number  1.
 Warning -- assumption of classical behavior for rotation
           may cause significant error
 Rotational temperatures (Kelvin)      0.06293     0.00924     0.00871
 Rotational constants (GHZ):           1.31131     0.19250     0.18148
 Zero-point vibrational energy     701989.7 (Joules/Mol)
                                  167.77955 (Kcal/Mol)
 Warning -- explicit consideration of  20 degrees of freedom as
           vibrations may cause significant error
 Vibrational temperatures:      9.66    46.01    70.30   115.34   126.44
          (Kelvin)            191.11   256.96   294.93   339.12   372.79
                              380.74   431.96   524.36   541.64   608.55
                              638.42   662.79   682.48   772.84   842.30
                              907.59   941.84   956.15  1049.03  1051.48
                             1070.59  1110.44  1145.35  1154.75  1198.92
                             1209.82  1247.98  1280.72  1334.15  1357.32
                             1368.41  1369.07  1371.87  1377.30  1435.82
                             1456.16  1499.52  1504.57  1531.91  1631.66
                             1661.74  1682.48  1701.28  1739.19  1753.60
                             1800.61  1809.51  1816.40  1819.75  1832.11
                             1860.44  1865.12  1894.72  1902.15  1933.82
                             1966.84  1979.43  2033.59  2112.02  2146.92
                             2158.21  2166.41  2173.33  2181.04  2213.69
                             2217.31  2287.76  2351.20  2428.98  3852.30
                             4369.93  4405.56  4420.06  4427.67  4431.75
                             4438.05  4457.91  4489.41  4503.63  4518.16
                             4529.41  4573.55  4597.71  4626.92  5257.06

 Zero-point correction=                           0.267374 (Hartree/Particle)
 Thermal correction to Energy=                    0.282099
 Thermal correction to Enthalpy=                  0.283043
 Thermal correction to Gibbs Free Energy=         0.222347
 Sum of electronic and zero-point Energies=          -1012.503224
 Sum of electronic and thermal Energies=             -1012.488499
 Sum of electronic and thermal Enthalpies=           -1012.487555
 Sum of electronic and thermal Free Energies=        -1012.548252

                     E (Thermal)             CV                S
                      KCal/Mol        Cal/Mol-Kelvin    Cal/Mol-Kelvin
 Total                  177.020             56.732            127.747
 Electronic               0.000              0.000              0.000
 Translational            0.889              2.981             42.228
 Rotational               0.889              2.981             33.217
 Vibrational            175.242             50.770             52.302
 Vibration     1          0.593              1.987              8.802
 Vibration     2          0.594              1.983              5.703
 Vibration     3          0.595              1.978              4.863
 Vibration     4          0.600              1.963              3.887
 Vibration     5          0.601              1.958              3.707
 Vibration     6          0.613              1.921              2.905
 Vibration     7          0.629              1.869              2.343
 Vibration     8          0.640              1.833              2.088
 Vibration     9          0.655              1.786              1.835
 Vibration    10          0.668              1.747              1.668
 Vibration    11          0.671              1.738              1.631
 Vibration    12          0.693              1.673              1.416
 Vibration    13          0.738              1.545              1.103
 Vibration    14          0.747              1.520              1.053
 Vibration    15          0.785              1.420              0.882
 Vibration    16          0.803              1.375              0.815
 Vibration    17          0.818              1.337              0.764
 Vibration    18          0.831              1.307              0.725
 Vibration    19          0.892              1.168              0.571
 Vibration    20          0.942              1.063              0.475

 Optimization completed.
    -- Stationary point found.
 Normal termination of Gaussian 16 at Thu Dec 10 22:32:20 2020.

 ----------------------------------------------------------------------
 # B3LYP/6-311++G(d,p) empiricaldispersion=gd3bj scf=xqc pop=npa geom=c
 heck
 ----------------------------------------------------------------------

 ---------------------------------------
 CID_117526480_JID_6614_Energie_neutraal
 ---------------------------------------
 Structure from the checkpoint file:  "JID_6614.chk"
 Charge =  0 Multiplicity = 1

 SCF Done:  E(RB3LYP) =  -1012.95891024     A.U. after   16 cycles
 Normal termination of Gaussian 16 at Thu Dec 10 22:38:01 2020.

 ----------------------------------------------------------------------
 # B3LYP/6-311++G(d,p) empiricaldispersion=gd3bj scf=xqc pop=npa geom=c
 heck
 ----------------------------------------------------------------------

 -------------------------------------
 CID_117526480_JID_6614_Energie_kation
 -------------------------------------
 Structure from the checkpoint file:  "JID_6614.chk"
 Charge =  1 Multiplicity = 2

 SCF Done:  E(UB3LYP) =  -1012.67502453     A.U. after   27 cycles
 Normal termination of Gaussian 16 at Thu Dec 10 22:51:18 2020.
 Gaussian 16:  ES64L-G16RevA.03 25-Dec-2016

 ----------------------------------------------------------------------
 # B3LYP/6-311++G(d,p) empiricaldispersion=gd3bj scf=xqc pop=npa geom=c
 heck
 ----------------------------------------------------------------------

 ------------------------------------
 CID_117526480_JID_6614_Energie_anion
 ------------------------------------
 Structure from the checkpoint file:  "JID_6614.chk"
 Charge = -1 Multiplicity = 2

                         Standard orientation:
 ---------------------------------------------------------------------
 Center     Atomic      Atomic             Coordinates (Angstroms)
 Number     Number       Type             X           Y           Z
 ---------------------------------------------------------------------
      1          6           0       -5.572880    0.365268   -0.417765
      2          6           0       -4.685414   -0.367435    0.619700
      3          6           0       -3.549896    0.662161    0.330282
      4          6           0       -4.287982    1.005137   -1.001186
      5          6           0       -2.156468    0.150544    0.239553
      6          7           0       -1.772886   -0.864992   -0.502788
      7          6           0       -0.406981   -0.987341   -0.287459
      8          6           0        0.038452    0.000846    0.625098
      9          7           0       -1.105986    0.712069    0.943043
     10          6           0        1.369303    0.111974    1.025452
     11          6           0        2.282626   -0.800783    0.492514
     12          6           0        1.843513   -1.789914   -0.417852
     13          6           0        0.516325   -1.897345   -0.815084
     14          6           0        3.750279   -0.702299    0.838143
     15          6           0        4.588126   -0.046952   -0.272518
     16         16           0        4.189425    1.722331   -0.581145
     17          1           0       -6.221434    1.110823    0.054354
     18          1           0       -6.178338   -0.250931   -1.088124
     19          1           0       -5.042338   -0.439496    1.651604
     20          1           0       -4.382002   -1.357631    0.270245
     21          1           0       -3.599276    1.504119    1.030494
     22          1           0       -3.870549    0.410172   -1.817596
     23          1           0       -4.319092    2.058043   -1.297565
     24          1           0       -1.170006    1.498798    1.571635
     25          1           0        1.698642    0.878255    1.721348
     26          1           0        2.574948   -2.490435   -0.813712
     27          1           0        0.191947   -2.664181   -1.511221
     28          1           0        3.884962   -0.136327    1.765854
     29          1           0        4.158037   -1.708139    1.008958
     30          1           0        5.647350   -0.046801    0.002805
     31          1           0        4.487875   -0.603393   -1.209003
     32          1           0        2.886561    1.527118   -0.876809
 ---------------------------------------------------------------------

 SCF Done:  E(UB3LYP) =  -1012.95100957     A.U. after   33 cycles
 SCF Done:  E(UB3LYP) =  -1012.95100957     a.u. after    1 cycles

 The electronic state is 2-A.
 Alpha  occ. eigenvalues --  -88.74828 -14.26200 -14.19503 -10.13887 -10.11307
 Alpha  occ. eigenvalues --  -10.11100 -10.09476 -10.09040 -10.08665 -10.08357
 Alpha  occ. eigenvalues --  -10.07913 -10.07843 -10.07717 -10.07660 -10.07634
 Alpha  occ. eigenvalues --  -10.07477  -7.83516  -5.79880  -5.79549  -5.78906
 Alpha  occ. eigenvalues --   -0.91650  -0.77934  -0.76439  -0.75258  -0.71180
 Alpha  occ. eigenvalues --   -0.65689  -0.65022  -0.61262  -0.57838  -0.56893
 Alpha  occ. eigenvalues --   -0.53042  -0.52399  -0.50539  -0.48412  -0.45812
 Alpha  occ. eigenvalues --   -0.43944  -0.40599  -0.39610  -0.38463  -0.37384
 Alpha  occ. eigenvalues --   -0.35869  -0.34861  -0.34141  -0.33559  -0.33352
 Alpha  occ. eigenvalues --   -0.30627  -0.29773  -0.29567  -0.28099  -0.27723
 Alpha  occ. eigenvalues --   -0.26035  -0.25379  -0.24038  -0.23619  -0.23328
 Alpha  occ. eigenvalues --   -0.22546  -0.22033  -0.20684  -0.17938  -0.14965
 Alpha  occ. eigenvalues --   -0.13637  -0.12527   0.03978
 Alpha virt. eigenvalues --    0.05435   0.06725   0.06960   0.07845   0.08255
 Alpha virt. eigenvalues --    0.08517   0.08683   0.09526   0.09717   0.10096
 Alpha virt. eigenvalues --    0.10288   0.10736   0.11402   0.11965   0.12301

  Beta  occ. eigenvalues --  -88.74825 -14.26140 -14.19508 -10.13848 -10.11278
  Beta  occ. eigenvalues --  -10.11109 -10.09459 -10.09016 -10.08654 -10.08335
  Beta  occ. eigenvalues --  -10.07903 -10.07834 -10.07662 -10.07643 -10.07608
  Beta  occ. eigenvalues --  -10.07478  -7.83512  -5.79871  -5.79547  -5.78903
  Beta  occ. eigenvalues --   -0.91592  -0.77871  -0.76388  -0.75214  -0.71143
  Beta  occ. eigenvalues --   -0.65640  -0.64954  -0.61208  -0.57796  -0.56857
  Beta  occ. eigenvalues --   -0.52976  -0.52321  -0.50469  -0.48347  -0.45757
  Beta  occ. eigenvalues --   -0.43879  -0.40546  -0.39573  -0.38408  -0.37354
  Beta  occ. eigenvalues --   -0.35818  -0.34761  -0.34092  -0.33526  -0.33308
  Beta  occ. eigenvalues --   -0.30581  -0.29751  -0.29518  -0.28069  -0.27670
  Beta  occ. eigenvalues --   -0.26003  -0.25341  -0.23959  -0.23583  -0.23282
  Beta  occ. eigenvalues --   -0.22512  -0.21981  -0.20590  -0.17934  -0.14947
  Beta  occ. eigenvalues --   -0.13491  -0.12382
  Beta virt. eigenvalues --    0.06085   0.06628   0.07004   0.07728   0.08026
  Beta virt. eigenvalues --    0.08535   0.08684   0.08929   0.09671   0.10094
  Beta virt. eigenvalues --    0.10261   0.10375   0.11026   0.11615   0.12041

 Mulliken charges and spin densities:
               1          2
     1  C    0.038200  -0.271107
     2  C    0.349941  -0.957473
     3  C   -0.386674   0.927368
     4  C    0.001413  -0.599402
     5  C   -0.451515   0.456578
     6  N   -0.006480  -0.071503
     7  C   -0.427735   0.020144
     8  C    2.625823  -2.237551
     9  N   -0.204926   0.013823
    10  C   -0.617720  -0.130155
    11  C    0.900232  -0.260258
    12  C   -0.673471   0.387690
    13  C   -0.867065   0.657674
    14  C    0.336604  -0.479503
    15  C    0.317578  -0.896585
    16  S   -0.094915   0.004403
    17  H   -0.086551   0.215119
    18  H    0.141092  -0.018308
    19  H   -0.081979   0.219653
    20  H    0.093964   0.074084
    21  H   -1.057954   1.302743
    22  H    0.126093   0.040931
    23  H    0.062721   0.064970
    24  H   -0.306967   0.638680
    25  H   -0.431234   0.584949
    26  H   -0.061939   0.211189
    27  H    0.087630   0.057495
    28  H   -0.011433   0.169446
    29  H   -0.126041   0.285651
    30  H   -0.348516   0.551387
    31  H    0.130391   0.044944
    32  H    0.031433  -0.007079
 Sum of Mulliken charges =  -1.00000   1.00000

 Dipole moment (field-independent basis, Debye):
    X=              0.2312    Y=             -3.5024    Z=             -4.4522  Tot=              5.6694
 Quadrupole moment (field-independent basis, Debye-Ang):
   XX=           -198.9422   YY=           -141.7464   ZZ=           -137.9050
   XY=              6.5037   XZ=             10.2582   YZ=             -7.8695

 Summary of Natural Population Analysis:

                                       Natural Population
                Natural  -----------------------------------------------
    Atom  No    Charge         Core      Valence    Rydberg      Total
 -----------------------------------------------------------------------
      C    1   -0.19310      0.99965     2.18568    0.00778     3.19310
      C    2   -0.17829      0.99963     2.17006    0.00860     3.17829
      C    3   -0.13454      0.99957     2.12094    0.01404     3.13454
      C    4   -0.17812      0.99963     2.17022    0.00827     3.17812
      C    5    0.21960      0.99959     1.76321    0.01760     2.78040
      N    6   -0.26680      0.99967     2.75931    0.00781     3.76680
      C    7    0.05650      0.99946     1.93021    0.01383     2.94350
      C    8    0.06406      0.99946     1.92489    0.01159     2.93594
      N    9   -0.27104      0.99962     2.76174    0.00967     3.77104
      C   10   -0.10868      0.99947     2.09948    0.00973     3.10868
      C   11   -0.02298      0.99952     2.01256    0.01090     3.02298
      C   12   -0.11420      0.99952     2.10624    0.00843     3.11420
      C   13   -0.09485      0.99952     2.08698    0.00834     3.09485
      C   14   -0.20286      0.99958     2.19197    0.01131     3.20286
      C   15   -0.23880      0.99958     2.22904    0.01018     3.23880
      S   16   -0.03215      4.99966     3.01757    0.01492     8.03215
      H   17    0.09612      0.00000     0.40269    0.00119     0.40388
      H   18    0.09251      0.00000     0.40674    0.00074     0.40749
      H   19    0.09848      0.00000     0.40045    0.00107     0.40152
      H   20    0.10346      0.00000     0.39525    0.00129     0.39654
      H   21    0.11019      0.00000     0.38468    0.00513     0.38981
      H   22    0.10326      0.00000     0.39552    0.00122     0.39674
      H   23    0.09621      0.00000     0.40299    0.00080     0.40379
      H   24    0.21172      0.00000     0.27585    0.01243     0.28828
      H   25    0.10711      0.00000     0.39145    0.00144     0.39289
      H   26    0.09712      0.00000     0.40192    0.00096     0.40288
      H   27    0.10125      0.00000     0.39754    0.00122     0.39875
      H   28    0.10459      0.00000     0.39403    0.00138     0.39541
      H   29    0.10417      0.00000     0.39443    0.00140     0.39583
      H   30    0.10501      0.00000     0.39307    0.00191     0.39499
      H   31    0.09948      0.00000     0.39919    0.00133     0.40052
      H   32    0.06556      0.00000     0.43152    0.00292     0.43444
 =======================================================================
   * Total *    0.00000     19.99314    41.79742    0.20944    62.00000

 Normal termination of Gaussian 16 at Thu Dec 10 23:07:54 2020.
