 Gaussian 16, Revision A.03,

 -----------------------------------------------------------
 # opt freq B3LYP/6-31G(d) empiricaldispersion=gd3bj scf=xqc
 -----------------------------------------------------------

 ------------------------------
 CID_43132771_JID_6833_neutraal
 ------------------------------
 Symbolic Z-matrix:
 Charge =  0 Multiplicity = 1

 SCF Done:  E(RB3LYP) =  -1011.56488202     A.U. after   14 cycles
 SCF Done:  E(RB3LYP) =  -1011.56907159     A.U. after   12 cycles
 SCF Done:  E(RB3LYP) =  -1011.56913784     A.U. after   12 cycles
 SCF Done:  E(RB3LYP) =  -1011.56979120     A.U. after   11 cycles
 SCF Done:  E(RB3LYP) =  -1011.56993832     A.U. after   12 cycles
 SCF Done:  E(RB3LYP) =  -1011.57014470     A.U. after   12 cycles
 SCF Done:  E(RB3LYP) =  -1011.57024311     A.U. after   11 cycles
 SCF Done:  E(RB3LYP) =  -1011.57029573     A.U. after   10 cycles
 SCF Done:  E(RB3LYP) =  -1011.57030751     A.U. after   10 cycles
 SCF Done:  E(RB3LYP) =  -1011.57031934     A.U. after   10 cycles
 SCF Done:  E(RB3LYP) =  -1011.57033136     A.U. after   10 cycles
 SCF Done:  E(RB3LYP) =  -1011.57033738     A.U. after   10 cycles
 SCF Done:  E(RB3LYP) =  -1011.57033971     A.U. after    9 cycles
 SCF Done:  E(RB3LYP) =  -1011.57034056     A.U. after    8 cycles
 SCF Done:  E(RB3LYP) =  -1011.57034062     A.U. after    7 cycles
 Optimization completed.
    -- Stationary point found.
 Normal termination of Gaussian 16 at Fri Dec 11 00:51:21 2020.

 --------------------------------------------------------------------
 #N Geom=AllCheck Guess=TCheck SCRF=Check GenChk RB3LYP/6-31G(d) Freq
 --------------------------------------------------------------------

 Structure from the checkpoint file:  "JID_6833.chk"
 ------------------------------
 CID_43132771_JID_6833_neutraal
 ------------------------------
 Charge =  0 Multiplicity = 1

 SCF Done:  E(RB3LYP) =  -1011.57034062     A.U. after    1 cycles

  Exact polarizability: 273.953  -1.549 170.808  -4.979   5.926  86.180
 Approx polarizability: 373.962  -3.370 294.868  -8.333  12.604 135.522

                      1                      2                      3
                      A                      A                      A
 Frequencies --     21.2413                27.2198                42.9157
 Red. masses --      5.5335                 3.5196                 4.8601
 Frc consts  --      0.0015                 0.0015                 0.0053
 IR Inten    --      1.2904                 1.6784                 1.0296

                      4                      5                      6
                      A                      A                      A
 Frequencies --     82.3472               143.3949               165.3317
 Red. masses --      4.7479                 4.3048                 3.2567
 Frc consts  --      0.0190                 0.0522                 0.0524
 IR Inten    --      0.2917                 0.6297                 1.4531

                      7                      8                      9
                      A                      A                      A
 Frequencies --    212.5989               226.7800               235.9973
 Red. masses --      4.0221                 3.8312                 2.8288
 Frc consts  --      0.1071                 0.1161                 0.0928
 IR Inten    --      2.5184                 4.6046                 3.3613

                     10                     11                     12
                      A                      A                      A
 Frequencies --    250.1679               282.0072               300.3917
 Red. masses --      1.3767                 4.6821                 1.3847
 Frc consts  --      0.0508                 0.2194                 0.0736
 IR Inten    --      0.3186                 1.4351                11.9147

                     13                     14                     15
                      A                      A                      A
 Frequencies --    310.2351               345.2212               359.4292
 Red. masses --      2.4380                 1.0880                 5.2845
 Frc consts  --      0.1383                 0.0764                 0.4022
 IR Inten    --      8.5853               156.2079                 1.5710

                     16                     17                     18
                      A                      A                      A
 Frequencies --    419.1945               442.9283               444.9978
 Red. masses --      3.9635                 4.6949                 3.2182
 Frc consts  --      0.4104                 0.5427                 0.3755
 IR Inten    --      0.1065                 0.5186                 3.0576

                     19                     20                     21
                      A                      A                      A
 Frequencies --    457.4836               541.1203               571.2736
 Red. masses --      3.1351                 6.4754                 4.8616
 Frc consts  --      0.3866                 1.1171                 0.9348
 IR Inten    --     10.6758                 6.3674                 7.3847

                     22                     23                     24
                      A                      A                      A
 Frequencies --    589.9242               595.2316               645.6081
 Red. masses --      2.4333                 5.2893                 2.5063
 Frc consts  --      0.4989                 1.1041                 0.6155
 IR Inten    --    139.4677                 7.9929               132.1689

                     25                     26                     27
                      A                      A                      A
 Frequencies --    664.6177               697.6499               701.6669
 Red. masses --      3.5223                 2.1342                 3.0912
 Frc consts  --      0.9167                 0.6120                 0.8967
 IR Inten    --     84.0170                22.4763                 1.1567

                     28                     29                     30
                      A                      A                      A
 Frequencies --    721.1390               738.4708               757.0677
 Red. masses --      4.3054                 5.4536                 1.9736
 Frc consts  --      1.3192                 1.7523                 0.6665
 IR Inten    --      4.2183                 1.6880                19.2494

                     31                     32                     33
                      A                      A                      A
 Frequencies --    782.3692               787.1791               832.7567
 Red. masses --      1.4683                 2.4694                 1.4722
 Frc consts  --      0.5295                 0.9015                 0.6015
 IR Inten    --     62.6582                 8.4571                 3.5593

                     34                     35                     36
                      A                      A                      A
 Frequencies --    841.0865               852.8120               892.5913
 Red. masses --      1.5544                 1.5249                 1.3545
 Frc consts  --      0.6479                 0.6534                 0.6358
 IR Inten    --      9.7213                26.2484                 3.6602

                     37                     38                     39
                      A                      A                      A
 Frequencies --    918.4901               948.8778               971.3722
 Red. masses --      4.5879                 1.2407                 1.2526
 Frc consts  --      2.2804                 0.6582                 0.6964
 IR Inten    --     22.4461                 0.1070                 1.3779

                     40                     41                     42
                      A                      A                      A
 Frequencies --    991.0892              1000.7883              1010.5002
 Red. masses --      1.1832                 1.5470                 3.6380
 Frc consts  --      0.6848                 0.9129                 2.1887
 IR Inten    --      6.1410                22.7693                 3.9969

                     43                     44                     45
                      A                      A                      A
 Frequencies --   1013.8589              1017.7794              1110.1745
 Red. masses --      5.6367                 2.6261                 1.6423
 Frc consts  --      3.4137                 1.6028                 1.1926
 IR Inten    --      2.3803                15.0003                 2.4364

                     46                     47                     48
                      A                      A                      A
 Frequencies --   1119.1498              1139.0768              1150.6833
 Red. masses --      2.1192                 1.6139                 1.3053
 Frc consts  --      1.5639                 1.2338                 1.0183
 IR Inten    --     26.0489                13.9781                 1.1128

                     49                     50                     51
                      A                      A                      A
 Frequencies --   1201.1866              1210.3391              1233.6631
 Red. masses --      1.1044                 1.1241                 2.1512
 Frc consts  --      0.9388                 0.9702                 1.9290
 IR Inten    --     33.1045                 9.9949                56.6977

                     52                     53                     54
                      A                      A                      A
 Frequencies --   1284.9952              1312.3821              1354.9149
 Red. masses --      1.9674                 2.2474                 1.7331
 Frc consts  --      1.9141                 2.2806                 1.8745
 IR Inten    --     35.4453                22.8001                42.3002

                     55                     56                     57
                      A                      A                      A
 Frequencies --   1364.4888              1373.4068              1389.0420
 Red. masses --      1.9022                 2.9644                 1.3391
 Frc consts  --      2.0867                 3.2945                 1.5222
 IR Inten    --      8.7577                41.4640                12.2402

                     58                     59                     60
                      A                      A                      A
 Frequencies --   1392.3058              1440.3078              1499.1700
 Red. masses --      2.9418                 2.4482                 1.0519
 Frc consts  --      3.3599                 2.9924                 1.3929
 IR Inten    --     61.4857                11.2859                 8.8431

                     61                     62                     63
                      A                      A                      A
 Frequencies --   1515.0177              1520.9761              1536.0627
 Red. masses --      1.4639                 1.8850                 2.1830
 Frc consts  --      1.9796                 2.5693                 3.0347
 IR Inten    --    117.5126                57.4957                93.0960

                     64                     65                     66
                      A                      A                      A
 Frequencies --   1543.7752              1577.8942              1636.5725
 Red. masses --      2.3071                 2.2950                 5.2460
 Frc consts  --      3.2396                 3.3666                 8.2784
 IR Inten    --     57.9638               221.0115                79.6922

                     67                     68                     69
                      A                      A                      A
 Frequencies --   1648.5272              1654.3787              1673.7033
 Red. masses --      5.3124                 4.6190                 3.8293
 Frc consts  --      8.5061                 7.4484                 6.3201
 IR Inten    --    538.9335                33.5080                61.9609

                     70                     71                     72
                      A                      A                      A
 Frequencies --   1695.8143              3062.9870              3144.8805
 Red. masses --      1.2751                 1.0303                 1.1081
 Frc consts  --      2.1605                 5.6951                 6.4572
 IR Inten    --    133.5523                19.6057                10.5010

                     73                     74                     75
                      A                      A                      A
 Frequencies --   3159.5995              3177.8413              3186.9121
 Red. masses --      1.1036                 1.0854                 1.0904
 Frc consts  --      6.4912                 6.4581                 6.5251
 IR Inten    --      5.8282                 2.9516                25.3855

                     76                     77                     78
                      A                      A                      A
 Frequencies --   3187.1582              3202.5530              3204.9709
 Red. masses --      1.0868                 1.0964                 1.0932
 Frc consts  --      6.5043                 6.6251                 6.6158
 IR Inten    --     12.1506                33.4520                20.2216

                     79                     80                     81
                      A                      A                      A
 Frequencies --   3206.3743              3209.0949              3236.9055
 Red. masses --      1.0890                 1.0904                 1.0921
 Frc consts  --      6.5965                 6.6161                 6.7419
 IR Inten    --      3.4819                 2.5038                 3.8892

                     82                     83                     84
                      A                      A                      A
 Frequencies --   3548.9571              3621.8981              3647.6633
 Red. masses --      1.0479                 1.0756                 1.0979
 Frc consts  --      7.7762                 8.3134                 8.6070
 IR Inten    --     10.7042                16.0977                 6.7962

 - Thermochemistry -
 -------------------
 Temperature   298.150 Kelvin.  Pressure   1.00000 Atm.
 Atom     1 has atomic number  6 and mass  12.00000

 Molecular mass:   230.08777 amu.
 Principal axes and moments of inertia in atomic units:
                           1         2         3
     Eigenvalues --  1547.404839043.85737**********
           X            0.99996   0.00901  -0.00000
           Y           -0.00901   0.99996   0.00109
           Z            0.00001  -0.00109   1.00000
 This molecule is an asymmetric top.
 Rotational symmetry number  1.
 Warning -- assumption of classical behavior for rotation
           may cause significant error
 Rotational temperatures (Kelvin)      0.05597     0.00958     0.00864
 Rotational constants (GHZ):           1.16630     0.19955     0.18001
 Zero-point vibrational energy     641383.9 (Joules/Mol)
                                  153.29442 (Kcal/Mol)
 Warning -- explicit consideration of  23 degrees of freedom as
           vibrations may cause significant error
 Vibrational temperatures:     30.56    39.16    61.75   118.48   206.31
          (Kelvin)            237.88   305.88   326.29   339.55   359.94
                              405.75   432.20   446.36   496.70   517.14
                              603.13   637.28   640.25   658.22   778.55
                              821.94   848.77   856.41   928.89   956.24
                             1003.76  1009.54  1037.56  1062.49  1089.25
                             1125.65  1132.58  1198.15  1210.14  1227.01
                             1284.24  1321.50  1365.22  1397.59  1425.96
                             1439.91  1453.88  1458.72  1464.36  1597.29
                             1610.21  1638.88  1655.58  1728.24  1741.41
                             1774.97  1848.82  1888.23  1949.42  1963.19
                             1976.03  1998.52  2003.22  2072.28  2156.97
                             2179.77  2188.35  2210.05  2221.15  2270.24
                             2354.66  2371.86  2380.28  2408.09  2439.90
                             4406.96  4524.78  4545.96  4572.20  4585.26
                             4585.61  4607.76  4611.24  4613.26  4617.17
                             4657.19  5106.16  5211.10  5248.17

 Zero-point correction=                           0.244290 (Hartree/Particle)
 Thermal correction to Energy=                    0.259390
 Thermal correction to Enthalpy=                  0.260334
 Thermal correction to Gibbs Free Energy=         0.200336
 Sum of electronic and zero-point Energies=          -1011.326050
 Sum of electronic and thermal Energies=             -1011.310951
 Sum of electronic and thermal Enthalpies=           -1011.310007
 Sum of electronic and thermal Free Energies=        -1011.370005

                     E (Thermal)             CV                S
                      KCal/Mol        Cal/Mol-Kelvin    Cal/Mol-Kelvin
 Total                  162.769             58.623            126.277
 Electronic               0.000              0.000              0.000
 Translational            0.889              2.981             42.202
 Rotational               0.889              2.981             33.306
 Vibrational            160.992             52.662             50.769
 Vibration     1          0.593              1.985              6.515
 Vibration     2          0.593              1.984              6.022
 Vibration     3          0.595              1.980              5.120
 Vibration     4          0.600              1.961              3.834
 Vibration     5          0.616              1.910              2.758
 Vibration     6          0.624              1.885              2.488
 Vibration     7          0.644              1.822              2.021
 Vibration     8          0.650              1.800              1.904
 Vibration     9          0.655              1.786              1.833
 Vibration    10          0.663              1.762              1.729
 Vibration    11          0.681              1.707              1.521
 Vibration    12          0.693              1.673              1.415
 Vibration    13          0.699              1.654              1.361
 Vibration    14          0.724              1.585              1.188
 Vibration    15          0.734              1.556              1.125
 Vibration    16          0.782              1.429              0.895
 Vibration    17          0.803              1.376              0.817
 Vibration    18          0.804              1.372              0.811
 Vibration    19          0.816              1.344              0.773
 Vibration    20          0.896              1.159              0.563
 Vibration    21          0.927              1.093              0.502
 Vibration    22          0.947              1.053              0.467
 Vibration    23          0.953              1.042              0.458

                           ! Non-Optimized Parameters !
 Normal termination of Gaussian 16 at Fri Dec 11 01:00:33 2020.

 ----------------------------------------------------------------------
 # B3LYP/6-311++G(d,p) empiricaldispersion=gd3bj scf=xqc pop=npa geom=c
 heck
 ----------------------------------------------------------------------

 --------------------------------------
 CID_43132771_JID_6833_Energie_neutraal
 --------------------------------------
 Structure from the checkpoint file:  "JID_6833.chk"
 Charge =  0 Multiplicity = 1

 SCF Done:  E(RB3LYP) =  -1011.76682566     A.U. after   16 cycles
 Normal termination of Gaussian 16 at Fri Dec 11 01:04:33 2020.

 ----------------------------------------------------------------------
 # B3LYP/6-311++G(d,p) empiricaldispersion=gd3bj scf=xqc pop=npa geom=c
 heck
 ----------------------------------------------------------------------

 ------------------------------------
 CID_43132771_JID_6833_Energie_kation
 ------------------------------------
 Structure from the checkpoint file:  "JID_6833.chk"
 Charge =  1 Multiplicity = 2

 SCF Done:  E(UB3LYP) =  -1011.51781484     A.U. after   27 cycles
 Normal termination of Gaussian 16 at Fri Dec 11 01:13:41 2020.
 Gaussian 16:  ES64L-G16RevA.03 25-Dec-2016

 ----------------------------------------------------------------------
 # B3LYP/6-311++G(d,p) empiricaldispersion=gd3bj scf=xqc pop=npa geom=c
 heck
 ----------------------------------------------------------------------

 -----------------------------------
 CID_43132771_JID_6833_Energie_anion
 -----------------------------------
 Structure from the checkpoint file:  "JID_6833.chk"
 Charge = -1 Multiplicity = 2

                         Standard orientation:
 ---------------------------------------------------------------------
 Center     Atomic      Atomic             Coordinates (Angstroms)
 Number     Number       Type             X           Y           Z
 ---------------------------------------------------------------------
      1          6           0       -4.400046   -1.818007    0.790001
      2         16           0       -4.556764   -0.061776    0.339184
      3          6           0       -2.888886    0.403198   -0.081877
      4          6           0       -2.695746    1.732841   -0.489743
      5          6           0       -1.417885    2.156976   -0.837517
      6          6           0       -0.323878    1.294118   -0.790528
      7          6           0       -0.509498   -0.029811   -0.365821
      8          6           0       -1.800167   -0.465363   -0.012569
      9          7           0        0.528244   -0.962098   -0.320399
     10          6           0        1.904555   -0.746606   -0.200363
     11          6           0        2.778281   -1.747250   -0.658110
     12          6           0        4.151486   -1.578819   -0.508950
     13          6           0        4.681123   -0.431198    0.074063
     14          6           0        3.812986    0.570048    0.539416
     15          6           0        2.427953    0.400203    0.410356
     16          7           0        4.323723    1.748490    1.092380
     17          1           0       -5.408413   -2.151802    1.046042
     18          1           0       -3.751097   -1.953016    1.659643
     19          1           0       -4.031804   -2.415032   -0.048802
     20          1           0       -3.537426    2.417020   -0.537150
     21          1           0       -1.268501    3.180559   -1.170457
     22          1           0        0.655213    1.631579   -1.106645
     23          1           0       -1.923560   -1.488767    0.325191
     24          1           0        0.249644   -1.928501   -0.406325
     25          1           0        2.376909   -2.636799   -1.135996
     26          1           0        4.824176   -2.354852   -0.864209
     27          1           0        5.756042   -0.302272    0.167047
     28          1           0        1.757989    1.155027    0.807237
     29          1           0        5.238460    1.651470    1.515472
     30          1           0        3.685159    2.237085    1.708003
 ---------------------------------------------------------------------

 SCF Done:  E(UB3LYP) =  -1011.75785184     A.U. after   32 cycles

 The electronic state is 2-A.
 Alpha  occ. eigenvalues --  -88.76175 -14.24580 -14.22436 -10.13246 -10.12648
 Alpha  occ. eigenvalues --  -10.12252 -10.12128 -10.10528 -10.09140 -10.08351
 Alpha  occ. eigenvalues --  -10.08310 -10.08262 -10.07888 -10.07065 -10.07009
 Alpha  occ. eigenvalues --  -10.06928  -7.84778  -5.81181  -5.80780  -5.80175
 Alpha  occ. eigenvalues --   -0.86317  -0.82685  -0.77381  -0.74048  -0.70923
 Alpha  occ. eigenvalues --   -0.66942  -0.64974  -0.64426  -0.62322  -0.56882
 Alpha  occ. eigenvalues --   -0.54051  -0.52356  -0.51011  -0.48653  -0.44351
 Alpha  occ. eigenvalues --   -0.43754  -0.41435  -0.41175  -0.38944  -0.37771
 Alpha  occ. eigenvalues --   -0.35899  -0.35463  -0.34926  -0.34201  -0.33641
 Alpha  occ. eigenvalues --   -0.32967  -0.30923  -0.30665  -0.29151  -0.28795
 Alpha  occ. eigenvalues --   -0.27918  -0.26361  -0.26247  -0.25124  -0.23462
 Alpha  occ. eigenvalues --   -0.21491  -0.19426  -0.16802  -0.12967  -0.12088
 Alpha  occ. eigenvalues --   -0.10170   0.03780
 Alpha virt. eigenvalues --    0.05048   0.06345   0.06899   0.07111   0.07361
 Alpha virt. eigenvalues --    0.07608   0.08533   0.08981   0.09205   0.09490
 Alpha virt. eigenvalues --    0.10278   0.10562   0.10849   0.11540   0.12161

  Beta  occ. eigenvalues --  -88.76168 -14.24562 -14.22385 -10.13239 -10.12642
  Beta  occ. eigenvalues --  -10.12251 -10.12129 -10.10460 -10.09138 -10.08346
  Beta  occ. eigenvalues --  -10.08290 -10.08257 -10.07884 -10.07047 -10.06999
  Beta  occ. eigenvalues --  -10.06912  -7.84772  -5.81168  -5.80765  -5.80171
  Beta  occ. eigenvalues --   -0.86282  -0.82624  -0.77362  -0.74015  -0.70880
  Beta  occ. eigenvalues --   -0.66918  -0.64928  -0.64386  -0.62286  -0.56814
  Beta  occ. eigenvalues --   -0.54020  -0.52307  -0.50975  -0.48617  -0.44293
  Beta  occ. eigenvalues --   -0.43725  -0.41400  -0.41128  -0.38900  -0.37735
  Beta  occ. eigenvalues --   -0.35864  -0.35421  -0.34900  -0.34136  -0.33612
  Beta  occ. eigenvalues --   -0.32935  -0.30885  -0.30620  -0.29121  -0.28770
  Beta  occ. eigenvalues --   -0.27890  -0.26337  -0.26218  -0.25089  -0.23404
  Beta  occ. eigenvalues --   -0.21459  -0.19403  -0.16764  -0.12930  -0.12048
  Beta  occ. eigenvalues --   -0.10143
  Beta virt. eigenvalues --    0.06109   0.06406   0.06730   0.07022   0.07294
  Beta virt. eigenvalues --    0.07460   0.08196   0.08757   0.09228   0.09506
  Beta virt. eigenvalues --    0.09773   0.10496   0.10889   0.11059   0.11856

 Mulliken charges and spin densities:
               1          2
     1  C    0.582352  -1.003943
     2  S   -0.313644  -0.518723
     3  C    0.286810   0.275408
     4  C   -0.453735   0.206758
     5  C   -0.738368   0.368187
     6  C    0.074346  -0.230217
     7  C    1.156880  -0.822932
     8  C    0.073530  -0.346728
     9  N    0.011797   0.027358
    10  C    0.240476  -0.334608
    11  C   -0.382976  -0.101567
    12  C    0.535464  -0.763388
    13  C   -0.032056  -0.107430
    14  C   -1.028184   0.862968
    15  C    0.534604  -0.328669
    16  N   -0.210200  -0.089678
    17  H   -0.384635   0.578949
    18  H   -0.225998   0.411942
    19  H   -0.428205   0.623852
    20  H    0.144578   0.013989
    21  H    0.083060   0.068855
    22  H    0.217876  -0.041462
    23  H    0.183196  -0.029401
    24  H   -0.158738   0.435195
    25  H   -0.340786   0.475739
    26  H    0.065036   0.088821
    27  H   -0.226723   0.361440
    28  H    0.132015   0.029632
    29  H   -0.296151   0.549162
    30  H   -0.101619   0.340490
 Sum of Mulliken charges =  -1.00000   1.00000

 Dipole moment (field-independent basis, Debye):
    X=             -1.2631    Y=              3.3883    Z=             -2.2774  Tot=              4.2735
 Quadrupole moment (field-independent basis, Debye-Ang):
   XX=           -210.6299   YY=           -146.3851   ZZ=           -133.3104
   XY=            -25.4862   XZ=             -5.2407   YZ=             -3.0517

 Summary of Natural Population Analysis:

                                       Natural Population
                Natural  -----------------------------------------------
    Atom  No    Charge         Core      Valence    Rydberg      Total
 -----------------------------------------------------------------------
      C    1   -0.35335      0.99963     2.34721    0.00651     3.35335
      S    2    0.12806      4.99954     2.85177    0.02064     7.87194
      C    3   -0.07878      0.99942     2.06650    0.01285     3.07878
      C    4   -0.13048      0.99951     2.12154    0.00944     3.13048
      C    5   -0.08863      0.99957     2.07996    0.00910     3.08863
      C    6   -0.13493      0.99952     2.12763    0.00777     3.13493
      C    7    0.09784      0.99948     1.89110    0.01158     2.90216
      C    8   -0.13547      0.99946     2.12539    0.01062     3.13547
      N    9   -0.29749      0.99964     2.78691    0.01094     3.79749
      C   10    0.09577      0.99949     1.89338    0.01136     2.90423
      C   11   -0.14005      0.99953     2.13058    0.00995     3.14005
      C   12   -0.08533      0.99957     2.07678    0.00897     3.08533
      C   13   -0.14278      0.99952     2.13313    0.01013     3.14278
      C   14    0.09329      0.99950     1.89606    0.01115     2.90671
      C   15   -0.14774      0.99948     2.14015    0.00811     3.14774
      N   16   -0.39521      0.99972     2.88509    0.01041     3.89521
      H   17    0.11173      0.00000     0.38701    0.00125     0.38827
      H   18    0.10586      0.00000     0.39221    0.00193     0.39414
      H   19    0.10851      0.00000     0.38884    0.00266     0.39149
      H   20    0.10118      0.00000     0.39791    0.00091     0.39882
      H   21    0.09891      0.00000     0.40037    0.00072     0.40109
      H   22    0.10829      0.00000     0.39041    0.00130     0.39171
      H   23    0.10659      0.00000     0.39113    0.00228     0.39341
      H   24    0.19583      0.00000     0.30014    0.00403     0.30417
      H   25    0.10157      0.00000     0.39727    0.00116     0.39843
      H   26    0.09837      0.00000     0.40087    0.00076     0.40163
      H   27    0.09990      0.00000     0.39909    0.00100     0.40010
      H   28    0.10537      0.00000     0.39304    0.00159     0.39463
      H   29    0.18753      0.00000     0.30808    0.00439     0.31247
      H   30    0.18562      0.00000     0.31216    0.00221     0.31438
 =======================================================================
   * Total *    0.00000     19.99257    40.81173    0.19571    61.00000

 Normal termination of Gaussian 16 at Fri Dec 11 01:24:48 2020.
