 Gaussian 16, Revision A.03,

 -----------------------------------------------------------
 # opt freq B3LYP/6-31G(d) empiricaldispersion=gd3bj scf=xqc
 -----------------------------------------------------------

 -------------------------------
 CID_131254161_JID_3397_neutraal
 -------------------------------
 Symbolic Z-matrix:
 Charge =  0 Multiplicity = 1

 SCF Done:  E(RB3LYP) =  -952.820465241     A.U. after   14 cycles
 SCF Done:  E(RB3LYP) =  -952.827298300     A.U. after   12 cycles
 SCF Done:  E(RB3LYP) =  -952.828328758     A.U. after   12 cycles
 SCF Done:  E(RB3LYP) =  -952.828752257     A.U. after   12 cycles
 SCF Done:  E(RB3LYP) =  -952.829322224     A.U. after   12 cycles
 SCF Done:  E(RB3LYP) =  -952.829934561     A.U. after   12 cycles
 SCF Done:  E(RB3LYP) =  -952.830351172     A.U. after   12 cycles
 SCF Done:  E(RB3LYP) =  -952.830249738     A.U. after   12 cycles
 SCF Done:  E(RB3LYP) =  -952.830794949     A.U. after   12 cycles
 SCF Done:  E(RB3LYP) =  -952.830913150     A.U. after   11 cycles
 SCF Done:  E(RB3LYP) =  -952.831036657     A.U. after    9 cycles
 SCF Done:  E(RB3LYP) =  -952.831039173     A.U. after    8 cycles
 SCF Done:  E(RB3LYP) =  -952.831039974     A.U. after    8 cycles
 SCF Done:  E(RB3LYP) =  -952.831041121     A.U. after    8 cycles
 SCF Done:  E(RB3LYP) =  -952.831041494     A.U. after    8 cycles
 SCF Done:  E(RB3LYP) =  -952.831041595     A.U. after    7 cycles
 Optimization completed.
    -- Stationary point found.
 Normal termination of Gaussian 16 at Wed Dec  9 23:13:08 2020.

 --------------------------------------------------------------------
 #N Geom=AllCheck Guess=TCheck SCRF=Check GenChk RB3LYP/6-31G(d) Freq
 --------------------------------------------------------------------

 Structure from the checkpoint file:  "JID_3397.chk"
 -------------------------------
 CID_131254161_JID_3397_neutraal
 -------------------------------
 Charge =  0 Multiplicity = 1

 SCF Done:  E(RB3LYP) =  -952.831041595     A.U. after    1 cycles

  Exact polarizability: 137.127  -0.296 114.298   7.291   1.422 113.897
 Approx polarizability: 181.732   1.320 164.681  10.460   9.560 177.596

                      1                      2                      3
                      A                      A                      A
 Frequencies --     20.9245                57.4264                62.7854
 Red. masses --      4.0258                 3.4998                 4.0741
 Frc consts  --      0.0010                 0.0068                 0.0095
 IR Inten    --      1.1406                 0.4955                 2.6659

                      4                      5                      6
                      A                      A                      A
 Frequencies --     76.8104                93.3056               140.1977
 Red. masses --      3.4184                 5.4767                 2.8151
 Frc consts  --      0.0119                 0.0281                 0.0326
 IR Inten    --      0.1656                 0.7020                 6.0916

                      7                      8                      9
                      A                      A                      A
 Frequencies --    163.0014               186.9511               227.2824
 Red. masses --      2.0097                 3.6970                 2.2890
 Frc consts  --      0.0315                 0.0761                 0.0697
 IR Inten    --      1.6140                 2.3168                 0.6779

                     10                     11                     12
                      A                      A                      A
 Frequencies --    247.1082               253.1183               268.8260
 Red. masses --      1.0803                 1.1060                 1.4623
 Frc consts  --      0.0389                 0.0417                 0.0623
 IR Inten    --     73.9114                 0.1653                 1.5460

                     13                     14                     15
                      A                      A                      A
 Frequencies --    285.8492               330.0289               349.9710
 Red. masses --      2.8829                 4.0302                 3.8322
 Frc consts  --      0.1388                 0.2586                 0.2765
 IR Inten    --      2.6850                 1.0043                 3.9313

                     16                     17                     18
                      A                      A                      A
 Frequencies --    395.7993               425.0812               472.9661
 Red. masses --      3.5418                 5.6045                 3.8693
 Frc consts  --      0.3269                 0.5967                 0.5100
 IR Inten    --      3.8873                14.4287                 0.8759

                     19                     20                     21
                      A                      A                      A
 Frequencies --    510.3761               525.4922               538.1859
 Red. masses --      1.7492                 1.9921                 3.9437
 Frc consts  --      0.2684                 0.3241                 0.6730
 IR Inten    --     14.7724                51.3972                25.8273

                     22                     23                     24
                      A                      A                      A
 Frequencies --    592.7986               632.4237               668.5528
 Red. masses --      3.4554                 1.3579                 4.4514
 Frc consts  --      0.7154                 0.3200                 1.1723
 IR Inten    --     10.6716               106.6807                 4.2947

                     25                     26                     27
                      A                      A                      A
 Frequencies --    729.7387               759.5220               777.7046
 Red. masses --      3.2388                 7.2280                 1.2635
 Frc consts  --      1.0162                 2.4567                 0.4503
 IR Inten    --     13.2438                51.0672                 0.5883

                     28                     29                     30
                      A                      A                      A
 Frequencies --    782.9738               834.3082               891.5406
 Red. masses --      3.5973                 2.3399                 1.4643
 Frc consts  --      1.2993                 0.9596                 0.6857
 IR Inten    --     39.5018                13.4632                97.7234

                     31                     32                     33
                      A                      A                      A
 Frequencies --    921.3931               960.3947               976.5179
 Red. masses --      2.2891                 2.9094                 1.9010
 Frc consts  --      1.1450                 1.5811                 1.0680
 IR Inten    --      3.8232                12.5614                 1.0082

                     34                     35                     36
                      A                      A                      A
 Frequencies --    992.4274              1015.3524              1046.0025
 Red. masses --      1.9527                 2.2037                 2.0864
 Frc consts  --      1.1332                 1.3386                 1.3450
 IR Inten    --      8.2992                 8.9731                 1.0563

                     37                     38                     39
                      A                      A                      A
 Frequencies --   1066.8620              1073.8088              1085.7933
 Red. masses --      1.3827                 1.9596                 1.8652
 Frc consts  --      0.9273                 1.3313                 1.2956
 IR Inten    --      0.3653                 8.6921                14.0739

                     40                     41                     42
                      A                      A                      A
 Frequencies --   1123.0311              1142.3356              1158.1086
 Red. masses --      2.4646                 1.7489                 2.1680
 Frc consts  --      1.8314                 1.3446                 1.7132
 IR Inten    --      5.8453                48.9162                16.8212

                     43                     44                     45
                      A                      A                      A
 Frequencies --   1204.2766              1208.8202              1252.6188
 Red. masses --      1.3242                 1.4563                 2.6817
 Frc consts  --      1.1315                 1.2538                 2.4791
 IR Inten    --     18.9577                18.3561                61.4498

                     46                     47                     48
                      A                      A                      A
 Frequencies --   1292.9052              1313.5627              1323.6141
 Red. masses --      1.2030                 1.3280                 1.2919
 Frc consts  --      1.1848                 1.3500                 1.3336
 IR Inten    --      3.6766                44.2490                29.7321

                     49                     50                     51
                      A                      A                      A
 Frequencies --   1328.6816              1367.5386              1382.9834
 Red. masses --      1.2511                 1.5284                 1.1833
 Frc consts  --      1.3014                 1.6841                 1.3334
 IR Inten    --      7.1652                37.5769                 8.4702

                     52                     53                     54
                      A                      A                      A
 Frequencies --   1390.9339              1415.3558              1435.5340
 Red. masses --      1.4782                 1.2891                 1.3630
 Frc consts  --      1.6850                 1.5215                 1.6549
 IR Inten    --     31.5551                 3.1295                18.9499

                     55                     56                     57
                      A                      A                      A
 Frequencies --   1437.7506              1440.1268              1454.4147
 Red. masses --      1.2768                 1.2300                 1.4489
 Frc consts  --      1.5550                 1.5030                 1.8057
 IR Inten    --      9.7331                 6.2705                 1.2254

                     58                     59                     60
                      A                      A                      A
 Frequencies --   1477.2268              1499.4115              1510.8893
 Red. masses --      1.6207                 1.7478                 1.2178
 Frc consts  --      2.0838                 2.3152                 1.6379
 IR Inten    --     30.4740               136.0034                40.9400

                     61                     62                     63
                      A                      A                      A
 Frequencies --   1523.5725              1525.0054              1527.7451
 Red. masses --      1.0441                 1.1365                 1.0913
 Frc consts  --      1.4280                 1.5573                 1.5006
 IR Inten    --      7.4400                16.2980                 2.6649

                     64                     65                     66
                      A                      A                      A
 Frequencies --   1531.0281              1535.7113              1702.7397
 Red. masses --      1.0470                 1.0888                 1.0872
 Frc consts  --      1.4460                 1.5130                 1.8572
 IR Inten    --      2.6201                 0.5214                34.5973

                     67                     68                     69
                      A                      A                      A
 Frequencies --   1817.5734              2994.0672              3013.8894
 Red. masses --      6.8505                 1.0832                 1.0685
 Frc consts  --     13.3338                 5.7209                 5.7187
 IR Inten    --    523.3820                42.4293                47.8930

                     70                     71                     72
                      A                      A                      A
 Frequencies --   3050.1333              3051.3944              3065.9429
 Red. masses --      1.0394                 1.0367                 1.0624
 Frc consts  --      5.6975                 5.6872                 5.8840
 IR Inten    --     37.4478                21.2584                16.0844

                     73                     74                     75
                      A                      A                      A
 Frequencies --   3080.0389              3095.8192              3104.8332
 Red. masses --      1.0909                 1.0914                 1.1026
 Frc consts  --      6.0972                 6.1629                 6.2622
 IR Inten    --     15.1195                24.4304                13.0241

                     76                     77                     78
                      A                      A                      A
 Frequencies --   3110.1575              3117.4834              3130.1208
 Red. masses --      1.1008                 1.1003                 1.0872
 Frc consts  --      6.2737                 6.3004                 6.2757
 IR Inten    --     35.1413                26.0864                 8.3058

                     79                     80                     81
                      A                      A                      A
 Frequencies --   3138.6036              3162.9604              3484.0358
 Red. masses --      1.1019                 1.0994                 1.0505
 Frc consts  --      6.3955                 6.4801                 7.5133
 IR Inten    --     21.7102                10.4376                 0.4144

                     82                     83                     84
                      A                      A                      A
 Frequencies --   3565.5926              3610.7110              3626.2630
 Red. masses --      1.0925                 1.0759                 1.0764
 Frc consts  --      8.1831                 8.2643                 8.3394
 IR Inten    --      0.2234                17.4607                26.6419

 - Thermochemistry -
 -------------------
 Temperature   298.150 Kelvin.  Pressure   1.00000 Atm.
 Atom     1 has atomic number  6 and mass  12.00000

 Molecular mass:   203.10923 amu.
 Principal axes and moments of inertia in atomic units:
                           1         2         3
     Eigenvalues --  2335.387283225.960913617.16422
           X            0.99889   0.01058   0.04593
           Y           -0.00428   0.99080  -0.13524
           Z           -0.04693   0.13490   0.98975
 This molecule is an asymmetric top.
 Rotational symmetry number  1.
 Warning -- assumption of classical behavior for rotation
           may cause significant error
 Rotational temperatures (Kelvin)      0.03709     0.02685     0.02395
 Rotational constants (GHZ):           0.77278     0.55944     0.49894
 Zero-point vibrational energy     688840.5 (Joules/Mol)
                                  164.63684 (Kcal/Mol)
 Warning -- explicit consideration of  22 degrees of freedom as
           vibrations may cause significant error
 Vibrational temperatures:     30.11    82.62    90.33   110.51   134.25
          (Kelvin)            201.71   234.52   268.98   327.01   355.53
                              364.18   386.78   411.27   474.84   503.53
                              569.47   611.60   680.49   734.32   756.07
                              774.33   852.90   909.92   961.90  1049.93
                             1092.78  1118.94  1126.52  1200.38  1282.73
                             1325.68  1381.79  1404.99  1427.88  1460.87
                             1504.96  1534.98  1544.97  1562.21  1615.79
                             1643.57  1666.26  1732.69  1739.22  1802.24
                             1860.20  1889.92  1904.39  1911.68  1967.58
                             1989.80  2001.24  2036.38  2065.41  2068.60
                             2072.02  2092.58  2125.40  2157.32  2173.83
                             2192.08  2194.14  2198.08  2202.81  2209.55
                             2449.86  2615.08  4307.79  4336.31  4388.46
                             4390.28  4411.21  4431.49  4454.19  4467.16
                             4474.82  4485.36  4503.55  4515.75  4550.79
                             5012.75  5130.09  5195.01  5217.38

 Zero-point correction=                           0.262366 (Hartree/Particle)
 Thermal correction to Energy=                    0.277199
 Thermal correction to Enthalpy=                  0.278144
 Thermal correction to Gibbs Free Energy=         0.219570
 Sum of electronic and zero-point Energies=           -952.568676
 Sum of electronic and thermal Energies=              -952.553842
 Sum of electronic and thermal Enthalpies=            -952.552898
 Sum of electronic and thermal Free Energies=         -952.611471

                     E (Thermal)             CV                S
                      KCal/Mol        Cal/Mol-Kelvin    Cal/Mol-Kelvin
 Total                  173.945             54.671            123.278
 Electronic               0.000              0.000              0.000
 Translational            0.889              2.981             41.830
 Rotational               0.889              2.981             31.678
 Vibrational            172.168             48.709             49.770
 Vibration     1          0.593              1.986              6.544
 Vibration     2          0.596              1.975              4.544
 Vibration     3          0.597              1.972              4.368
 Vibration     4          0.599              1.965              3.971
 Vibration     5          0.602              1.954              3.590
 Vibration     6          0.615              1.913              2.801
 Vibration     7          0.623              1.888              2.515
 Vibration     8          0.632              1.858              2.258
 Vibration     9          0.651              1.799              1.900
 Vibration    10          0.661              1.768              1.751
 Vibration    11          0.664              1.758              1.709
 Vibration    12          0.673              1.730              1.604
 Vibration    13          0.684              1.700              1.498
 Vibration    14          0.713              1.616              1.260
 Vibration    15          0.727              1.575              1.166
 Vibration    16          0.763              1.479              0.978
 Vibration    17          0.787              1.416              0.875
 Vibration    18          0.830              1.310              0.729
 Vibration    19          0.866              1.227              0.633
 Vibration    20          0.880              1.194              0.597
 Vibration    21          0.893              1.166              0.569
 Vibration    22          0.950              1.047              0.462

                           ! Non-Optimized Parameters !
 Normal termination of Gaussian 16 at Wed Dec  9 23:21:25 2020.

 ----------------------------------------------------------------------
 # B3LYP/6-311++G(d,p) empiricaldispersion=gd3bj scf=xqc pop=npa geom=c
 heck
 ----------------------------------------------------------------------

 ---------------------------------------
 CID_131254161_JID_3397_Energie_neutraal
 ---------------------------------------
 Structure from the checkpoint file:  "JID_3397.chk"
 Charge =  0 Multiplicity = 1

 SCF Done:  E(RB3LYP) =  -953.033207722     A.U. after   15 cycles
 Normal termination of Gaussian 16 at Wed Dec  9 23:25:15 2020.

 ----------------------------------------------------------------------
 # B3LYP/6-311++G(d,p) empiricaldispersion=gd3bj scf=xqc pop=npa geom=c
 heck
 ----------------------------------------------------------------------

 -------------------------------------
 CID_131254161_JID_3397_Energie_kation
 -------------------------------------
 Structure from the checkpoint file:  "JID_3397.chk"
 Charge =  1 Multiplicity = 2

 SCF Done:  E(UB3LYP) =  -952.732399588     A.U. after   29 cycles
 Normal termination of Gaussian 16 at Wed Dec  9 23:35:42 2020.
 Gaussian 16:  ES64L-G16RevA.03 25-Dec-2016

 ----------------------------------------------------------------------
 # B3LYP/6-311++G(d,p) empiricaldispersion=gd3bj scf=xqc pop=npa geom=c
 heck
 ----------------------------------------------------------------------

 ------------------------------------
 CID_131254161_JID_3397_Energie_anion
 ------------------------------------
 Structure from the checkpoint file:  "JID_3397.chk"
 Charge = -1 Multiplicity = 2

                         Standard orientation:
 ---------------------------------------------------------------------
 Center     Atomic      Atomic             Coordinates (Angstroms)
 Number     Number       Type             X           Y           Z
 ---------------------------------------------------------------------
      1          6           0       -3.610683    0.709636   -0.292865
      2          6           0       -2.925695   -0.573954    0.171712
      3         16           0       -1.444678   -0.324801    1.224991
      4          6           0       -0.332840    0.552820    0.002242
      5          6           0        1.037216    0.845012    0.625434
      6          6           0        1.908491   -0.422189    0.766831
      7          7           0        1.700517   -1.296892   -0.389255
      8          6           0        0.708314   -1.246215   -1.332268
      9          8           0        0.597010   -2.073802   -2.228842
     10          7           0       -0.136690   -0.141222   -1.243724
     11          6           0        1.731470   -1.189647    2.081416
     12          6           0        1.799044    1.881833   -0.233307
     13          7           0        0.967721    3.039442   -0.577713
     14          1           0       -3.888759    1.334850    0.560811
     15          1           0       -4.518103    0.471188   -0.860607
     16          1           0       -2.963186    1.305560   -0.945498
     17          1           0       -3.602024   -1.163629    0.798427
     18          1           0       -2.649731   -1.210521   -0.676355
     19          1           0       -0.815513    1.508500   -0.202636
     20          1           0        0.868400    1.278118    1.616340
     21          1           0        2.955294   -0.083635    0.730934
     22          1           0        2.275591   -2.123896   -0.469701
     23          1           0       -0.931977   -0.239902   -1.861158
     24          1           0        2.435240   -2.029710    2.123886
     25          1           0        1.940297   -0.535062    2.935448
     26          1           0        0.718630   -1.585328    2.176785
     27          1           0        2.648247    2.235484    0.361919
     28          1           0        2.215756    1.367508   -1.112271
     29          1           0        1.558912    3.848147   -0.754016
     30          1           0        0.478955    2.856490   -1.451744
 ---------------------------------------------------------------------

 SCF Done:  E(UB3LYP) =  -953.024103405     A.U. after   29 cycles

 The electronic state is 2-A.
 Alpha  occ. eigenvalues --  -88.74001 -18.98189 -14.23635 -14.23544 -14.19326
 Alpha  occ. eigenvalues --  -10.19703 -10.14137 -10.12565 -10.10956 -10.09495
 Alpha  occ. eigenvalues --  -10.09154 -10.07563 -10.06956  -7.82665  -5.79041
 Alpha  occ. eigenvalues --   -5.78700  -5.78034  -0.95050  -0.85225  -0.81234
 Alpha  occ. eigenvalues --   -0.78520  -0.71484  -0.69677  -0.64406  -0.61772
 Alpha  occ. eigenvalues --   -0.56926  -0.54323  -0.52995  -0.50103  -0.46673
 Alpha  occ. eigenvalues --   -0.42297  -0.40621  -0.39372  -0.38991  -0.37124
 Alpha  occ. eigenvalues --   -0.35755  -0.35305  -0.33852  -0.32796  -0.32615
 Alpha  occ. eigenvalues --   -0.31397  -0.30745  -0.30288  -0.28911  -0.28308
 Alpha  occ. eigenvalues --   -0.27019  -0.25629  -0.25227  -0.23609  -0.22299
 Alpha  occ. eigenvalues --   -0.17551  -0.15927  -0.15602  -0.14672  -0.13341
 Alpha  occ. eigenvalues --    0.04026
 Alpha virt. eigenvalues --    0.05882   0.06565   0.07947   0.08511   0.08632
 Alpha virt. eigenvalues --    0.09356   0.09861   0.10534   0.11170   0.11406
 Alpha virt. eigenvalues --    0.12047   0.12296   0.13208   0.13472   0.13705

  Beta  occ. eigenvalues --  -88.74000 -18.98186 -14.23612 -14.23529 -14.19273
  Beta  occ. eigenvalues --  -10.19704 -10.14124 -10.12555 -10.10944 -10.09463
  Beta  occ. eigenvalues --  -10.09153 -10.07521 -10.06936  -7.82664  -5.79040
  Beta  occ. eigenvalues --   -5.78696  -5.78034  -0.95041  -0.85205  -0.81201
  Beta  occ. eigenvalues --   -0.78440  -0.71451  -0.69641  -0.64366  -0.61719
  Beta  occ. eigenvalues --   -0.56865  -0.54285  -0.52921  -0.50049  -0.46631
  Beta  occ. eigenvalues --   -0.42263  -0.40574  -0.39328  -0.38953  -0.37090
  Beta  occ. eigenvalues --   -0.35698  -0.35257  -0.33807  -0.32758  -0.32582
  Beta  occ. eigenvalues --   -0.31351  -0.30717  -0.30249  -0.28874  -0.28274
  Beta  occ. eigenvalues --   -0.26984  -0.25597  -0.25194  -0.23574  -0.22275
  Beta  occ. eigenvalues --   -0.17540  -0.15910  -0.15572  -0.14625  -0.13327
  Beta virt. eigenvalues --    0.06271   0.06819   0.07462   0.08559   0.08767
  Beta virt. eigenvalues --    0.09228   0.09650   0.10318   0.10824   0.11457
  Beta virt. eigenvalues --    0.11685   0.12327   0.12683   0.13330   0.13686

 Mulliken charges and spin densities:
               1          2
     1  C    0.730422  -1.192894
     2  C   -0.791458   0.317509
     3  S   -0.030189  -0.230788
     4  C    0.787162  -0.613045
     5  C    0.163568   0.257709
     6  C   -1.101727   1.065772
     7  N   -0.275463  -0.091739
     8  C    0.138344  -0.100951
     9  O   -0.387178   0.014052
    10  N   -0.667519   0.244425
    11  C    0.621133  -1.224028
    12  C    1.047056  -1.847790
    13  N   -0.365664  -0.041370
    14  H   -0.033210   0.164177
    15  H   -0.327215   0.467907
    16  H   -0.496921   0.646995
    17  H   -0.023641   0.197705
    18  H    0.230836  -0.004030
    19  H    0.712784  -0.398170
    20  H    0.090874   0.155625
    21  H   -0.472501   0.691561
    22  H    0.186650   0.135555
    23  H    0.263014   0.103904
    24  H   -0.199812   0.332842
    25  H    0.008089   0.121618
    26  H    0.135625  -0.000239
    27  H   -0.497809   0.682004
    28  H    0.004060   0.185978
    29  H   -0.261006   0.532390
    30  H   -0.188301   0.427316
 Sum of Mulliken charges =  -1.00000   1.00000

 Dipole moment (field-independent basis, Debye):
    X=             -1.8522    Y=             -3.7234    Z=              2.9902  Tot=              5.1221
 Quadrupole moment (field-independent basis, Debye-Ang):
   XX=           -146.6501   YY=           -143.1028   ZZ=           -128.9141
   XY=             -2.9995   XZ=             -4.0145   YZ=             -1.2963

 Summary of Natural Population Analysis:

                                       Natural Population
                Natural  -----------------------------------------------
    Atom  No    Charge         Core      Valence    Rydberg      Total
 -----------------------------------------------------------------------
      C    1   -0.29205      0.99965     2.28634    0.00606     3.29205
      C    2   -0.25636      0.99961     2.24591    0.01084     3.25636
      S    3    0.07349      4.99962     2.91221    0.01468     7.92651
      C    4   -0.06922      0.99952     2.05107    0.01863     3.06922
      C    5   -0.12039      0.99954     2.10733    0.01352     3.12039
      C    6   -0.00746      0.99957     1.99359    0.01429     3.00746
      N    7   -0.32864      0.99966     2.81934    0.00965     3.82864
      C    8    0.40970      0.99968     1.56788    0.02273     2.59030
      O    9   -0.34150      0.99988     3.33637    0.00525     4.34150
      N   10   -0.33772      0.99966     2.82719    0.01087     3.83772
      C   11   -0.28963      0.99964     2.28397    0.00602     3.28963
      C   12   -0.08441      0.99960     2.07220    0.01261     3.08441
      N   13   -0.42694      0.99977     2.91662    0.01055     3.92694
      H   14    0.10147      0.00000     0.39733    0.00120     0.39853
      H   15    0.10155      0.00000     0.39694    0.00151     0.39845
      H   16    0.09941      0.00000     0.39907    0.00152     0.40059
      H   17    0.10500      0.00000     0.39403    0.00097     0.39500
      H   18    0.10030      0.00000     0.39822    0.00149     0.39970
      H   19    0.11453      0.00000     0.38315    0.00232     0.38547
      H   20    0.11102      0.00000     0.38749    0.00149     0.38898
      H   21    0.09623      0.00000     0.40152    0.00225     0.40377
      H   22    0.19673      0.00000     0.30121    0.00205     0.30327
      H   23    0.19759      0.00000     0.30002    0.00239     0.30241
      H   24    0.09759      0.00000     0.40133    0.00109     0.40241
      H   25    0.10027      0.00000     0.39884    0.00089     0.39973
      H   26    0.10817      0.00000     0.39032    0.00151     0.39183
      H   27    0.09570      0.00000     0.40239    0.00191     0.40430
      H   28    0.08612      0.00000     0.41144    0.00243     0.41388
      H   29    0.18234      0.00000     0.31415    0.00351     0.31766
      H   30    0.17711      0.00000     0.32027    0.00262     0.32289
 =======================================================================
   * Total *    0.00000     16.99540    37.81772    0.18688    55.00000

 Normal termination of Gaussian 16 at Wed Dec  9 23:46:43 2020.
