 Gaussian 16, Revision A.03,

 -----------------------------------------------------------
 # opt freq B3LYP/6-31G(d) empiricaldispersion=gd3bj scf=xqc
 -----------------------------------------------------------

 -------------------------------
 CID_150676837_JID_8896_neutraal
 -------------------------------
 Symbolic Z-matrix:
 Charge =  0 Multiplicity = 1

 SCF Done:  E(RB3LYP) =  -1056.85471077     A.U. after   15 cycles
 SCF Done:  E(RB3LYP) =  -1056.86009189     A.U. after   12 cycles
 SCF Done:  E(RB3LYP) =  -1056.86072176     A.U. after   11 cycles
 SCF Done:  E(RB3LYP) =  -1056.86091038     A.U. after   12 cycles
 SCF Done:  E(RB3LYP) =  -1056.86101768     A.U. after   10 cycles
 SCF Done:  E(RB3LYP) =  -1056.86108647     A.U. after   10 cycles
 SCF Done:  E(RB3LYP) =  -1056.86112132     A.U. after   11 cycles
 SCF Done:  E(RB3LYP) =  -1056.86113344     A.U. after   10 cycles
 SCF Done:  E(RB3LYP) =  -1056.86113598     A.U. after    9 cycles
 SCF Done:  E(RB3LYP) =  -1056.86113614     A.U. after    8 cycles
 SCF Done:  E(RB3LYP) =  -1056.86113622     A.U. after    8 cycles
 SCF Done:  E(RB3LYP) =  -1056.86113623     A.U. after    7 cycles
 Optimization completed.
    -- Stationary point found.
 Normal termination of Gaussian 16 at Fri Dec 11 22:52:53 2020.

 --------------------------------------------------------------------
 #N Geom=AllCheck Guess=TCheck SCRF=Check GenChk RB3LYP/6-31G(d) Freq
 --------------------------------------------------------------------

 Structure from the checkpoint file:  "JID_8896.chk"
 -------------------------------
 CID_150676837_JID_8896_neutraal
 -------------------------------
 Charge =  0 Multiplicity = 1

 SCF Done:  E(RB3LYP) =  -1056.86113623     A.U. after    1 cycles

  Exact polarizability: 227.582  12.262 225.996  -9.420  -2.283 133.588
 Approx polarizability: 329.412  35.521 393.328 -24.432  -2.912 223.869

                      1                      2                      3
                      A                      A                      A
 Frequencies --     20.8532                45.5447                53.4774
 Red. masses --      4.2470                 3.7239                 4.1403
 Frc consts  --      0.0011                 0.0046                 0.0070
 IR Inten    --      0.0901                 0.0133                 0.0583

                      4                      5                      6
                      A                      A                      A
 Frequencies --     59.4715                96.0914               133.7097
 Red. masses --      2.7979                 3.2970                 2.0071
 Frc consts  --      0.0058                 0.0179                 0.0211
 IR Inten    --      0.2605                 1.2850                 0.0252

                      7                      8                      9
                      A                      A                      A
 Frequencies --    138.1767               157.5148               173.8069
 Red. masses --      3.1483                 1.3024                 2.3806
 Frc consts  --      0.0354                 0.0190                 0.0424
 IR Inten    --      0.4597                 0.1730                 0.4145

                     10                     11                     12
                      A                      A                      A
 Frequencies --    201.9881               231.0621               237.8231
 Red. masses --      4.3564                 1.4663                 4.3956
 Frc consts  --      0.1047                 0.0461                 0.1465
 IR Inten    --      0.2713                 0.1993                 0.4290

                     13                     14                     15
                      A                      A                      A
 Frequencies --    268.9494               299.2532               318.3539
 Red. masses --      2.5971                 3.5639                 4.1611
 Frc consts  --      0.1107                 0.1880                 0.2485
 IR Inten    --      0.6490                 0.9149                 0.2119

                     16                     17                     18
                      A                      A                      A
 Frequencies --    340.1326               370.1196               374.1850
 Red. masses --      3.0904                 3.4104                 3.5401
 Frc consts  --      0.2107                 0.2753                 0.2920
 IR Inten    --      0.2977                 0.9052                 0.2427

                     19                     20                     21
                      A                      A                      A
 Frequencies --    408.7890               464.8036               514.2716
 Red. masses --      4.6302                 3.0557                 3.3788
 Frc consts  --      0.4559                 0.3890                 0.5265
 IR Inten    --      1.1218                 0.0334                 1.5382

                     22                     23                     24
                      A                      A                      A
 Frequencies --    544.0758               570.3922               587.9343
 Red. masses --      4.9591                 4.6014                 3.9669
 Frc consts  --      0.8649                 0.8820                 0.8079
 IR Inten    --      0.6395                 2.7091                 1.6371

                     25                     26                     27
                      A                      A                      A
 Frequencies --    600.5905               608.8626               649.5089
 Red. masses --      2.7883                 3.8369                 3.3698
 Frc consts  --      0.5926                 0.8380                 0.8376
 IR Inten    --      7.5064                 1.5050                 2.9928

                     28                     29                     30
                      A                      A                      A
 Frequencies --    672.5068               720.6316               728.6963
 Red. masses --      2.5341                 2.3135                 1.6815
 Frc consts  --      0.6753                 0.7078                 0.5261
 IR Inten    --     11.2542                 9.3278                10.8660

                     31                     32                     33
                      A                      A                      A
 Frequencies --    740.8663               754.6362               798.4799
 Red. masses --      1.4193                 3.5324                 1.2549
 Frc consts  --      0.4590                 1.1852                 0.4714
 IR Inten    --     25.6593                 1.9552                 1.4131

                     34                     35                     36
                      A                      A                      A
 Frequencies --    802.1530               817.1758               853.4558
 Red. masses --      1.5410                 4.1378                 3.3092
 Frc consts  --      0.5842                 1.6280                 1.4202
 IR Inten    --     24.1688                 8.4622                 6.5087

                     37                     38                     39
                      A                      A                      A
 Frequencies --    857.2836               860.7810               887.4655
 Red. masses --      2.6395                 1.6226                 1.5460
 Frc consts  --      1.1429                 0.7083                 0.7174
 IR Inten    --     12.8607                11.5973                 9.6131

                     40                     41                     42
                      A                      A                      A
 Frequencies --    931.9401               940.9240               949.8656
 Red. masses --      2.9524                 2.3648                 2.0414
 Frc consts  --      1.5108                 1.2336                 1.0852
 IR Inten    --      6.7447                 5.7942                10.2181

                     43                     44                     45
                      A                      A                      A
 Frequencies --    962.4136               982.6420               999.3287
 Red. masses --      2.4985                 2.4810                 1.3902
 Frc consts  --      1.3635                 1.4115                 0.8180
 IR Inten    --      2.0926                10.2969                 1.2823

                     46                     47                     48
                      A                      A                      A
 Frequencies --   1014.4217              1019.1808              1027.7175
 Red. masses --      2.4612                 1.6242                 3.2173
 Frc consts  --      1.4922                 0.9940                 2.0021
 IR Inten    --      0.2384                 9.0934                 1.5252

                     49                     50                     51
                      A                      A                      A
 Frequencies --   1073.1839              1080.1858              1092.8872
 Red. masses --      1.5221                 1.6799                 2.2096
 Frc consts  --      1.0328                 1.1548                 1.5550
 IR Inten    --      2.5655                 3.9777                 2.5884

                     52                     53                     54
                      A                      A                      A
 Frequencies --   1101.6953              1116.5068              1136.5927
 Red. masses --      1.6265                 2.8546                 2.1093
 Frc consts  --      1.1631                 2.0966                 1.6055
 IR Inten    --      2.0442                20.8580                10.7657

                     55                     56                     57
                      A                      A                      A
 Frequencies --   1182.2573              1192.1557              1216.6024
 Red. masses --      1.4627                 1.9226                 1.2810
 Frc consts  --      1.2045                 1.6099                 1.1171
 IR Inten    --      1.7107                 1.7924                 5.1160

                     58                     59                     60
                      A                      A                      A
 Frequencies --   1220.8269              1231.8562              1277.3129
 Red. masses --      1.4284                 1.4446                 1.2197
 Frc consts  --      1.2543                 1.2916                 1.1724
 IR Inten    --      7.1198                13.5407                 1.3260

                     61                     62                     63
                      A                      A                      A
 Frequencies --   1296.3232              1303.1219              1337.9167
 Red. masses --      1.3494                 1.8418                 1.2670
 Frc consts  --      1.3360                 1.8428                 1.3363
 IR Inten    --      2.8398                 0.4645                 5.6156

                     64                     65                     66
                      A                      A                      A
 Frequencies --   1349.2641              1365.1253              1371.5610
 Red. masses --      1.4686                 2.9339                 1.4449
 Frc consts  --      1.5753                 3.2214                 1.6015
 IR Inten    --     10.7162                52.6435                10.9800

                     67                     68                     69
                      A                      A                      A
 Frequencies --   1392.9976              1422.0839              1431.8132
 Red. masses --      1.6531                 1.9410                 1.7043
 Frc consts  --      1.8899                 2.3127                 2.0586
 IR Inten    --      9.6312                 3.3963                 3.8709

                     70                     71                     72
                      A                      A                      A
 Frequencies --   1440.0795              1442.2009              1466.6691
 Red. masses --      1.4752                 1.3226                 1.6644
 Frc consts  --      1.8025                 1.6208                 2.1095
 IR Inten    --      1.5591                 0.8247                 1.5873

                     73                     74                     75
                      A                      A                      A
 Frequencies --   1498.8786              1507.5669              1513.4701
 Red. masses --      1.1115                 1.0447                 1.7927
 Frc consts  --      1.4713                 1.3989                 2.4194
 IR Inten    --      2.6424                 6.1952                 3.8130

                     76                     77                     78
                      A                      A                      A
 Frequencies --   1517.3533              1518.2414              1526.8109
 Red. masses --      1.5595                 1.1542                 1.0482
 Frc consts  --      2.1155                 1.5676                 1.4396
 IR Inten    --      7.6295                 5.8494                 6.4502

                     79                     80                     81
                      A                      A                      A
 Frequencies --   1538.3938              1598.6484              1621.8144
 Red. masses --      1.1397                 7.2735                 6.0701
 Frc consts  --      1.5892                10.9521                 9.4070
 IR Inten    --      1.7093                22.9824                 4.1722

                     82                     83                     84
                      A                      A                      A
 Frequencies --   1654.1452              1676.6963              1714.3227
 Red. masses --      8.3274                 6.3322                 5.5516
 Frc consts  --     13.4248                10.4884                 9.6129
 IR Inten    --     14.5501                20.9787                 4.7170

                     85                     86                     87
                      A                      A                      A
 Frequencies --   2997.4621              3021.5554              3030.1694
 Red. masses --      1.0809                 1.0705                 1.0385
 Frc consts  --      5.7221                 5.7582                 5.6180
 IR Inten    --      8.5784                18.9462                38.8077

                     88                     89                     90
                      A                      A                      A
 Frequencies --   3036.4923              3050.4454              3074.4840
 Red. masses --      1.0643                 1.0347                 1.0998
 Frc consts  --      5.7816                 5.6725                 6.1249
 IR Inten    --     31.9869                31.7134                22.4522

                     91                     92                     93
                      A                      A                      A
 Frequencies --   3079.3546              3102.0380              3119.3335
 Red. masses --      1.0990                 1.0929                 1.1025
 Frc consts  --      6.1397                 6.1964                 6.3204
 IR Inten    --     12.5024                19.8534                52.7277

                     94                     95                     96
                      A                      A                      A
 Frequencies --   3123.2547              3124.7978              3148.8847
 Red. masses --      1.0994                 1.1034                 1.0852
 Frc consts  --      6.3189                 6.3480                 6.3397
 IR Inten    --     23.3449                32.4744                 8.6979

                     97                     98                     99
                      A                      A                      A
 Frequencies --   3161.3759              3180.4783              3211.7813
 Red. masses --      1.0870                 1.0946                 1.0922
 Frc consts  --      6.4007                 6.5236                 6.6382
 IR Inten    --     17.1052                52.5585                 5.5290

                    100                    101                    102
                      A                      A                      A
 Frequencies --   3226.4563              3236.7858              3260.6512
 Red. masses --      1.0949                 1.0939                 1.0936
 Frc consts  --      6.7156                 6.7524                 6.8507
 IR Inten    --     14.3480                 6.8833                 1.1130

 - Thermochemistry -
 -------------------
 Temperature   298.150 Kelvin.  Pressure   1.00000 Atm.
 Atom     1 has atomic number  6 and mass  12.00000

 Molecular mass:   254.11292 amu.
 Principal axes and moments of inertia in atomic units:
                           1         2         3
     Eigenvalues --  3379.178247270.683268877.89461
           X            0.99983   0.00530   0.01752
           Y           -0.00510   0.99993  -0.01097
           Z           -0.01758   0.01088   0.99979
 This molecule is an asymmetric top.
 Rotational symmetry number  1.
 Warning -- assumption of classical behavior for rotation
           may cause significant error
 Rotational temperatures (Kelvin)      0.02563     0.01191     0.00976
 Rotational constants (GHZ):           0.53408     0.24822     0.20328
 Zero-point vibrational energy     791961.8 (Joules/Mol)
                                  189.28341 (Kcal/Mol)
 Warning -- explicit consideration of  26 degrees of freedom as
           vibrations may cause significant error
 Vibrational temperatures:     30.00    65.53    76.94    85.57   138.25
          (Kelvin)            192.38   198.81   226.63   250.07   290.62
                              332.45   342.17   386.96   430.56   458.04
                              489.37   532.52   538.37   588.16   668.75
                              739.92   782.80   820.67   845.91   864.12
                              876.02   934.50   967.59  1036.83  1048.43
                             1065.94  1085.75  1148.83  1154.12  1175.73
                             1227.93  1233.44  1238.47  1276.86  1340.85
                             1353.78  1366.64  1384.70  1413.80  1437.81
                             1459.53  1466.37  1478.66  1544.07  1554.15
                             1572.42  1585.09  1606.40  1635.30  1701.00
                             1715.25  1750.42  1756.50  1772.37  1837.77
                             1865.12  1874.90  1924.96  1941.29  1964.11
                             1973.37  2004.21  2046.06  2060.06  2071.95
                             2075.01  2110.21  2156.55  2169.05  2177.55
                             2183.13  2184.41  2196.74  2213.41  2300.10
                             2333.43  2379.95  2412.39  2466.53  4312.68
                             4347.34  4359.74  4368.84  4388.91  4423.50
                             4430.50  4463.14  4488.03  4493.67  4495.89
                             4530.54  4548.51  4576.00  4621.04  4642.15
                             4657.01  4691.35

 Zero-point correction=                           0.301642 (Hartree/Particle)
 Thermal correction to Energy=                    0.318568
 Thermal correction to Enthalpy=                  0.319513
 Thermal correction to Gibbs Free Energy=         0.255704
 Sum of electronic and zero-point Energies=          -1056.559494
 Sum of electronic and thermal Energies=             -1056.542568
 Sum of electronic and thermal Enthalpies=           -1056.541624
 Sum of electronic and thermal Free Energies=        -1056.605432

                     E (Thermal)             CV                S
                      KCal/Mol        Cal/Mol-Kelvin    Cal/Mol-Kelvin
 Total                  199.905             65.386            134.297
 Electronic               0.000              0.000              0.000
 Translational            0.889              2.981             42.498
 Rotational               0.889              2.981             33.744
 Vibrational            198.127             59.424             58.055
 Vibration     1          0.593              1.986              6.551
 Vibration     2          0.595              1.979              5.002
 Vibration     3          0.596              1.976              4.684
 Vibration     4          0.597              1.974              4.475
 Vibration     5          0.603              1.952              3.532
 Vibration     6          0.613              1.920              2.892
 Vibration     7          0.614              1.915              2.829
 Vibration     8          0.621              1.894              2.579
 Vibration     9          0.627              1.875              2.394
 Vibration    10          0.639              1.837              2.115
 Vibration    11          0.653              1.794              1.871
 Vibration    12          0.656              1.783              1.819
 Vibration    13          0.673              1.730              1.603
 Vibration    14          0.692              1.675              1.421
 Vibration    15          0.705              1.638              1.319
 Vibration    16          0.720              1.595              1.212
 Vibration    17          0.742              1.534              1.079
 Vibration    18          0.745              1.525              1.063
 Vibration    19          0.773              1.451              0.931
 Vibration    20          0.822              1.328              0.752
 Vibration    21          0.869              1.218              0.623
 Vibration    22          0.899              1.153              0.557
 Vibration    23          0.926              1.095              0.503
 Vibration    24          0.945              1.058              0.471
 Vibration    25          0.959              1.031              0.449
 Vibration    26          0.968              1.013              0.435

                           ! Non-Optimized Parameters !
 Normal termination of Gaussian 16 at Fri Dec 11 23:08:20 2020.

 ----------------------------------------------------------------------
 # B3LYP/6-311++G(d,p) empiricaldispersion=gd3bj scf=xqc pop=npa geom=c
 heck
 ----------------------------------------------------------------------

 ---------------------------------------
 CID_150676837_JID_8896_Energie_neutraal
 ---------------------------------------
 Structure from the checkpoint file:  "JID_8896.chk"
 Charge =  0 Multiplicity = 1

 SCF Done:  E(RB3LYP) =  -1057.05395911     A.U. after   16 cycles
 Normal termination of Gaussian 16 at Fri Dec 11 23:14:57 2020.

 ----------------------------------------------------------------------
 # B3LYP/6-311++G(d,p) empiricaldispersion=gd3bj scf=xqc pop=npa geom=c
 heck
 ----------------------------------------------------------------------

 -------------------------------------
 CID_150676837_JID_8896_Energie_kation
 -------------------------------------
 Structure from the checkpoint file:  "JID_8896.chk"
 Charge =  1 Multiplicity = 2

 SCF Done:  E(UB3LYP) =  -1056.78886004     A.U. after   29 cycles
 Normal termination of Gaussian 16 at Fri Dec 11 23:31:09 2020.
 Gaussian 16:  ES64L-G16RevA.03 25-Dec-2016

 ----------------------------------------------------------------------
 # B3LYP/6-311++G(d,p) empiricaldispersion=gd3bj scf=xqc pop=npa geom=c
 heck
 ----------------------------------------------------------------------

 ------------------------------------
 CID_150676837_JID_8896_Energie_anion
 ------------------------------------
 Structure from the checkpoint file:  "JID_8896.chk"
 Charge = -1 Multiplicity = 2

                         Standard orientation:
 ---------------------------------------------------------------------
 Center     Atomic      Atomic             Coordinates (Angstroms)
 Number     Number       Type             X           Y           Z
 ---------------------------------------------------------------------
      1          6           0        4.385189    0.570704    2.161414
      2          6           0        4.048672    1.241193    0.820059
      3          6           0        3.056426    0.449874    0.008154
      4          6           0        3.349704   -0.198591   -1.161685
      5         16           0        1.971328   -1.036282   -1.808275
      6          6           0        0.965311   -0.510252   -0.482910
      7          6           0        1.685701    0.260599    0.389468
      8          6           0       -0.465970   -0.970755   -0.374530
      9          6           0       -0.592489   -2.022418    0.762680
     10          6           0       -1.818522   -2.886482    0.676453
     11          6           0       -3.091187   -2.460374    0.542962
     12          6           0       -3.555414   -1.089438    0.473635
     13          6           0       -2.843642    0.038364    0.209795
     14          6           0       -1.424681    0.178766   -0.181230
     15          6           0       -1.208777    1.499629   -0.415411
     16          6           0       -2.446180    2.266608   -0.172070
     17          6           0       -3.414587    1.388278    0.193834
     18          6           0       -2.549343    3.751385   -0.313314
     19          1           0        3.485628    0.440788    2.773260
     20          1           0        5.099642    1.172946    2.733784
     21          1           0        4.821987   -0.420531    1.999277
     22          1           0        3.647634    2.246133    1.010115
     23          1           0        4.967357    1.379429    0.238097
     24          1           0        4.296358   -0.223339   -1.684806
     25          1           0        1.246310    0.699812    1.279087
     26          1           0       -0.730356   -1.486767   -1.310378
     27          1           0        0.297793   -2.657892    0.747689
     28          1           0       -0.578377   -1.484668    1.723019
     29          1           0       -1.657893   -3.960225    0.752855
     30          1           0       -3.875733   -3.214906    0.536863
     31          1           0       -4.621364   -0.954530    0.655640
     32          1           0       -0.272718    1.938799   -0.739017
     33          1           0       -4.441900    1.618480    0.452254
     34          1           0       -3.559742    4.105200   -0.086207
     35          1           0       -1.849893    4.265744    0.359713
     36          1           0       -2.297244    4.073511   -1.332676
 ---------------------------------------------------------------------

 SCF Done:  E(UB3LYP) =  -1057.07981490     A.U. after   26 cycles

 The electronic state is 2-A.
 Alpha  occ. eigenvalues --  -88.76535 -10.09143 -10.08975 -10.08827 -10.08322
 Alpha  occ. eigenvalues --  -10.08017 -10.05721 -10.05611 -10.03595 -10.03553
 Alpha  occ. eigenvalues --  -10.01569 -10.00948 -10.00400 -10.00337 -10.00231
 Alpha  occ. eigenvalues --   -9.99896  -9.99248  -9.98969  -7.85161  -5.81442
 Alpha  occ. eigenvalues --   -5.81083  -5.80766  -0.77640  -0.71141  -0.69633
 Alpha  occ. eigenvalues --   -0.66952  -0.64176  -0.61895  -0.60615  -0.59597
 Alpha  occ. eigenvalues --   -0.55310  -0.54108  -0.53271  -0.48874  -0.46023
 Alpha  occ. eigenvalues --   -0.44423  -0.42982  -0.39760  -0.38042  -0.37383
 Alpha  occ. eigenvalues --   -0.36244  -0.34726  -0.33313  -0.32873  -0.31889
 Alpha  occ. eigenvalues --   -0.29960  -0.29751  -0.29021  -0.28708  -0.28384
 Alpha  occ. eigenvalues --   -0.27461  -0.26818  -0.26378  -0.25498  -0.23970
 Alpha  occ. eigenvalues --   -0.23654  -0.23376  -0.22171  -0.21172  -0.19984
 Alpha  occ. eigenvalues --   -0.19583  -0.18534  -0.16906  -0.14596  -0.14183
 Alpha  occ. eigenvalues --   -0.11896  -0.07403  -0.05174   0.03158
 Alpha virt. eigenvalues --    0.06194   0.07897   0.08668   0.08861   0.09053
 Alpha virt. eigenvalues --    0.09733   0.09958   0.10733   0.10955   0.11718
 Alpha virt. eigenvalues --    0.11929   0.12029   0.12505   0.13198   0.13463

  Beta  occ. eigenvalues --  -88.76534 -10.09143 -10.08966 -10.08823 -10.08322
  Beta  occ. eigenvalues --  -10.08017 -10.05716 -10.05592 -10.03620 -10.03563
  Beta  occ. eigenvalues --  -10.01657 -10.00481 -10.00256 -10.00093  -9.99933
  Beta  occ. eigenvalues --   -9.99792  -9.99107  -9.98877  -7.85160  -5.81441
  Beta  occ. eigenvalues --   -5.81083  -5.80765  -0.77631  -0.70855  -0.69507
  Beta  occ. eigenvalues --   -0.66666  -0.63769  -0.61888  -0.60282  -0.59436
  Beta  occ. eigenvalues --   -0.54907  -0.53896  -0.53196  -0.48761  -0.45401
  Beta  occ. eigenvalues --   -0.44281  -0.42897  -0.39487  -0.37883  -0.37173
  Beta  occ. eigenvalues --   -0.36205  -0.34623  -0.32960  -0.32832  -0.31715
  Beta  occ. eigenvalues --   -0.29930  -0.29689  -0.28876  -0.28628  -0.28173
  Beta  occ. eigenvalues --   -0.27367  -0.26696  -0.26328  -0.25456  -0.23792
  Beta  occ. eigenvalues --   -0.23509  -0.23254  -0.21954  -0.20970  -0.19628
  Beta  occ. eigenvalues --   -0.18582  -0.18278  -0.16642  -0.14178  -0.13245
  Beta  occ. eigenvalues --   -0.11722  -0.05424  -0.04190
  Beta virt. eigenvalues --    0.06179   0.07885   0.08641   0.08797   0.08983
  Beta virt. eigenvalues --    0.09484   0.09731   0.09958   0.10724   0.10952
  Beta virt. eigenvalues --    0.11718   0.11910   0.12018   0.12497   0.13207

 Mulliken charges and spin densities:
               1          2
     1  C   -0.586809  -0.001933
     2  C   -0.612144   0.013459
     3  C    0.009539  -0.007983
     4  C    0.033268  -0.001702
     5  S   -0.342234   0.003922
     6  C    0.585265  -0.015695
     7  C    0.063130   0.011945
     8  C   -0.024653   0.006406
     9  C   -0.663552  -0.027467
    10  C   -0.189001   0.374087
    11  C   -0.622696  -0.052467
    12  C   -0.238100   0.385930
    13  C    0.097159   0.009419
    14  C    0.593162   0.037388
    15  C   -0.790620   0.117729
    16  C    0.466440   0.115067
    17  C   -0.685725   0.059754
    18  C   -0.375518   0.001545
    19  H    0.139827   0.001806
    20  H    0.109347   0.001443
    21  H    0.130640   0.000050
    22  H    0.133698   0.001190
    23  H    0.135586   0.000808
    24  H    0.202693  -0.000098
    25  H    0.176808   0.000634
    26  H    0.149581   0.000195
    27  H    0.118268   0.002344
    28  H    0.115455   0.017226
    29  H    0.119639  -0.026153
    30  H    0.097927   0.005395
    31  H    0.100527  -0.024365
    32  H    0.121375  -0.011247
    33  H    0.059408  -0.007360
    34  H    0.123979   0.000124
    35  H    0.123830   0.004161
    36  H    0.124503   0.004444
 Sum of Mulliken charges =  -1.00000   1.00000

 Dipole moment (field-independent basis, Debye):
    X=              8.5386    Y=              0.8670    Z=              0.2293  Tot=              8.5855
 Quadrupole moment (field-independent basis, Debye-Ang):
   XX=           -154.7251   YY=           -142.9761   ZZ=           -129.6475
   XY=              1.2164   XZ=              2.3442   YZ=              3.5857

 Summary of Natural Population Analysis:

                                       Natural Population
                Natural  -----------------------------------------------
    Atom  No    Charge         Core      Valence    Rydberg      Total
 -----------------------------------------------------------------------
      C    1   -0.28120      0.99967     2.27756    0.00397     3.28120
      C    2   -0.19280      0.99961     2.18562    0.00757     3.19280
      C    3   -0.04225      0.99949     2.03248    0.01028     3.04225
      C    4   -0.20953      0.99946     2.19945    0.01062     3.20953
      S    5    0.19623      4.99940     2.78124    0.02312     7.80377
      C    6   -0.08449      0.99952     2.06237    0.02260     3.08449
      C    7   -0.13694      0.99940     2.12708    0.01046     3.13694
      C    8   -0.07793      0.99955     2.05935    0.01903     3.07793
      C    9   -0.21565      0.99964     2.20040    0.01561     3.21565
      C   10    0.01429      0.99955     1.97432    0.01184     2.98571
      C   11   -0.14612      0.99954     2.13606    0.01052     3.14612
      C   12    0.00568      0.99951     1.98482    0.00999     2.99432
      C   13   -0.04626      0.99954     2.02850    0.01822     3.04626
      C   14    0.04084      0.99950     1.94403    0.01564     2.95916
      C   15   -0.11008      0.99952     2.09556    0.01500     3.11008
      C   16   -0.01142      0.99952     2.00188    0.01002     3.01142
      C   17   -0.10797      0.99945     2.09840    0.01012     3.10797
      C   18   -0.29013      0.99964     2.28607    0.00442     3.29013
      H   19    0.09965      0.00000     0.39935    0.00100     0.40035
      H   20    0.09191      0.00000     0.40709    0.00100     0.40809
      H   21    0.09665      0.00000     0.40231    0.00104     0.40335
      H   22    0.09880      0.00000     0.39986    0.00134     0.40120
      H   23    0.09460      0.00000     0.40414    0.00126     0.40540
      H   24    0.10267      0.00000     0.39626    0.00107     0.39733
      H   25    0.11207      0.00000     0.38636    0.00157     0.38793
      H   26    0.09886      0.00000     0.39888    0.00226     0.40114
      H   27    0.09474      0.00000     0.40394    0.00133     0.40526
      H   28    0.10553      0.00000     0.39268    0.00178     0.39447
      H   29    0.07912      0.00000     0.41951    0.00136     0.42088
      H   30    0.08726      0.00000     0.41092    0.00182     0.41274
      H   31    0.08371      0.00000     0.41525    0.00104     0.41629
      H   32    0.08897      0.00000     0.40923    0.00180     0.41103
      H   33    0.08591      0.00000     0.41282    0.00127     0.41409
      H   34    0.09357      0.00000     0.40545    0.00099     0.40643
      H   35    0.09313      0.00000     0.40531    0.00156     0.40687
      H   36    0.09348      0.00000     0.40492    0.00159     0.40652
 =======================================================================
   * Total *    0.00491     21.99151    45.74946    0.25411    67.99509

 Normal termination of Gaussian 16 at Fri Dec 11 23:45:59 2020.
