 Gaussian 16, Revision A.03,

 -----------------------------------------------------------
 # opt freq B3LYP/6-31G(d) empiricaldispersion=gd3bj scf=xqc
 -----------------------------------------------------------

 -------------------------------
 CID_141269102_JID_1356_neutraal
 -------------------------------
 Symbolic Z-matrix:
 Charge =  0 Multiplicity = 1

 SCF Done:  E(RB3LYP) =  -605.732227652     A.U. after   14 cycles
 SCF Done:  E(RB3LYP) =  -605.744258440     A.U. after   13 cycles
 SCF Done:  E(RB3LYP) =  -605.746245871     A.U. after   12 cycles
 SCF Done:  E(RB3LYP) =  -605.747883925     A.U. after   13 cycles
 SCF Done:  E(RB3LYP) =  -605.747970570     A.U. after   12 cycles
 SCF Done:  E(RB3LYP) =  -605.748220461     A.U. after   12 cycles
 SCF Done:  E(RB3LYP) =  -605.748294350     A.U. after   10 cycles
 SCF Done:  E(RB3LYP) =  -605.748322906     A.U. after   11 cycles
 SCF Done:  E(RB3LYP) =  -605.748405188     A.U. after   12 cycles
 SCF Done:  E(RB3LYP) =  -605.748494140     A.U. after   12 cycles
 SCF Done:  E(RB3LYP) =  -605.748713400     A.U. after   12 cycles
 SCF Done:  E(RB3LYP) =  -605.748769714     A.U. after   11 cycles
 SCF Done:  E(RB3LYP) =  -605.748768187     A.U. after    9 cycles
 SCF Done:  E(RB3LYP) =  -605.748770102     A.U. after    9 cycles
 SCF Done:  E(RB3LYP) =  -605.748770174     A.U. after    8 cycles
 Optimization completed.
    -- Stationary point found.
 Normal termination of Gaussian 16 at Tue Dec  8 19:54:46 2020.

 --------------------------------------------------------------------
 #N Geom=AllCheck Guess=TCheck SCRF=Check GenChk RB3LYP/6-31G(d) Freq
 --------------------------------------------------------------------

 Structure from the checkpoint file:  "JID_1356.chk"
 -------------------------------
 CID_141269102_JID_1356_neutraal
 -------------------------------
 Charge =  0 Multiplicity = 1

 SCF Done:  E(RB3LYP) =  -605.748770174     A.U. after    1 cycles

  Exact polarizability:  91.683  -6.701  84.882  -2.048   6.685  52.727
 Approx polarizability: 124.513 -25.106 140.536  -8.860  17.456  82.043

                      1                      2                      3
                      A                      A                      A
 Frequencies --     62.0452                98.0959               123.4845
 Red. masses --      9.8772                 6.1207                 4.9585
 Frc consts  --      0.0224                 0.0347                 0.0445
 IR Inten    --      1.4234                 2.2084                 2.7215

                      4                      5                      6
                      A                      A                      A
 Frequencies --    146.6030               195.1798               253.6280
 Red. masses --      5.4091                 5.4601                 1.3024
 Frc consts  --      0.0685                 0.1226                 0.0494
 IR Inten    --      2.5100                 5.2479               107.4183

                      7                      8                      9
                      A                      A                      A
 Frequencies --    334.9721               358.1922               395.8181
 Red. masses --      2.3429                 3.2193                 4.1685
 Frc consts  --      0.1549                 0.2434                 0.3848
 IR Inten    --      4.3179                10.2438                29.7621

                     10                     11                     12
                      A                      A                      A
 Frequencies --    416.9899               475.2027               476.7804
 Red. masses --      2.4118                 4.0081                 2.3209
 Frc consts  --      0.2471                 0.5333                 0.3108
 IR Inten    --     25.9760                22.1313                72.4295

                     13                     14                     15
                      A                      A                      A
 Frequencies --    520.3313               539.9490               552.3281
 Red. masses --      2.3645                 1.9277                 3.1145
 Frc consts  --      0.3772                 0.3311                 0.5598
 IR Inten    --     75.2904                82.2354                32.9511

                     16                     17                     18
                      A                      A                      A
 Frequencies --    604.3296               650.1365               679.7661
 Red. masses --      1.3405                 3.8467                 2.9127
 Frc consts  --      0.2884                 0.9580                 0.7930
 IR Inten    --    106.1716                40.0472                 9.7233

                     19                     20                     21
                      A                      A                      A
 Frequencies --    754.1632               780.3705               826.6744
 Red. masses --      3.0249                 5.1583                 2.0757
 Frc consts  --      1.0136                 1.8508                 0.8358
 IR Inten    --     32.7739                 2.8280                29.4576

                     22                     23                     24
                      A                      A                      A
 Frequencies --    875.4870               916.5413               956.9872
 Red. masses --      2.3186                 2.7686                 3.1018
 Frc consts  --      1.0471                 1.3703                 1.6737
 IR Inten    --     83.5280                 4.2508                78.8567

                     25                     26                     27
                      A                      A                      A
 Frequencies --   1039.9432              1046.2445              1066.5752
 Red. masses --      5.2202                 3.6609                 3.2171
 Frc consts  --      3.3263                 2.3610                 2.1563
 IR Inten    --     47.7471               155.7409                74.4718

                     28                     29                     30
                      A                      A                      A
 Frequencies --   1124.0824              1160.0971              1170.8815
 Red. masses --      2.8316                 3.8933                 1.5958
 Frc consts  --      2.1081                 3.0871                 1.2890
 IR Inten    --    100.4778                40.8557                85.5379

                     31                     32                     33
                      A                      A                      A
 Frequencies --   1211.4415              1268.6769              1297.7358
 Red. masses --      1.7418                 1.2128                 1.4078
 Frc consts  --      1.5061                 1.1502                 1.3969
 IR Inten    --    232.7268                64.6684                 8.8542

                     34                     35                     36
                      A                      A                      A
 Frequencies --   1318.4661              1354.6734              1376.2575
 Red. masses --      1.3145                 1.5421                 1.1534
 Frc consts  --      1.3463                 1.6674                 1.2871
 IR Inten    --      6.0358                 7.9882                39.1290

                     37                     38                     39
                      A                      A                      A
 Frequencies --   1417.3702              1437.3918              1466.4224
 Red. masses --      2.4927                 1.2046                 1.7440
 Frc consts  --      2.9505                 1.4664                 2.2096
 IR Inten    --    165.5030                53.4790                61.0752

                     40                     41                     42
                      A                      A                      A
 Frequencies --   1498.9494              1532.8878              1726.1051
 Red. masses --      1.4549                 2.0518                 7.5843
 Frc consts  --      1.9260                 2.8406                13.3137
 IR Inten    --    147.8857                26.8363                61.0725

                     43                     44                     45
                      A                      A                      A
 Frequencies --   1814.5638              3031.2331              3050.6726
 Red. masses --      9.7708                 1.0829                 1.0875
 Frc consts  --     18.9551                 5.8624                 5.9631
 IR Inten    --    316.0585                41.0845                70.9471

                     46                     47                     48
                      A                      A                      A
 Frequencies --   3256.2061              3523.6663              3594.5170
 Red. masses --      1.0919                 1.0743                 1.0767
 Frc consts  --      6.8211                 7.8591                 8.1961
 IR Inten    --      0.3293                 3.5911                41.3263

                     49                     50                     51
                      A                      A                      A
 Frequencies --   3700.0361              3700.7419              3732.3793
 Red. masses --      1.0642                 1.0649                 1.0654
 Frc consts  --      8.5841                 8.5932                 8.7444
 IR Inten    --     75.5912                12.9378                20.2580

 - Thermochemistry -
 -------------------
 Temperature   298.150 Kelvin.  Pressure   1.00000 Atm.
 Atom     1 has atomic number  6 and mass  12.00000

 Molecular mass:   160.04841 amu.
 Principal axes and moments of inertia in atomic units:
                           1         2         3
     Eigenvalues --  1065.391822166.322282941.05281
           X            0.99990   0.01373   0.00458
           Y           -0.01375   0.99989   0.00530
           Z           -0.00450  -0.00536   0.99998
 This molecule is an asymmetric top.
 Rotational symmetry number  1.
 Warning -- assumption of classical behavior for rotation
           may cause significant error
 Rotational temperatures (Kelvin)      0.08130     0.03998     0.02945
 Rotational constants (GHZ):           1.69397     0.83309     0.61364
 Zero-point vibrational energy     388261.6 (Joules/Mol)
                                   92.79675 (Kcal/Mol)
 Warning -- explicit consideration of  16 degrees of freedom as
           vibrations may cause significant error
 Vibrational temperatures:     89.27   141.14   177.67   210.93   280.82
          (Kelvin)            364.91   481.95   515.36   569.49   599.96
                              683.71   685.98   748.64   776.87   794.68
                              869.50   935.40   978.03  1085.07  1122.78
                             1189.40  1259.63  1318.70  1376.89  1496.25
                             1505.31  1534.56  1617.30  1669.12  1684.64
                             1742.99  1825.34  1867.15  1896.98  1949.07
                             1980.13  2039.28  2068.09  2109.85  2156.65
                             2205.48  2483.48  2610.75  4361.27  4389.24
                             4684.95  5069.77  5171.71  5323.53  5324.54
                             5370.06

 Zero-point correction=                           0.147881 (Hartree/Particle)
 Thermal correction to Energy=                    0.158133
 Thermal correction to Enthalpy=                  0.159077
 Thermal correction to Gibbs Free Energy=         0.111960
 Sum of electronic and zero-point Energies=           -605.600889
 Sum of electronic and thermal Energies=              -605.590638
 Sum of electronic and thermal Enthalpies=            -605.589693
 Sum of electronic and thermal Free Energies=         -605.636810

                     E (Thermal)             CV                S
                      KCal/Mol        Cal/Mol-Kelvin    Cal/Mol-Kelvin
 Total                   99.230             38.843             99.165
 Electronic               0.000              0.000              0.000
 Translational            0.889              2.981             41.120
 Rotational               0.889              2.981             30.296
 Vibrational             97.452             32.881             27.749
 Vibration     1          0.597              1.972              4.391
 Vibration     2          0.604              1.951              3.492
 Vibration     3          0.610              1.929              3.045
 Vibration     4          0.617              1.906              2.716
 Vibration     5          0.636              1.847              2.178
 Vibration     6          0.665              1.757              1.705
 Vibration     7          0.716              1.606              1.236
 Vibration     8          0.733              1.558              1.130
 Vibration     9          0.763              1.479              0.978
 Vibration    10          0.780              1.433              0.902
 Vibration    11          0.832              1.305              0.723
 Vibration    12          0.833              1.302              0.719
 Vibration    13          0.875              1.205              0.609
 Vibration    14          0.895              1.162              0.565
 Vibration    15          0.908              1.135              0.539
 Vibration    16          0.963              1.023              0.442

 Optimization completed.
    -- Stationary point found.
 Normal termination of Gaussian 16 at Tue Dec  8 19:58:21 2020.

 ----------------------------------------------------------------------
 # B3LYP/6-311++G(d,p) empiricaldispersion=gd3bj scf=xqc pop=npa geom=c
 heck
 ----------------------------------------------------------------------

 ---------------------------------------
 CID_141269102_JID_1356_Energie_neutraal
 ---------------------------------------
 Structure from the checkpoint file:  "JID_1356.chk"
 Charge =  0 Multiplicity = 1

 SCF Done:  E(RB3LYP) =  -605.962620953     A.U. after   14 cycles
 Normal termination of Gaussian 16 at Tue Dec  8 20:00:04 2020.

 ----------------------------------------------------------------------
 # B3LYP/6-311++G(d,p) empiricaldispersion=gd3bj scf=xqc pop=npa geom=c
 heck
 ----------------------------------------------------------------------

 -------------------------------------
 CID_141269102_JID_1356_Energie_kation
 -------------------------------------
 Structure from the checkpoint file:  "JID_1356.chk"
 Charge =  1 Multiplicity = 2

 SCF Done:  E(UB3LYP) =  -605.645326667     A.U. after   21 cycles
 Normal termination of Gaussian 16 at Tue Dec  8 20:03:15 2020.
 Gaussian 16:  ES64L-G16RevA.03 25-Dec-2016

 ----------------------------------------------------------------------
 # B3LYP/6-311++G(d,p) empiricaldispersion=gd3bj scf=xqc pop=npa geom=c
 heck
 ----------------------------------------------------------------------

 ------------------------------------
 CID_141269102_JID_1356_Energie_anion
 ------------------------------------
 Structure from the checkpoint file:  "JID_1356.chk"
 Charge = -1 Multiplicity = 2

                         Standard orientation:
 ---------------------------------------------------------------------
 Center     Atomic      Atomic             Coordinates (Angstroms)
 Number     Number       Type             X           Y           Z
 ---------------------------------------------------------------------
      1          6           0       -0.020908    1.055019    0.374873
      2          6           0        0.740054   -0.005663    0.052336
      3          7           0        0.200168   -1.249927   -0.262923
      4          6           0       -1.241333   -1.360775   -0.326099
      5          7           0       -1.857937   -0.102912   -0.665409
      6          6           0       -1.518659    0.992205    0.253028
      7          8           0       -2.053971    2.197374   -0.259763
      8          8           0       -1.749457   -1.805001    0.932816
      9          6           0        2.220366    0.027983   -0.028851
     10          8           0        2.881765   -0.879945   -0.496741
     11          8           0        2.767775    1.172427    0.434792
     12          1           0        0.425296    1.986280    0.698239
     13          1           0        0.738984   -1.775694   -0.939923
     14          1           0       -1.491709   -2.088613   -1.108143
     15          1           0       -2.868716   -0.219631   -0.672208
     16          1           0       -1.990906    0.880114    1.239123
     17          1           0       -1.705115    2.271546   -1.165166
     18          1           0       -1.078253   -2.397966    1.308399
     19          1           0        3.728787    1.082384    0.297440
 ---------------------------------------------------------------------

 SCF Done:  E(UB3LYP) =  -605.960919070     A.U. after   33 cycles
 SCF Done:  E(UB3LYP) =  -605.960919070     a.u. after    1 cycles

 The electronic state is 2-A.
 Alpha  occ. eigenvalues --  -19.01640 -19.00471 -18.98722 -18.94320 -14.18448
 Alpha  occ. eigenvalues --  -14.17732 -10.15805 -10.12079 -10.10989 -10.04848
 Alpha  occ. eigenvalues --   -9.99726  -0.95322  -0.92485  -0.89726  -0.86016
 Alpha  occ. eigenvalues --   -0.80413  -0.74913  -0.63314  -0.54422  -0.52856
 Alpha  occ. eigenvalues --   -0.47559  -0.43119  -0.42482  -0.38358  -0.36557
 Alpha  occ. eigenvalues --   -0.35685  -0.33581  -0.32435  -0.31477  -0.31218
 Alpha  occ. eigenvalues --   -0.29477  -0.26177  -0.24637  -0.23958  -0.21440
 Alpha  occ. eigenvalues --   -0.19526  -0.17554  -0.17069  -0.15879  -0.13253
 Alpha  occ. eigenvalues --   -0.12256  -0.07922   0.05838
 Alpha virt. eigenvalues --    0.08239   0.09424   0.10345   0.10649   0.11391
 Alpha virt. eigenvalues --    0.12868   0.13835   0.15055   0.16769   0.17623
 Alpha virt. eigenvalues --    0.17759   0.18699   0.19825   0.19941   0.20126

  Beta  occ. eigenvalues --  -19.01570 -19.00459 -18.98661 -18.93987 -14.18420
  Beta  occ. eigenvalues --  -14.17686 -10.15797 -10.11702 -10.11008 -10.04716
  Beta  occ. eigenvalues --   -9.99416  -0.94961  -0.92450  -0.89584  -0.85524
  Beta  occ. eigenvalues --   -0.80303  -0.74807  -0.62843  -0.53933  -0.52634
  Beta  occ. eigenvalues --   -0.47284  -0.42978  -0.42301  -0.38240  -0.36413
  Beta  occ. eigenvalues --   -0.35433  -0.33335  -0.32079  -0.31258  -0.30833
  Beta  occ. eigenvalues --   -0.28250  -0.26058  -0.24394  -0.23780  -0.21282
  Beta  occ. eigenvalues --   -0.18954  -0.17396  -0.15806  -0.15700  -0.13046
  Beta  occ. eigenvalues --   -0.11977  -0.06533
  Beta virt. eigenvalues --    0.08325   0.09469   0.10199   0.10694   0.11820
  Beta virt. eigenvalues --    0.12783   0.12853   0.13953   0.15195   0.16647
  Beta virt. eigenvalues --    0.17611   0.17651   0.18716   0.19739   0.19955

 Mulliken charges and spin densities:
               1          2
     1  C   -0.464394   0.830854
     2  C    0.055375  -0.096700
     3  N   -0.228626   0.032066
     4  C   -0.119510  -0.113339
     5  N   -0.223899   0.027169
     6  C    0.632020  -1.079220
     7  O   -0.282602   0.018909
     8  O   -0.234442   0.011142
     9  C   -0.240186   0.199194
    10  O   -0.442883   0.115659
    11  O   -0.232676   0.012241
    12  H    0.136504   0.054981
    13  H    0.217042   0.041444
    14  H   -0.023552   0.207230
    15  H   -0.035245   0.296033
    16  H    0.147403   0.030808
    17  H   -0.107809   0.351330
    18  H    0.259708  -0.003962
    19  H    0.187771   0.064160
 Sum of Mulliken charges =  -1.00000   1.00000

 Dipole moment (field-independent basis, Debye):
    X=              0.5028    Y=             -2.7291    Z=              1.1692  Tot=              3.0113
 Quadrupole moment (field-independent basis, Debye-Ang):
   XX=           -100.9181   YY=            -84.6827   ZZ=            -76.2159
   XY=             10.2423   XZ=              1.6703   YZ=              0.2117

 Summary of Natural Population Analysis:

                                       Natural Population
                Natural  -----------------------------------------------
    Atom  No    Charge         Core      Valence    Rydberg      Total
 -----------------------------------------------------------------------
      C    1   -0.07692      0.99949     2.06713    0.01030     3.07692
      C    2    0.04922      0.99943     1.93744    0.01391     2.95078
      N    3   -0.33495      0.99966     2.82366    0.01162     3.83495
      C    4    0.22774      0.99967     1.74913    0.02346     2.77226
      N    5   -0.34891      0.99971     2.83674    0.01246     3.84891
      C    6    0.13762      0.99957     1.84436    0.01845     2.86238
      O    7   -0.37190      0.99990     3.36488    0.00712     4.37190
      O    8   -0.38606      0.99989     3.38025    0.00592     4.38606
      C    9    0.43411      0.99966     1.54164    0.02459     2.56589
      O   10   -0.31057      0.99987     3.30467    0.00602     4.31057
      O   11   -0.34781      0.99988     3.34153    0.00640     4.34781
      H   12    0.10553      0.00000     0.39324    0.00123     0.39447
      H   13    0.19956      0.00000     0.29870    0.00175     0.30044
      H   14    0.07417      0.00000     0.42452    0.00131     0.42583
      H   15    0.18007      0.00000     0.31662    0.00331     0.31993
      H   16    0.07981      0.00000     0.41866    0.00152     0.42019
      H   17    0.22904      0.00000     0.26545    0.00551     0.27096
      H   18    0.23068      0.00000     0.26657    0.00275     0.26932
      H   19    0.22955      0.00000     0.26625    0.00421     0.27045
 =======================================================================
   * Total *   -0.00000     10.99674    30.84142    0.16184    42.00000

 Normal termination of Gaussian 16 at Tue Dec  8 20:07:59 2020.
