 Gaussian 16, Revision A.03,

 -----------------------------------------------------------
 # opt freq B3LYP/6-31G(d) empiricaldispersion=gd3bj scf=xqc
 -----------------------------------------------------------

 ------------------------------
 CID_66352952_JID_6512_neutraal
 ------------------------------
 Symbolic Z-matrix:
 Charge =  0 Multiplicity = 1

 SCF Done:  E(RB3LYP) =  -1080.73105386     A.U. after   16 cycles
 SCF Done:  E(RB3LYP) =  -1080.73778743     A.U. after   13 cycles
 SCF Done:  E(RB3LYP) =  -1080.73670088     A.U. after   13 cycles
 SCF Done:  E(RB3LYP) =  -1080.74005416     A.U. after   12 cycles
 SCF Done:  E(RB3LYP) =  -1080.74059172     A.U. after   12 cycles
 SCF Done:  E(RB3LYP) =  -1080.74095191     A.U. after   12 cycles
 SCF Done:  E(RB3LYP) =  -1080.74125554     A.U. after   12 cycles
 SCF Done:  E(RB3LYP) =  -1080.74156324     A.U. after   12 cycles
 SCF Done:  E(RB3LYP) =  -1080.74171369     A.U. after   12 cycles
 SCF Done:  E(RB3LYP) =  -1080.74191246     A.U. after   12 cycles
 SCF Done:  E(RB3LYP) =  -1080.74271810     A.U. after    8 cycles
 SCF Done:  E(RB3LYP) =  -1080.74271825     A.U. after    8 cycles
 SCF Done:  E(RB3LYP) =  -1080.74271838     A.U. after    8 cycles
 SCF Done:  E(RB3LYP) =  -1080.74271849     A.U. after    8 cycles
 SCF Done:  E(RB3LYP) =  -1080.74271854     A.U. after    7 cycles
 Optimization completed.
    -- Stationary point found.
 Normal termination of Gaussian 16 at Thu Dec 10 23:34:12 2020.

 --------------------------------------------------------------------
 #N Geom=AllCheck Guess=TCheck SCRF=Check GenChk RB3LYP/6-31G(d) Freq
 --------------------------------------------------------------------

 Structure from the checkpoint file:  "JID_6512.chk"
 ------------------------------
 CID_66352952_JID_6512_neutraal
 ------------------------------
 Charge =  0 Multiplicity = 1

 SCF Done:  E(RB3LYP) =  -1080.74271854     A.U. after    1 cycles

  Exact polarizability: 170.252  18.619 155.671 -10.522   1.875 103.563
 Approx polarizability: 251.993  40.538 252.078 -23.398   5.225 182.909

                      1                      2                      3
                      A                      A                      A
 Frequencies --     19.8919                23.5978                39.0938
 Red. masses --      4.1053                 3.4848                 3.3973
 Frc consts  --      0.0010                 0.0011                 0.0031
 IR Inten    --      0.4871                 0.2396                 0.2164

                      4                      5                      6
                      A                      A                      A
 Frequencies --     51.3307                88.2074                94.0828
 Red. masses --      7.6359                 6.4711                 5.3405
 Frc consts  --      0.0119                 0.0297                 0.0279
 IR Inten    --      0.3263                 0.5108                 3.8584

                      7                      8                      9
                      A                      A                      A
 Frequencies --    156.0207               182.5560               232.2373
 Red. masses --      3.1963                 4.9993                 1.2917
 Frc consts  --      0.0458                 0.0982                 0.0410
 IR Inten    --      2.3812                 2.8409                 2.2242

                     10                     11                     12
                      A                      A                      A
 Frequencies --    258.7642               292.0466               321.8518
 Red. masses --      5.2020                 3.4136                 2.6331
 Frc consts  --      0.2052                 0.1715                 0.1607
 IR Inten    --      1.6333                15.0613                 2.8086

                     13                     14                     15
                      A                      A                      A
 Frequencies --    352.2943               382.3531               390.4879
 Red. masses --      1.3016                 4.2524                 4.6452
 Frc consts  --      0.0952                 0.3663                 0.4173
 IR Inten    --     52.6921                15.2025                13.6108

                     16                     17                     18
                      A                      A                      A
 Frequencies --    406.2371               439.7179               466.8978
 Red. masses --      3.8735                 4.4352                 4.5059
 Frc consts  --      0.3766                 0.5053                 0.5787
 IR Inten    --      4.1319                 9.6961                 1.5694

                     19                     20                     21
                      A                      A                      A
 Frequencies --    503.0007               521.1750               589.7492
 Red. masses --      3.0521                 1.7914                 3.8027
 Frc consts  --      0.4550                 0.2867                 0.7792
 IR Inten    --     18.6082                42.1279                 3.6982

                     22                     23                     24
                      A                      A                      A
 Frequencies --    616.4490               633.5563               646.1538
 Red. masses --      4.2872                 8.4266                 2.9343
 Frc consts  --      0.9599                 1.9928                 0.7218
 IR Inten    --     10.7171                 4.2920                53.3761

                     25                     26                     27
                      A                      A                      A
 Frequencies --    666.0503               675.3637               681.7852
 Red. masses --      3.5599                 1.2833                 2.4797
 Frc consts  --      0.9305                 0.3449                 0.6791
 IR Inten    --     30.3365                20.6550                57.8419

                     28                     29                     30
                      A                      A                      A
 Frequencies --    707.9251               752.5489               756.8487
 Red. masses --      1.6351                 2.0419                 3.2320
 Frc consts  --      0.4828                 0.6813                 1.0908
 IR Inten    --     25.6946               105.2908                18.2078

                     31                     32                     33
                      A                      A                      A
 Frequencies --    788.6539               802.7069               807.3395
 Red. masses --      3.2048                 2.0180                 1.3565
 Frc consts  --      1.1744                 0.7661                 0.5209
 IR Inten    --    105.6965                18.5649                11.1388

                     34                     35                     36
                      A                      A                      A
 Frequencies --    824.3796               854.0434               885.1004
 Red. masses --      2.9741                 4.4115                 2.5538
 Frc consts  --      1.1909                 1.8958                 1.1788
 IR Inten    --     28.5977                30.5832                 4.5457

                     37                     38                     39
                      A                      A                      A
 Frequencies --    893.5142               972.3251              1003.1147
 Red. masses --      1.6418                 2.5457                 2.7748
 Frc consts  --      0.7723                 1.4180                 1.6451
 IR Inten    --      2.2064                 6.1326                 6.6614

                     40                     41                     42
                      A                      A                      A
 Frequencies --   1047.5579              1110.7243              1114.7721
 Red. masses --      3.9688                 1.1762                 1.6664
 Frc consts  --      2.5661                 0.8550                 1.2201
 IR Inten    --      5.9294                 7.5296                 5.8985

                     43                     44                     45
                      A                      A                      A
 Frequencies --   1127.1017              1130.6798              1183.2111
 Red. masses --      1.8617                 1.6673                 2.4806
 Frc consts  --      1.3934                 1.2558                 2.0461
 IR Inten    --      8.1484                 6.0117                95.6824

                     46                     47                     48
                      A                      A                      A
 Frequencies --   1218.1891              1222.4734              1260.2203
 Red. masses --      1.5209                 2.0294                 1.6990
 Frc consts  --      1.3297                 1.7869                 1.5898
 IR Inten    --     50.0473                24.0902                23.3077

                     49                     50                     51
                      A                      A                      A
 Frequencies --   1287.1344              1378.1884              1389.1575
 Red. masses --      1.5983                 4.4079                 2.6479
 Frc consts  --      1.5601                 4.9329                 3.0106
 IR Inten    --      9.4018               143.4843               101.0165

                     52                     53                     54
                      A                      A                      A
 Frequencies --   1403.8324              1410.6122              1417.0959
 Red. masses --      2.0183                 2.3902                 1.7520
 Frc consts  --      2.3435                 2.8023                 2.0730
 IR Inten    --     38.3957                46.0244                10.2588

                     55                     56                     57
                      A                      A                      A
 Frequencies --   1439.3154              1460.0036              1481.0258
 Red. masses --      1.3146                 3.2579                 4.2433
 Frc consts  --      1.6045                 4.0916                 5.4837
 IR Inten    --      4.2968                24.8125                50.2078

                     58                     59                     60
                      A                      A                      A
 Frequencies --   1494.4536              1513.4486              1518.8511
 Red. masses --      4.5741                 1.0883                 1.0481
 Frc consts  --      6.0190                 1.4687                 1.4246
 IR Inten    --     37.8026                 3.8987                 7.2874

                     61                     62                     63
                      A                      A                      A
 Frequencies --   1536.0322              1539.2860              1602.4910
 Red. masses --      2.9296                 1.3101                 5.9103
 Frc consts  --      4.0725                 1.8289                 8.9424
 IR Inten    --    130.0422                45.8107                36.6012

                     64                     65                     66
                      A                      A                      A
 Frequencies --   1612.0292              1676.2284              1741.2720
 Red. masses --      3.1367                 1.6406                 4.6820
 Frc consts  --      4.8026                 2.7160                 8.3640
 IR Inten    --     14.0688               245.1431               278.3786

                     67                     68                     69
                      A                      A                      A
 Frequencies --   3059.8383              3082.7663              3122.8984
 Red. masses --      1.0354                 1.0594                 1.1049
 Frc consts  --      5.7113                 5.9321                 6.3485
 IR Inten    --     22.1916                28.8578                 7.2625

                     70                     71                     72
                      A                      A                      A
 Frequencies --   3133.5146              3152.2286              3233.7209
 Red. masses --      1.1034                 1.1047                 1.0913
 Frc consts  --      6.3836                 6.4676                 6.7234
 IR Inten    --     29.2403                15.3324                 2.2841

                     73                     74                     75
                      A                      A                      A
 Frequencies --   3274.7739              3279.5736              3280.0090
 Red. masses --      1.0975                 1.0971                 1.0949
 Frc consts  --      6.9344                 6.9523                 6.9404
 IR Inten    --      0.8385                 2.5657                 1.5851

                     76                     77                     78
                      A                      A                      A
 Frequencies --   3509.1994              3569.3321              3626.2783
 Red. masses --      1.0500                 1.0748                 1.0959
 Frc consts  --      7.6179                 8.0676                 8.4905
 IR Inten    --     42.7616                38.3270                30.4065

 - Thermochemistry -
 -------------------
 Temperature   298.150 Kelvin.  Pressure   1.00000 Atm.
 Atom     1 has atomic number  6 and mass  12.00000

 Molecular mass:   236.07318 amu.
 Principal axes and moments of inertia in atomic units:
                           1         2         3
     Eigenvalues --  2777.996894546.045106581.96495
           X            0.99987  -0.01292  -0.00976
           Y            0.01292   0.99992  -0.00004
           Z            0.00976  -0.00009   0.99995
 This molecule is an asymmetric top.
 Rotational symmetry number  1.
 Warning -- assumption of classical behavior for rotation
           may cause significant error
 Rotational temperatures (Kelvin)      0.03118     0.01905     0.01316
 Rotational constants (GHZ):           0.64966     0.39699     0.27419
 Zero-point vibrational energy     576713.5 (Joules/Mol)
                                  137.83784 (Kcal/Mol)
 Warning -- explicit consideration of  22 degrees of freedom as
           vibrations may cause significant error
 Vibrational temperatures:     28.62    33.95    56.25    73.85   126.91
          (Kelvin)            135.36   224.48   262.66   334.14   372.30
                              420.19   463.07   506.87   550.12   561.83
                              584.48   632.66   671.76   723.71   749.85
                              848.52   886.93   911.55   929.67   958.30
                              971.70   980.94  1018.55  1082.75  1088.94
                             1134.70  1154.92  1161.58  1186.10  1228.78
                             1273.46  1285.57  1398.96  1443.26  1507.20
                             1598.08  1603.91  1621.65  1626.80  1702.38
                             1752.70  1758.87  1813.18  1851.90  1982.91
                             1998.69  2019.80  2029.56  2038.88  2070.85
                             2100.62  2130.87  2150.19  2177.52  2185.29
                             2210.01  2214.69  2305.63  2319.35  2411.72
                             2505.30  4402.42  4435.41  4493.15  4508.43
                             4535.35  4652.60  4711.67  4718.57  4719.20
                             5048.96  5135.47  5217.41

 Zero-point correction=                           0.219659 (Hartree/Particle)
 Thermal correction to Energy=                    0.234874
 Thermal correction to Enthalpy=                  0.235818
 Thermal correction to Gibbs Free Energy=         0.174459
 Sum of electronic and zero-point Energies=          -1080.523060
 Sum of electronic and thermal Energies=             -1080.507845
 Sum of electronic and thermal Enthalpies=           -1080.506901
 Sum of electronic and thermal Free Energies=        -1080.568260

                     E (Thermal)             CV                S
                      KCal/Mol        Cal/Mol-Kelvin    Cal/Mol-Kelvin
 Total                  147.386             57.014            129.141
 Electronic               0.000              0.000              0.000
 Translational            0.889              2.981             42.278
 Rotational               0.889              2.981             32.786
 Vibrational            145.608             51.053             54.077
 Vibration     1          0.593              1.986              6.645
 Vibration     2          0.593              1.985              6.306
 Vibration     3          0.594              1.981              5.304
 Vibration     4          0.596              1.977              4.765
 Vibration     5          0.601              1.957              3.699
 Vibration     6          0.603              1.953              3.573
 Vibration     7          0.620              1.896              2.597
 Vibration     8          0.630              1.864              2.302
 Vibration     9          0.653              1.792              1.862
 Vibration    10          0.668              1.748              1.670
 Vibration    11          0.687              1.689              1.462
 Vibration    12          0.707              1.632              1.301
 Vibration    13          0.729              1.571              1.156
 Vibration    14          0.752              1.508              1.030
 Vibration    15          0.758              1.491              0.998
 Vibration    16          0.771              1.457              0.940
 Vibration    17          0.800              1.384              0.827
 Vibration    18          0.824              1.323              0.746
 Vibration    19          0.858              1.243              0.651
 Vibration    20          0.876              1.203              0.607
 Vibration    21          0.947              1.054              0.468
 Vibration    22          0.976              0.997              0.422

 Optimization completed.
    -- Stationary point found.
 Normal termination of Gaussian 16 at Thu Dec 10 23:44:16 2020.

 ----------------------------------------------------------------------
 # B3LYP/6-311++G(d,p) empiricaldispersion=gd3bj scf=xqc pop=npa geom=c
 heck
 ----------------------------------------------------------------------

 --------------------------------------
 CID_66352952_JID_6512_Energie_neutraal
 --------------------------------------
 Structure from the checkpoint file:  "JID_6512.chk"
 Charge =  0 Multiplicity = 1

 SCF Done:  E(RB3LYP) =  -1080.96514657     A.U. after   16 cycles
 Normal termination of Gaussian 16 at Thu Dec 10 23:49:13 2020.

 ----------------------------------------------------------------------
 # B3LYP/6-311++G(d,p) empiricaldispersion=gd3bj scf=xqc pop=npa geom=c
 heck
 ----------------------------------------------------------------------

 ------------------------------------
 CID_66352952_JID_6512_Energie_kation
 ------------------------------------
 Structure from the checkpoint file:  "JID_6512.chk"
 Charge =  1 Multiplicity = 2

 SCF Done:  E(UB3LYP) =  -1080.68792839     A.U. after   29 cycles
 Normal termination of Gaussian 16 at Fri Dec 11 00:02:06 2020.
 Gaussian 16:  ES64L-G16RevA.03 25-Dec-2016

 ----------------------------------------------------------------------
 # B3LYP/6-311++G(d,p) empiricaldispersion=gd3bj scf=xqc pop=npa geom=c
 heck
 ----------------------------------------------------------------------

 -----------------------------------
 CID_66352952_JID_6512_Energie_anion
 -----------------------------------
 Structure from the checkpoint file:  "JID_6512.chk"
 Charge = -1 Multiplicity = 2

                         Standard orientation:
 ---------------------------------------------------------------------
 Center     Atomic      Atomic             Coordinates (Angstroms)
 Number     Number       Type             X           Y           Z
 ---------------------------------------------------------------------
      1          6           0       -0.001307    3.385088    0.434101
      2          6           0       -0.913573    2.906682   -0.694425
      3          7           0       -1.439322    1.572881   -0.437514
      4          6           0       -2.694315    1.239196    0.007221
      5          6           0       -2.687428   -0.133459    0.210522
      6          6           0       -1.357154   -0.528328   -0.125498
      7          7           0       -0.619332    0.529700   -0.515071
      8          6           0       -0.886714   -1.920971   -0.124580
      9          8           0       -1.685687   -2.857536   -0.004915
     10          7           0        0.454632   -2.185297   -0.292491
     11          6           0        1.543793   -1.288695   -0.139987
     12          6           0        1.882939   -0.701844    1.049756
     13         16           0        3.216227    0.383719    0.862223
     14          6           0        3.345159    0.008793   -0.831897
     15          6           0        2.392689   -0.886239   -1.220829
     16          7           0       -3.693933   -0.960409    0.691522
     17          1           0       -0.548815    3.432466    1.381184
     18          1           0        0.390311    4.382804    0.207864
     19          1           0        0.839010    2.695195    0.552104
     20          1           0       -1.772020    3.572000   -0.825185
     21          1           0       -0.367975    2.865084   -1.641423
     22          1           0       -3.469462    1.980595    0.130247
     23          1           0        0.648301   -3.180522   -0.307483
     24          1           0        1.389122   -0.819932    2.003640
     25          1           0        4.110961    0.479995   -1.432134
     26          1           0        2.265959   -1.245016   -2.235410
     27          1           0       -3.488445   -1.933575    0.480633
     28          1           0       -4.629936   -0.687780    0.418272
 ---------------------------------------------------------------------

 SCF Done:  E(UB3LYP) =  -1080.95512627     A.U. after   33 cycles
 SCF Done:  E(UB3LYP) =  -1080.95512627     a.u. after    1 cycles

 The electronic state is 2-A.
 Alpha  occ. eigenvalues --  -88.78285 -18.98111 -14.28012 -14.23822 -14.21513
 Alpha  occ. eigenvalues --  -14.20694 -10.16703 -10.11657 -10.10737 -10.10308
 Alpha  occ. eigenvalues --  -10.10007 -10.09940 -10.08666 -10.08131 -10.08045
 Alpha  occ. eigenvalues --  -10.06051  -7.86885  -5.83167  -5.82806  -5.82500
 Alpha  occ. eigenvalues --   -0.94805  -0.93105  -0.83292  -0.80386  -0.77476
 Alpha  occ. eigenvalues --   -0.73617  -0.66979  -0.64097  -0.63443  -0.62680
 Alpha  occ. eigenvalues --   -0.56496  -0.51732  -0.48987  -0.47810  -0.47661
 Alpha  occ. eigenvalues --   -0.45669  -0.43597  -0.41245  -0.39405  -0.38294
 Alpha  occ. eigenvalues --   -0.36416  -0.35183  -0.34737  -0.33456  -0.32776
 Alpha  occ. eigenvalues --   -0.31416  -0.30518  -0.29774  -0.29051  -0.28651
 Alpha  occ. eigenvalues --   -0.27903  -0.26953  -0.25840  -0.25492  -0.22335
 Alpha  occ. eigenvalues --   -0.19256  -0.17496  -0.15840  -0.15499  -0.15072
 Alpha  occ. eigenvalues --   -0.13385  -0.09933   0.04351
 Alpha virt. eigenvalues --    0.06318   0.06739   0.07316   0.07505   0.07970
 Alpha virt. eigenvalues --    0.08574   0.09338   0.09734   0.10046   0.11168
 Alpha virt. eigenvalues --    0.11630   0.11878   0.12342   0.12634   0.13086

  Beta  occ. eigenvalues --  -88.78278 -18.98018 -14.27944 -14.23820 -14.21352
  Beta  occ. eigenvalues --  -14.20689 -10.16611 -10.11642 -10.10713 -10.10258
  Beta  occ. eigenvalues --  -10.10019 -10.09894 -10.08640 -10.08128 -10.08032
  Beta  occ. eigenvalues --  -10.06020  -7.86879  -5.83163  -5.82803  -5.82478
  Beta  occ. eigenvalues --   -0.94637  -0.92939  -0.83230  -0.80370  -0.77419
  Beta  occ. eigenvalues --   -0.73471  -0.66885  -0.64033  -0.63357  -0.62604
  Beta  occ. eigenvalues --   -0.56345  -0.51657  -0.48923  -0.47694  -0.47574
  Beta  occ. eigenvalues --   -0.45620  -0.43552  -0.41169  -0.39339  -0.38190
  Beta  occ. eigenvalues --   -0.36279  -0.35032  -0.34645  -0.33372  -0.32646
  Beta  occ. eigenvalues --   -0.31335  -0.30418  -0.29636  -0.28943  -0.28520
  Beta  occ. eigenvalues --   -0.27789  -0.26788  -0.25776  -0.25446  -0.22191
  Beta  occ. eigenvalues --   -0.19066  -0.17314  -0.15709  -0.15352  -0.14699
  Beta  occ. eigenvalues --   -0.13092  -0.09717
  Beta virt. eigenvalues --    0.06809   0.07226   0.07318   0.07865   0.08191
  Beta virt. eigenvalues --    0.08262   0.08949   0.09830   0.10071   0.10268
  Beta virt. eigenvalues --    0.11178   0.11933   0.12384   0.12549   0.12819

 Mulliken charges and spin densities:
               1          2
     1  C    0.488240  -0.974539
     2  C   -0.009162  -0.161865
     3  N    0.683249  -0.117484
     4  C   -0.638323   0.438228
     5  C    0.129297  -0.312941
     6  C    1.351067  -1.125186
     7  N   -0.583299   0.371416
     8  C    0.244843  -0.393772
     9  O   -0.414960   0.033848
    10  N   -0.261950  -0.003340
    11  C   -0.484426  -0.350537
    12  C   -0.074066   0.286958
    13  S    0.300231  -0.185358
    14  C    0.056630  -0.684548
    15  C    0.084713   0.290717
    16  N   -0.419714   0.045264
    17  H    0.021822   0.115060
    18  H   -0.431492   0.564263
    19  H    0.160575  -0.037303
    20  H   -0.444573   0.596323
    21  H   -0.226913   0.404234
    22  H   -0.932416   1.106156
    23  H    0.295262   0.024565
    24  H    0.220184   0.023554
    25  H   -0.412956   0.656338
    26  H   -0.070744   0.250377
    27  H    0.287791  -0.009683
    28  H    0.081089   0.149255
 Sum of Mulliken charges =  -1.00000   1.00000

 Dipole moment (field-independent basis, Debye):
    X=              2.8629    Y=             -5.4611    Z=              2.1042  Tot=              6.5152
 Quadrupole moment (field-independent basis, Debye-Ang):
   XX=           -158.1738   YY=           -164.3752   ZZ=           -124.3033
   XY=              3.4039   XZ=              5.1433   YZ=              6.1096

 Summary of Natural Population Analysis:

                                       Natural Population
                Natural  -----------------------------------------------
    Atom  No    Charge         Core      Valence    Rydberg      Total
 -----------------------------------------------------------------------
      C    1   -0.29011      0.99966     2.28489    0.00557     3.29011
      C    2   -0.08081      0.99962     2.06994    0.01125     3.08081
      N    3   -0.08327      0.99967     2.56984    0.01375     3.58327
      C    4   -0.04429      0.99951     2.03358    0.01120     3.04429
      C    5    0.05299      0.99948     1.93624    0.01129     2.94701
      C    6   -0.00730      0.99949     1.99450    0.01331     3.00730
      N    7   -0.11409      0.99970     2.60268    0.01171     3.61409
      C    8    0.34452      0.99961     1.63531    0.02057     2.65548
      O    9   -0.33522      0.99988     3.32995    0.00539     4.33522
      N   10   -0.31806      0.99964     2.80873    0.00970     3.81806
      C   11    0.04945      0.99942     1.93809    0.01304     2.95055
      C   12   -0.18070      0.99946     2.17213    0.00912     3.18070
      S   13    0.20150      4.99946     2.77598    0.02306     7.79850
      C   14   -0.18642      0.99955     2.17489    0.01198     3.18642
      C   15   -0.12157      0.99948     2.11117    0.01092     3.12157
      N   16   -0.40869      0.99971     2.89915    0.00983     3.90869
      H   17    0.09671      0.00000     0.40220    0.00109     0.40329
      H   18    0.10129      0.00000     0.39694    0.00177     0.39871
      H   19    0.10724      0.00000     0.39130    0.00146     0.39276
      H   20    0.09991      0.00000     0.39702    0.00308     0.40009
      H   21    0.10331      0.00000     0.39470    0.00199     0.39669
      H   22    0.10472      0.00000     0.39359    0.00169     0.39528
      H   23    0.19398      0.00000     0.30348    0.00254     0.30602
      H   24    0.11213      0.00000     0.38692    0.00094     0.38787
      H   25    0.11015      0.00000     0.38853    0.00132     0.38985
      H   26    0.10915      0.00000     0.38975    0.00111     0.39085
      H   27    0.20301      0.00000     0.29513    0.00185     0.29699
      H   28    0.18050      0.00000     0.31811    0.00139     0.31950
 =======================================================================
   * Total *   -0.00000     19.99333    41.79474    0.21193    62.00000

 Normal termination of Gaussian 16 at Fri Dec 11 00:16:37 2020.
