 Gaussian 16, Revision A.03,

 -----------------------------------------------------------
 # opt freq B3LYP/6-31G(d) empiricaldispersion=gd3bj scf=xqc
 -----------------------------------------------------------

 ------------------------------
 CID_13298656_JID_5058_neutraal
 ------------------------------
 Symbolic Z-matrix:
 Charge =  0 Multiplicity = 1

 SCF Done:  E(RB3LYP) =  -957.437810484     A.U. after   16 cycles
 SCF Done:  E(RB3LYP) =  -957.446440489     A.U. after   13 cycles
 SCF Done:  E(RB3LYP) =  -957.447160537     A.U. after   12 cycles
 SCF Done:  E(RB3LYP) =  -957.447138939     A.U. after   12 cycles
 SCF Done:  E(RB3LYP) =  -957.447504443     A.U. after   12 cycles
 SCF Done:  E(RB3LYP) =  -957.447622707     A.U. after   11 cycles
 SCF Done:  E(RB3LYP) =  -957.447812171     A.U. after   12 cycles
 SCF Done:  E(RB3LYP) =  -957.448174610     A.U. after   12 cycles
 SCF Done:  E(RB3LYP) =  -957.448228387     A.U. after   11 cycles
 SCF Done:  E(RB3LYP) =  -957.448128096     A.U. after   12 cycles
 SCF Done:  E(RB3LYP) =  -957.451123723     A.U. after   12 cycles
 SCF Done:  E(RB3LYP) =  -957.451311476     A.U. after   11 cycles
 SCF Done:  E(RB3LYP) =  -957.451336161     A.U. after   10 cycles
 SCF Done:  E(RB3LYP) =  -957.451337945     A.U. after    9 cycles
 SCF Done:  E(RB3LYP) =  -957.451338330     A.U. after    8 cycles
 SCF Done:  E(RB3LYP) =  -957.451338385     A.U. after    7 cycles
 Optimization completed.
    -- Stationary point found.
 Normal termination of Gaussian 16 at Thu Dec 10 14:51:23 2020.

 --------------------------------------------------------------------
 #N Geom=AllCheck Guess=TCheck SCRF=Check GenChk RB3LYP/6-31G(d) Freq
 --------------------------------------------------------------------

 Structure from the checkpoint file:  "JID_5058.chk"
 ------------------------------
 CID_13298656_JID_5058_neutraal
 ------------------------------
 Charge =  0 Multiplicity = 1

 SCF Done:  E(RB3LYP) =  -957.451338385     A.U. after    1 cycles

  Exact polarizability: 219.448  -7.200 192.505 -18.204  -0.556  84.546
 Approx polarizability: 342.904 -28.010 351.433 -41.126   0.202 129.067

                      1                      2                      3
                      A                      A                      A
 Frequencies --     42.2343                54.6205                97.3771
 Red. masses --      4.7323                 3.0109                 5.0825
 Frc consts  --      0.0050                 0.0053                 0.0284
 IR Inten    --      1.5934                 0.0767                 1.7487

                      4                      5                      6
                      A                      A                      A
 Frequencies --    111.8631               140.2306               187.3738
 Red. masses --      2.6700                 2.2288                 3.3758
 Frc consts  --      0.0197                 0.0258                 0.0698
 IR Inten    --      0.1259                 0.7976                 1.0604

                      7                      8                      9
                      A                      A                      A
 Frequencies --    211.5837               248.9306               255.9332
 Red. masses --      1.1299                 1.2969                 3.0678
 Frc consts  --      0.0298                 0.0474                 0.1184
 IR Inten    --      0.2424                 0.0715                 0.8757

                     10                     11                     12
                      A                      A                      A
 Frequencies --    265.3688               287.6399               342.6109
 Red. masses --      4.1459                 3.4326                 3.3345
 Frc consts  --      0.1720                 0.1673                 0.2306
 IR Inten    --      1.1080                 0.3600                 0.9675

                     13                     14                     15
                      A                      A                      A
 Frequencies --    370.7340               388.3369               425.0221
 Red. masses --      3.8269                 3.8004                 3.2663
 Frc consts  --      0.3099                 0.3377                 0.3476
 IR Inten    --      4.7070                 8.8427                 2.3493

                     16                     17                     18
                      A                      A                      A
 Frequencies --    431.4929               467.6107               508.9163
 Red. masses --      3.7633                 4.2288                 4.4675
 Frc consts  --      0.4128                 0.5448                 0.6817
 IR Inten    --      1.0241                 2.6354                 0.3217

                     19                     20                     21
                      A                      A                      A
 Frequencies --    549.2822               584.1692               594.0153
 Red. masses --      3.3408                 3.8676                 3.1099
 Frc consts  --      0.5939                 0.7776                 0.6465
 IR Inten    --      1.0327                 0.5604                 1.0568

                     22                     23                     24
                      A                      A                      A
 Frequencies --    638.4663               659.9753               691.9527
 Red. masses --      4.2328                 4.5959                 6.2531
 Frc consts  --      1.0166                 1.1794                 1.7640
 IR Inten    --      4.6720                 4.3793                11.0778

                     25                     26                     27
                      A                      A                      A
 Frequencies --    779.8668               782.7056               789.8665
 Red. masses --      2.2505                 1.6369                 2.7061
 Frc consts  --      0.8065                 0.5909                 0.9947
 IR Inten    --      5.4309                32.9856                 5.2700

                     28                     29                     30
                      A                      A                      A
 Frequencies --    807.2185               866.2413               871.7282
 Red. masses --      1.8751                 1.3362                 2.8669
 Frc consts  --      0.7199                 0.5908                 1.2836
 IR Inten    --      9.5455                12.4916                 0.6873

                     31                     32                     33
                      A                      A                      A
 Frequencies --    893.4528               909.9115               949.6668
 Red. masses --      1.5106                 1.5721                 2.5346
 Frc consts  --      0.7105                 0.7669                 1.3468
 IR Inten    --      1.4720                 4.9954                 3.8595

                     34                     35                     36
                      A                      A                      A
 Frequencies --    974.5074              1006.2782              1028.0641
 Red. masses --      1.3348                 1.2998                 1.8129
 Frc consts  --      0.7469                 0.7755                 1.1289
 IR Inten    --      1.0612                 0.1727                 0.7307

                     37                     38                     39
                      A                      A                      A
 Frequencies --   1051.4122              1070.3457              1081.0456
 Red. masses --      2.5081                 2.4716                 1.4684
 Frc consts  --      1.6336                 1.6683                 1.0110
 IR Inten    --     18.5881                15.8637                 1.3739

                     40                     41                     42
                      A                      A                      A
 Frequencies --   1083.8112              1105.6082              1123.8335
 Red. masses --      3.9889                 2.2876                 1.9462
 Frc consts  --      2.7606                 1.6475                 1.4483
 IR Inten    --     23.1040                 0.3228                10.6477

                     43                     44                     45
                      A                      A                      A
 Frequencies --   1143.2881              1181.5024              1199.6940
 Red. masses --      1.8631                 2.1439                 1.1713
 Frc consts  --      1.4348                 1.7633                 0.9933
 IR Inten    --     14.4531                68.3655                 2.0009

                     46                     47                     48
                      A                      A                      A
 Frequencies --   1210.8948              1252.6502              1286.9674
 Red. masses --      2.2012                 2.0977                 1.6874
 Frc consts  --      1.9016                 1.9394                 1.6467
 IR Inten    --     46.5543                 8.4978                55.1249

                     49                     50                     51
                      A                      A                      A
 Frequencies --   1309.3367              1315.1312              1359.9997
 Red. masses --      1.5722                 1.2118                 4.1945
 Frc consts  --      1.5880                 1.2348                 4.5710
 IR Inten    --     11.7108                 0.9465                71.7097

                     52                     53                     54
                      A                      A                      A
 Frequencies --   1381.8142              1395.2333              1408.4030
 Red. masses --      8.4974                 1.5456                 1.4301
 Frc consts  --      9.5595                 1.7727                 1.6713
 IR Inten    --     11.7234                18.5321                41.9488

                     55                     56                     57
                      A                      A                      A
 Frequencies --   1427.1683              1443.9136              1450.1095
 Red. masses --      1.6098                 1.9397                 1.3192
 Frc consts  --      1.9318                 2.3827                 1.6345
 IR Inten    --     72.7729                18.1187                 8.2423

                     58                     59                     60
                      A                      A                      A
 Frequencies --   1451.8949              1492.7303              1510.8034
 Red. masses --      1.3104                 2.1909                 1.0443
 Frc consts  --      1.6275                 2.8763                 1.4044
 IR Inten    --      7.8938                 5.5496                 7.0074

                     61                     62                     63
                      A                      A                      A
 Frequencies --   1513.1503              1513.8618              1527.2470
 Red. masses --      1.0663                 1.0976                 1.1086
 Frc consts  --      1.4385                 1.4821                 1.5235
 IR Inten    --      6.6781                 2.6556                14.6800

                     64                     65                     66
                      A                      A                      A
 Frequencies --   1532.2775              1535.4400              1541.9726
 Red. masses --      1.1458                 1.0606                 2.4667
 Frc consts  --      1.5850                 1.4732                 3.4555
 IR Inten    --      3.9512                 6.5400                80.5016

                     67                     68                     69
                      A                      A                      A
 Frequencies --   1604.3281              1667.2876              1703.8000
 Red. masses --      5.2297                 5.6460                 5.9631
 Frc consts  --      7.9307                 9.2473                10.1990
 IR Inten    --     27.1198                10.4665                42.0922

                     70                     71                     72
                      A                      A                      A
 Frequencies --   3032.2513              3041.4952              3060.8348
 Red. masses --      1.0635                 1.0377                 1.0371
 Frc consts  --      5.7613                 5.6557                 5.7249
 IR Inten    --     28.7858                39.3829                21.4887

                     73                     74                     75
                      A                      A                      A
 Frequencies --   3068.4138              3076.6878              3091.8875
 Red. masses --      1.0917                 1.0767                 1.1011
 Frc consts  --      6.0560                 6.0049                 6.2019
 IR Inten    --     12.3717                58.3198                18.0466

                     76                     77                     78
                      A                      A                      A
 Frequencies --   3124.2996              3128.0455              3144.1384
 Red. masses --      1.1019                 1.1002                 1.1022
 Frc consts  --      6.3369                 6.3428                 6.4199
 IR Inten    --     49.4326                17.7796                14.7713

                     79                     80                     81
                      A                      A                      A
 Frequencies --   3167.2861              3190.7465              3206.8391
 Red. masses --      1.0963                 1.0865                 1.0912
 Frc consts  --      6.4799                 6.5171                 6.6118
 IR Inten    --      7.1566                 4.3200                19.9384

                     82                     83                     84
                      A                      A                      A
 Frequencies --   3219.4364              3224.6532              3234.8892
 Red. masses --      1.0939                 1.0918                 1.0926
 Frc consts  --      6.6805                 6.6888                 6.7365
 IR Inten    --     19.3094                 8.1842                 6.4988

 - Thermochemistry -
 -------------------
 Temperature   298.150 Kelvin.  Pressure   1.00000 Atm.
 Atom     1 has atomic number  6 and mass  12.00000

 Molecular mass:   217.09252 amu.
 Principal axes and moments of inertia in atomic units:
                           1         2         3
     Eigenvalues --  2239.325584053.620925692.24195
           X            0.99991   0.01064   0.00796
           Y           -0.01056   0.99990  -0.00899
           Z           -0.00806   0.00891   0.99993
 This molecule is an asymmetric top.
 Rotational symmetry number  1.
 Warning -- assumption of classical behavior for rotation
           may cause significant error
 Rotational temperatures (Kelvin)      0.03868     0.02137     0.01522
 Rotational constants (GHZ):           0.80593     0.44522     0.31705
 Zero-point vibrational energy     664550.1 (Joules/Mol)
                                  158.83130 (Kcal/Mol)
 Warning -- explicit consideration of  21 degrees of freedom as
           vibrations may cause significant error
 Vibrational temperatures:     60.77    78.59   140.10   160.95   201.76
          (Kelvin)            269.59   304.42   358.16   368.23   381.81
                              413.85   492.94   533.40   558.73   611.51
                              620.82   672.79   732.22   790.29   840.49
                              854.66   918.61   949.56   995.57  1122.05
                             1126.14  1136.44  1161.41  1246.33  1254.22
                             1285.48  1309.16  1366.36  1402.10  1447.81
                             1479.15  1512.75  1539.99  1555.38  1559.36
                             1590.72  1616.95  1644.94  1699.92  1726.09
                             1742.21  1802.28  1851.66  1883.84  1892.18
                             1956.74  1988.12  2007.43  2026.38  2053.38
                             2077.47  2086.38  2088.95  2147.71  2173.71
                             2177.09  2178.11  2197.37  2204.61  2209.16
                             2218.55  2308.27  2398.85  2451.39  4362.73
                             4376.03  4403.86  4414.76  4426.67  4448.54
                             4495.17  4500.56  4523.71  4557.02  4590.77
                             4613.93  4632.05  4639.56  4654.28

 Zero-point correction=                           0.253114 (Hartree/Particle)
 Thermal correction to Energy=                    0.266782
 Thermal correction to Enthalpy=                  0.267726
 Thermal correction to Gibbs Free Energy=         0.212506
 Sum of electronic and zero-point Energies=           -957.198225
 Sum of electronic and thermal Energies=              -957.184556
 Sum of electronic and thermal Enthalpies=            -957.183612
 Sum of electronic and thermal Free Energies=         -957.238833

                     E (Thermal)             CV                S
                      KCal/Mol        Cal/Mol-Kelvin    Cal/Mol-Kelvin
 Total                  167.408             53.340            116.221
 Electronic               0.000              0.000              0.000
 Translational            0.889              2.981             42.029
 Rotational               0.889              2.981             32.313
 Vibrational            165.631             47.378             41.880
 Vibration     1          0.595              1.980              5.151
 Vibration     2          0.596              1.976              4.643
 Vibration     3          0.603              1.951              3.506
 Vibration     4          0.607              1.940              3.236
 Vibration     5          0.615              1.913              2.801
 Vibration     6          0.632              1.857              2.254
 Vibration     7          0.643              1.823              2.030
 Vibration     8          0.662              1.765              1.738
 Vibration     9          0.666              1.753              1.689
 Vibration    10          0.671              1.737              1.626
 Vibration    11          0.685              1.697              1.488
 Vibration    12          0.722              1.590              1.200
 Vibration    13          0.743              1.532              1.077
 Vibration    14          0.757              1.495              1.007
 Vibration    15          0.787              1.416              0.875
 Vibration    16          0.793              1.402              0.854
 Vibration    17          0.825              1.322              0.744
 Vibration    18          0.864              1.230              0.636
 Vibration    19          0.905              1.141              0.546
 Vibration    20          0.941              1.066              0.478
 Vibration    21          0.952              1.045              0.460

 Optimization completed.
    -- Stationary point found.
 Normal termination of Gaussian 16 at Thu Dec 10 15:00:22 2020.

 ----------------------------------------------------------------------
 # B3LYP/6-311++G(d,p) empiricaldispersion=gd3bj scf=xqc pop=npa geom=c
 heck
 ----------------------------------------------------------------------

 --------------------------------------
 CID_13298656_JID_5058_Energie_neutraal
 --------------------------------------
 Structure from the checkpoint file:  "JID_5058.chk"
 Charge =  0 Multiplicity = 1

 SCF Done:  E(RB3LYP) =  -957.617446739     A.U. after   16 cycles
 Normal termination of Gaussian 16 at Thu Dec 10 15:05:57 2020.

 ----------------------------------------------------------------------
 # B3LYP/6-311++G(d,p) empiricaldispersion=gd3bj scf=xqc pop=npa geom=c
 heck
 ----------------------------------------------------------------------

 ------------------------------------
 CID_13298656_JID_5058_Energie_kation
 ------------------------------------
 Structure from the checkpoint file:  "JID_5058.chk"
 Charge =  1 Multiplicity = 2

 SCF Done:  E(UB3LYP) =  -957.353243220     A.U. after   31 cycles
 Normal termination of Gaussian 16 at Thu Dec 10 15:19:47 2020.
 Gaussian 16:  ES64L-G16RevA.03 25-Dec-2016

 ----------------------------------------------------------------------
 # B3LYP/6-311++G(d,p) empiricaldispersion=gd3bj scf=xqc pop=npa geom=c
 heck
 ----------------------------------------------------------------------

 -----------------------------------
 CID_13298656_JID_5058_Energie_anion
 -----------------------------------
 Structure from the checkpoint file:  "JID_5058.chk"
 Charge = -1 Multiplicity = 2

                         Standard orientation:
 ---------------------------------------------------------------------
 Center     Atomic      Atomic             Coordinates (Angstroms)
 Number     Number       Type             X           Y           Z
 ---------------------------------------------------------------------
      1          6           0        3.223911   -0.046248    1.661883
      2          6           0        3.423419    0.850982    0.438832
      3          6           0        2.627159    0.409460   -0.793680
      4          7           0        1.171386    0.383363   -0.543732
      5          6           0        0.563495    1.620473   -0.462480
      6          6           0       -0.753635    1.803339   -0.206668
      7          6           0       -1.560775    0.625253   -0.009507
      8          6           0       -2.942722    0.711575    0.265690
      9          6           0       -3.702874   -0.429399    0.446705
     10          6           0       -3.101395   -1.695255    0.356969
     11          6           0       -1.748989   -1.802822    0.089608
     12          6           0       -0.949347   -0.656835   -0.098874
     13          6           0        0.484608   -0.804022   -0.376804
     14         16           0        1.248623   -2.303928   -0.486688
     15          6           0       -1.337772    3.187632   -0.139165
     16          1           0        2.176295   -0.051977    1.980255
     17          1           0        3.829166    0.310032    2.502519
     18          1           0        3.502532   -1.080788    1.443368
     19          1           0        3.161634    1.887611    0.692944
     20          1           0        4.481925    0.865265    0.148286
     21          1           0        2.798005    1.097388   -1.628565
     22          1           0        2.912679   -0.594262   -1.104067
     23          1           0        1.231505    2.458429   -0.623555
     24          1           0       -3.410455    1.687665    0.334751
     25          1           0       -4.765117   -0.344364    0.658113
     26          1           0       -3.697147   -2.592088    0.497959
     27          1           0       -1.269380   -2.771642    0.018756
     28          1           0       -2.127040    3.329269   -0.887811
     29          1           0       -1.784046    3.389008    0.842588
     30          1           0       -0.568708    3.944945   -0.317466
 ---------------------------------------------------------------------

 SCF Done:  E(UB3LYP) =  -957.629478461     A.U. after   29 cycles

 The electronic state is 2-A.
 Alpha  occ. eigenvalues --  -88.62229 -14.22364 -10.08331 -10.08130 -10.07388
 Alpha  occ. eigenvalues --  -10.06390 -10.06303 -10.04931 -10.04558 -10.04555
 Alpha  occ. eigenvalues --  -10.03576 -10.03277 -10.02872 -10.02559 -10.01352
 Alpha  occ. eigenvalues --   -7.71021  -5.67395  -5.66892  -5.66594  -0.84540
 Alpha  occ. eigenvalues --   -0.72512  -0.68564  -0.67178  -0.63514  -0.60180
 Alpha  occ. eigenvalues --   -0.59686  -0.57633  -0.53103  -0.49854  -0.49562
 Alpha  occ. eigenvalues --   -0.46454  -0.43297  -0.39935  -0.38221  -0.36912
 Alpha  occ. eigenvalues --   -0.35001  -0.33385  -0.32895  -0.31461  -0.29983
 Alpha  occ. eigenvalues --   -0.29885  -0.29043  -0.28223  -0.27460  -0.26807
 Alpha  occ. eigenvalues --   -0.26242  -0.24239  -0.23994  -0.23176  -0.22088
 Alpha  occ. eigenvalues --   -0.21251  -0.20591  -0.18186  -0.16515  -0.13244
 Alpha  occ. eigenvalues --   -0.10479  -0.05761  -0.05158   0.04164
 Alpha virt. eigenvalues --    0.07215   0.08125   0.08960   0.09276   0.09988
 Alpha virt. eigenvalues --    0.10395   0.11110   0.11515   0.11969   0.12493
 Alpha virt. eigenvalues --    0.13207   0.13955   0.14149   0.14744   0.15101

  Beta  occ. eigenvalues --  -88.62178 -14.22178 -10.08365 -10.08143 -10.06848
  Beta  occ. eigenvalues --  -10.06367 -10.06308 -10.04854 -10.04552 -10.04487
  Beta  occ. eigenvalues --  -10.03617 -10.03389 -10.02824 -10.02254 -10.01058
  Beta  occ. eigenvalues --   -7.70976  -5.67386  -5.66713  -5.66567  -0.84122
  Beta  occ. eigenvalues --   -0.72263  -0.68366  -0.66966  -0.63025  -0.59891
  Beta  occ. eigenvalues --   -0.59577  -0.57428  -0.52857  -0.49799  -0.49305
  Beta  occ. eigenvalues --   -0.46144  -0.43055  -0.39786  -0.37968  -0.36693
  Beta  occ. eigenvalues --   -0.34788  -0.33330  -0.32725  -0.31332  -0.29877
  Beta  occ. eigenvalues --   -0.29746  -0.28927  -0.28038  -0.26959  -0.26653
  Beta  occ. eigenvalues --   -0.26179  -0.23955  -0.23750  -0.23098  -0.21806
  Beta  occ. eigenvalues --   -0.20507  -0.20400  -0.17898  -0.15287  -0.12224
  Beta  occ. eigenvalues --   -0.09271  -0.05083  -0.04748
  Beta virt. eigenvalues --    0.07107   0.08061   0.08918   0.09245   0.09860
  Beta virt. eigenvalues --    0.10069   0.10401   0.11041   0.11470   0.11991
  Beta virt. eigenvalues --    0.12445   0.13144   0.13862   0.14092   0.14943

 Mulliken charges and spin densities:
               1          2
     1  C   -0.500653  -0.043059
     2  C    0.123824  -0.192706
     3  C   -0.353913   0.134922
     4  N    0.567880   0.064112
     5  C   -0.056235  -0.067657
     6  C    0.243013   0.061436
     7  C    0.782349   0.078883
     8  C   -0.569728   0.014894
     9  C   -0.518429   0.245615
    10  C   -0.450153  -0.093511
    11  C   -0.568834   0.238531
    12  C    0.581802  -0.017996
    13  C    0.007475   0.252232
    14  S   -1.029433   0.140707
    15  C   -0.783213  -0.023070
    16  H    0.144844   0.016289
    17  H    0.094849   0.009740
    18  H    0.129100   0.017150
    19  H    0.090504  -0.000376
    20  H    0.017918   0.115675
    21  H    0.088119   0.048002
    22  H    0.096416  -0.014359
    23  H    0.110878   0.024120
    24  H    0.087780  -0.004874
    25  H    0.100611  -0.018974
    26  H    0.117578   0.005832
    27  H    0.089746  -0.020590
    28  H    0.132970   0.003704
    29  H    0.118848   0.020883
    30  H    0.104090   0.004445
 Sum of Mulliken charges =  -1.00000   1.00000

 Dipole moment (field-independent basis, Debye):
    X=              0.7960    Y=              6.4468    Z=              0.6961  Tot=              6.5329
 Quadrupole moment (field-independent basis, Debye-Ang):
   XX=           -128.7282   YY=           -124.0891   ZZ=           -112.0962
   XY=              5.9639   XZ=              0.6135   YZ=             -3.5601

 Summary of Natural Population Analysis:

                                       Natural Population
                Natural  -----------------------------------------------
    Atom  No    Charge         Core      Valence    Rydberg      Total
 -----------------------------------------------------------------------
      C    1   -0.28984      0.99967     2.28497    0.00521     3.28984
      C    2   -0.19051      0.99964     2.18410    0.00677     3.19051
      C    3   -0.09396      0.99961     2.08208    0.01227     3.09396
      N    4   -0.19895      0.99960     2.68756    0.01179     3.69895
      C    5    0.01400      0.99948     1.97664    0.00988     2.98600
      C    6   -0.03441      0.99949     2.02711    0.00781     3.03441
      C    7   -0.02286      0.99952     2.00886    0.01448     3.02286
      C    8   -0.11036      0.99954     2.10218    0.00864     3.11036
      C    9   -0.04010      0.99957     2.03073    0.00979     3.04010
      C   10   -0.13742      0.99957     2.12834    0.00951     3.13742
      C   11   -0.03898      0.99959     2.02411    0.01528     3.03898
      C   12    0.00763      0.99946     1.98204    0.01087     2.99237
      C   13    0.12892      0.99959     1.85137    0.02012     2.87108
      S   14   -0.15187      4.99960     3.13868    0.01359     8.15187
      C   15   -0.28485      0.99960     2.28094    0.00431     3.28485
      H   16    0.10539      0.00000     0.39334    0.00126     0.39461
      H   17    0.08875      0.00000     0.41030    0.00095     0.41125
      H   18    0.10712      0.00000     0.39161    0.00127     0.39288
      H   19    0.08860      0.00000     0.40996    0.00144     0.41140
      H   20    0.09033      0.00000     0.40768    0.00199     0.40967
      H   21    0.08885      0.00000     0.40962    0.00153     0.41115
      H   22    0.12115      0.00000     0.37689    0.00195     0.37885
      H   23    0.08798      0.00000     0.41006    0.00196     0.41202
      H   24    0.09072      0.00000     0.40777    0.00151     0.40928
      H   25    0.08479      0.00000     0.41361    0.00160     0.41521
      H   26    0.09218      0.00000     0.40715    0.00067     0.40782
      H   27    0.10985      0.00000     0.38860    0.00156     0.39015
      H   28    0.09785      0.00000     0.40048    0.00167     0.40215
      H   29    0.09809      0.00000     0.40027    0.00163     0.40191
      H   30    0.09496      0.00000     0.40400    0.00104     0.40504
 =======================================================================
   * Total *    0.00304     18.99354    38.82104    0.18237    57.99696

 Normal termination of Gaussian 16 at Thu Dec 10 15:31:29 2020.
