 Gaussian 16, Revision A.03,

 -----------------------------------------------------------
 # opt freq B3LYP/6-31G(d) empiricaldispersion=gd3bj scf=xqc
 -----------------------------------------------------------

 ------------------------------
 CID_83027596_JID_7711_neutraal
 ------------------------------
 Symbolic Z-matrix:
 Charge =  0 Multiplicity = 1

 SCF Done:  E(RB3LYP) =  -799.383003172     A.U. after   15 cycles
 SCF Done:  E(RB3LYP) =  -799.388336012     A.U. after   13 cycles
 SCF Done:  E(RB3LYP) =  -799.389596375     A.U. after   14 cycles
 SCF Done:  E(RB3LYP) =  -799.386473972     A.U. after   15 cycles
 SCF Done:  E(RB3LYP) =  -799.391310556     A.U. after   14 cycles
 SCF Done:  E(RB3LYP) =  -799.391578928     A.U. after   13 cycles
 SCF Done:  E(RB3LYP) =  -799.391736403     A.U. after   12 cycles
 SCF Done:  E(RB3LYP) =  -799.391838179     A.U. after   11 cycles
 SCF Done:  E(RB3LYP) =  -799.391872142     A.U. after   11 cycles
 SCF Done:  E(RB3LYP) =  -799.391887776     A.U. after   10 cycles
 SCF Done:  E(RB3LYP) =  -799.391894339     A.U. after   10 cycles
 SCF Done:  E(RB3LYP) =  -799.391896124     A.U. after    9 cycles
 SCF Done:  E(RB3LYP) =  -799.391896467     A.U. after    8 cycles
 SCF Done:  E(RB3LYP) =  -799.391896559     A.U. after    7 cycles
 Optimization completed.
    -- Stationary point found.
 Normal termination of Gaussian 16 at Fri Dec 11 13:06:30 2020.

 --------------------------------------------------------------------
 #N Geom=AllCheck Guess=TCheck SCRF=Check GenChk RB3LYP/6-31G(d) Freq
 --------------------------------------------------------------------

 Structure from the checkpoint file:  "JID_7711.chk"
 ------------------------------
 CID_83027596_JID_7711_neutraal
 ------------------------------
 Charge =  0 Multiplicity = 1

 SCF Done:  E(RB3LYP) =  -799.391896559     A.U. after    1 cycles

  Exact polarizability: 195.124  -1.636 177.184 -14.129 -10.847  98.733
 Approx polarizability: 296.513   7.003 276.043 -41.570 -33.217 150.540

                      1                      2                      3
                      A                      A                      A
 Frequencies --     30.3124                37.4667                47.2274
 Red. masses --      3.7012                 3.7776                 3.7302
 Frc consts  --      0.0020                 0.0031                 0.0049
 IR Inten    --      0.5338                 0.6261                 0.8161

                      4                      5                      6
                      A                      A                      A
 Frequencies --     53.2638                84.1707               105.8878
 Red. masses --      9.5280                 2.6436                 2.2750
 Frc consts  --      0.0159                 0.0110                 0.0150
 IR Inten    --      0.0936                 0.1895                 0.4889

                      7                      8                      9
                      A                      A                      A
 Frequencies --    120.8401               153.9848               169.2177
 Red. masses --      3.5461                 5.1944                 3.2707
 Frc consts  --      0.0305                 0.0726                 0.0552
 IR Inten    --      0.9586                 1.0291                 0.7614

                     10                     11                     12
                      A                      A                      A
 Frequencies --    197.8996               202.4417               223.7619
 Red. masses --      1.1755                 1.6424                 1.7041
 Frc consts  --      0.0271                 0.0397                 0.0503
 IR Inten    --      0.4491                 1.0633                 1.9285

                     13                     14                     15
                      A                      A                      A
 Frequencies --    228.0450               254.4919               264.9419
 Red. masses --      1.9749                 2.4973                 2.2123
 Frc consts  --      0.0605                 0.0953                 0.0915
 IR Inten    --      2.1705                 0.9499                 2.6635

                     16                     17                     18
                      A                      A                      A
 Frequencies --    287.2402               332.8717               362.6356
 Red. masses --      3.2326                 2.9221                 2.7275
 Frc consts  --      0.1571                 0.1908                 0.2113
 IR Inten    --      1.3718                 9.5590                 0.4496

                     19                     20                     21
                      A                      A                      A
 Frequencies --    400.3514               416.7390               446.5677
 Red. masses --      4.1997                 2.4679                 3.2032
 Frc consts  --      0.3966                 0.2525                 0.3764
 IR Inten    --      2.8726                20.4095                 0.5927

                     22                     23                     24
                      A                      A                      A
 Frequencies --    469.9395               493.4351               504.9822
 Red. masses --      2.5260                 2.4028                 3.6113
 Frc consts  --      0.3287                 0.3447                 0.5426
 IR Inten    --      7.4360                57.3831                28.1576

                     25                     26                     27
                      A                      A                      A
 Frequencies --    520.2670               563.8187               569.7190
 Red. masses --      2.8171                 2.6746                 4.1074
 Frc consts  --      0.4493                 0.5009                 0.7855
 IR Inten    --      7.1871                28.5234                47.5672

                     28                     29                     30
                      A                      A                      A
 Frequencies --    628.7623               634.6605               688.4708
 Red. masses --      2.7615                 2.6236                 2.1443
 Frc consts  --      0.6432                 0.6226                 0.5988
 IR Inten    --     46.0379                36.3387                10.3936

                     31                     32                     33
                      A                      A                      A
 Frequencies --    706.9455               755.9562               776.1672
 Red. masses --      3.5212                 4.7520                 1.4996
 Frc consts  --      1.0368                 1.6000                 0.5323
 IR Inten    --     40.2919                30.3231                27.9645

                     34                     35                     36
                      A                      A                      A
 Frequencies --    805.8220               829.1051               845.8187
 Red. masses --      3.7010                 1.5210                 1.7539
 Frc consts  --      1.4159                 0.6160                 0.7393
 IR Inten    --     30.6911                 1.5757                32.2093

                     37                     38                     39
                      A                      A                      A
 Frequencies --    857.5087               868.0076               870.7945
 Red. masses --      3.5607                 1.8510                 2.2763
 Frc consts  --      1.5426                 0.8217                 1.0170
 IR Inten    --      8.3456                 9.3035                18.7264

                     40                     41                     42
                      A                      A                      A
 Frequencies --    909.6483               969.8935               988.7900
 Red. masses --      1.5338                 4.6675                 2.0840
 Frc consts  --      0.7478                 2.5869                 1.2005
 IR Inten    --      1.2017                 2.9630                 3.0382

                     43                     44                     45
                      A                      A                      A
 Frequencies --   1011.8801              1044.0312              1056.8406
 Red. masses --      6.0747                 2.1191                 1.6239
 Frc consts  --      3.6647                 1.3609                 1.0686
 IR Inten    --      0.2388                 7.0473                 9.7893

                     46                     47                     48
                      A                      A                      A
 Frequencies --   1100.9613              1103.4181              1130.5279
 Red. masses --      2.4042                 2.1419                 1.5157
 Frc consts  --      1.7170                 1.5365                 1.1414
 IR Inten    --     18.6389                 5.3172                23.2053

                     49                     50                     51
                      A                      A                      A
 Frequencies --   1132.7860              1148.9065              1174.2672
 Red. masses --      1.2342                 1.8482                 1.9840
 Frc consts  --      0.9331                 1.4374                 1.6118
 IR Inten    --      6.9288                 7.0929                 4.0072

                     52                     53                     54
                      A                      A                      A
 Frequencies --   1187.1454              1235.6374              1271.3139
 Red. masses --      1.4084                 1.9361                 3.3708
 Frc consts  --      1.1695                 1.7416                 3.2098
 IR Inten    --      1.0249               116.6259                 5.1868

                     55                     56                     57
                      A                      A                      A
 Frequencies --   1280.6341              1299.7529              1317.1036
 Red. masses --      1.3201                 1.5826                 1.3420
 Frc consts  --      1.2756                 1.5753                 1.3717
 IR Inten    --      1.5167                32.6546                34.3754

                     58                     59                     60
                      A                      A                      A
 Frequencies --   1321.1451              1356.5533              1396.2405
 Red. masses --      1.6214                 3.6289                 2.0125
 Frc consts  --      1.6674                 3.9346                 2.3116
 IR Inten    --      4.1301                55.7453               145.2179

                     61                     62                     63
                      A                      A                      A
 Frequencies --   1398.8987              1403.2933              1422.7209
 Red. masses --      2.6018                 2.5214                 2.0368
 Frc consts  --      2.9999                 2.9254                 2.4290
 IR Inten    --    170.2501                94.2011                18.6543

                     64                     65                     66
                      A                      A                      A
 Frequencies --   1444.7252              1446.4690              1459.8565
 Red. masses --      1.3151                 1.9275                 1.1485
 Frc consts  --      1.6172                 2.3761                 1.4421
 IR Inten    --      3.9430                 7.8312                 0.0874

                     67                     68                     69
                      A                      A                      A
 Frequencies --   1481.5767              1508.8787              1512.4048
 Red. masses --      1.1446                 1.0863                 1.4306
 Frc consts  --      1.4803                 1.4572                 1.9281
 IR Inten    --      2.7947                12.6188                 5.3254

                     70                     71                     72
                      A                      A                      A
 Frequencies --   1515.5163              1523.5459              1526.5052
 Red. masses --      1.1840                 1.0733                 1.2320
 Frc consts  --      1.6022                 1.4679                 1.6914
 IR Inten    --      7.2478                 6.6255                 1.9223

                     73                     74                     75
                      A                      A                      A
 Frequencies --   1532.2394              1534.5204              1539.7035
 Red. masses --      1.1027                 1.1273                 1.0572
 Frc consts  --      1.5253                 1.5640                 1.4766
 IR Inten    --      1.5885                10.7298                 4.1619

                     76                     77                     78
                      A                      A                      A
 Frequencies --   1545.3442              1557.1573              1574.5229
 Red. masses --      1.1024                 1.4775                 1.9765
 Frc consts  --      1.5511                 2.1108                 2.8870
 IR Inten    --     11.2365                48.3138               121.9710

                     79                     80                     81
                      A                      A                      A
 Frequencies --   1631.8569              1642.2981              1690.5662
 Red. masses --      9.8023                 4.6437                 7.2611
 Frc consts  --     15.3795                 7.3793                12.2269
 IR Inten    --    416.5175                67.8508               127.3160

                     82                     83                     84
                      A                      A                      A
 Frequencies --   2972.8831              3003.2905              3042.6797
 Red. masses --      1.0585                 1.0521                 1.0392
 Frc consts  --      5.5117                 5.5912                 5.6683
 IR Inten    --     61.2191                52.6429                20.7312

                     85                     86                     87
                      A                      A                      A
 Frequencies --   3048.7378              3060.3231              3081.8818
 Red. masses --      1.0621                 1.0620                 1.0780
 Frc consts  --      5.8165                 5.8603                 6.0323
 IR Inten    --     20.3642                42.2297                44.5400

                     88                     89                     90
                      A                      A                      A
 Frequencies --   3084.7099              3090.4569              3099.8939
 Red. masses --      1.0983                 1.0810                 1.1043
 Frc consts  --      6.1575                 6.0833                 6.2520
 IR Inten    --      8.6377                52.6343                16.4996

                     91                     92                     93
                      A                      A                      A
 Frequencies --   3112.4998              3122.3887              3134.1488
 Red. masses --      1.1024                 1.1008                 1.1042
 Frc consts  --      6.2924                 6.3231                 6.3906
 IR Inten    --     81.4446                33.2452                23.8924

                     94                     95                     96
                      A                      A                      A
 Frequencies --   3154.2909              3225.2357              3244.5554
 Red. masses --      1.0999                 1.0888                 1.0907
 Frc consts  --      6.4478                 6.6728                 6.7647
 IR Inten    --     16.6465                 9.0522                 3.0207

                     97                     98                     99
                      A                      A                      A
 Frequencies --   3279.5741              3552.8319              3598.6081
 Red. masses --      1.0900                 1.0762                 1.0757
 Frc consts  --      6.9074                 8.0037                 8.2072
 IR Inten    --      4.1619                15.5135                 9.8634

 - Thermochemistry -
 -------------------
 Temperature   298.150 Kelvin.  Pressure   1.00000 Atm.
 Atom     1 has atomic number  6 and mass  12.00000

 Molecular mass:   238.14298 amu.
 Principal axes and moments of inertia in atomic units:
                           1         2         3
     Eigenvalues --  3976.743025298.160138387.33585
           X            0.99741   0.07146   0.00792
           Y           -0.07154   0.99739   0.00971
           Z           -0.00721  -0.01025   0.99992
 This molecule is an asymmetric top.
 Rotational symmetry number  1.
 Warning -- assumption of classical behavior for rotation
           may cause significant error
 Rotational temperatures (Kelvin)      0.02178     0.01635     0.01033
 Rotational constants (GHZ):           0.45382     0.34064     0.21517
 Zero-point vibrational energy     777869.4 (Joules/Mol)
                                  185.91525 (Kcal/Mol)
 Warning -- explicit consideration of  27 degrees of freedom as
           vibrations may cause significant error
 Vibrational temperatures:     43.61    53.91    67.95    76.63   121.10
          (Kelvin)            152.35   173.86   221.55   243.47   284.73
                              291.27   321.94   328.11   366.16   381.19
                              413.27   478.93   521.75   576.02   599.59
                              642.51   676.14   709.94   726.56   748.55
                              811.21   819.70   904.65   913.13   990.56
                             1017.14  1087.65  1116.73  1159.40  1192.90
                             1216.94  1233.76  1248.87  1252.88  1308.78
                             1395.46  1422.65  1455.87  1502.13  1520.56
                             1584.04  1587.57  1626.58  1629.83  1653.02
                             1689.51  1708.04  1777.81  1829.14  1842.55
                             1870.05  1895.02  1900.83  1951.78  2008.88
                             2012.70  2019.03  2046.98  2078.64  2081.15
                             2100.41  2131.66  2170.94  2176.01  2180.49
                             2192.04  2196.30  2204.55  2207.83  2215.29
                             2223.41  2240.40  2265.39  2347.88  2362.90
                             2432.35  4277.32  4321.07  4377.74  4386.45
                             4403.12  4434.14  4438.21  4446.48  4460.06
                             4478.19  4492.42  4509.34  4538.32  4640.39
                             4668.19  4718.58  5111.73  5177.59

 Zero-point correction=                           0.296275 (Hartree/Particle)
 Thermal correction to Energy=                    0.314008
 Thermal correction to Enthalpy=                  0.314952
 Thermal correction to Gibbs Free Energy=         0.249430
 Sum of electronic and zero-point Energies=           -799.095622
 Sum of electronic and thermal Energies=              -799.077888
 Sum of electronic and thermal Enthalpies=            -799.076944
 Sum of electronic and thermal Free Energies=         -799.142467

                     E (Thermal)             CV                S
                      KCal/Mol        Cal/Mol-Kelvin    Cal/Mol-Kelvin
 Total                  197.043             65.841            137.904
 Electronic               0.000              0.000              0.000
 Translational            0.889              2.981             42.304
 Rotational               0.889              2.981             33.535
 Vibrational            195.266             59.880             62.064
 Vibration     1          0.594              1.984              5.809
 Vibration     2          0.594              1.982              5.389
 Vibration     3          0.595              1.979              4.930
 Vibration     4          0.596              1.976              4.692
 Vibration     5          0.601              1.960              3.791
 Vibration     6          0.605              1.945              3.343
 Vibration     7          0.609              1.932              3.087
 Vibration     8          0.619              1.898              2.622
 Vibration     9          0.625              1.880              2.444
 Vibration    10          0.637              1.843              2.153
 Vibration    11          0.639              1.836              2.111
 Vibration    12          0.649              1.805              1.928
 Vibration    13          0.651              1.798              1.894
 Vibration    14          0.665              1.755              1.699
 Vibration    15          0.671              1.737              1.629
 Vibration    16          0.684              1.697              1.490
 Vibration    17          0.715              1.610              1.246
 Vibration    18          0.736              1.549              1.111
 Vibration    19          0.766              1.469              0.961
 Vibration    20          0.780              1.434              0.903
 Vibration    21          0.806              1.368              0.806
 Vibration    22          0.827              1.317              0.738
 Vibration    23          0.849              1.265              0.675
 Vibration    24          0.860              1.239              0.646
 Vibration    25          0.875              1.205              0.609
 Vibration    26          0.920              1.110              0.516
 Vibration    27          0.926              1.097              0.505

                           ! Non-Optimized Parameters !
 Normal termination of Gaussian 16 at Fri Dec 11 13:18:16 2020.

 ----------------------------------------------------------------------
 # B3LYP/6-311++G(d,p) empiricaldispersion=gd3bj scf=xqc pop=npa geom=c
 heck
 ----------------------------------------------------------------------

 --------------------------------------
 CID_83027596_JID_7711_Energie_neutraal
 --------------------------------------
 Structure from the checkpoint file:  "JID_7711.chk"
 Charge =  0 Multiplicity = 1

 SCF Done:  E(RB3LYP) =  -799.621593592     A.U. after   16 cycles
 Normal termination of Gaussian 16 at Fri Dec 11 13:23:56 2020.

 ----------------------------------------------------------------------
 # B3LYP/6-311++G(d,p) empiricaldispersion=gd3bj scf=xqc pop=npa geom=c
 heck
 ----------------------------------------------------------------------

 ------------------------------------
 CID_83027596_JID_7711_Energie_kation
 ------------------------------------
 Structure from the checkpoint file:  "JID_7711.chk"
 Charge =  1 Multiplicity = 2

 SCF Done:  E(UB3LYP) =  -799.344121798     A.U. after   25 cycles
 Normal termination of Gaussian 16 at Fri Dec 11 13:35:30 2020.
 Gaussian 16:  ES64L-G16RevA.03 25-Dec-2016

 ----------------------------------------------------------------------
 # B3LYP/6-311++G(d,p) empiricaldispersion=gd3bj scf=xqc pop=npa geom=c
 heck
 ----------------------------------------------------------------------

 -----------------------------------
 CID_83027596_JID_7711_Energie_anion
 -----------------------------------
 Structure from the checkpoint file:  "JID_7711.chk"
 Charge = -1 Multiplicity = 2

                         Standard orientation:
 ---------------------------------------------------------------------
 Center     Atomic      Atomic             Coordinates (Angstroms)
 Number     Number       Type             X           Y           Z
 ---------------------------------------------------------------------
      1          6           0       -2.818843   -3.115257   -1.290093
      2          6           0       -3.352017   -1.979183   -0.415146
      3          6           0       -2.708213   -1.943603    0.980099
      4          7           0       -1.258219   -1.786629    0.985957
      5          6           0       -0.632151   -0.642436    0.516740
      6          6           0        0.725133   -0.706245    0.148606
      7          6           0        1.424847    0.430572   -0.271393
      8          6           0        0.753670    1.663285   -0.343509
      9          6           0       -0.588532    1.695444    0.000696
     10          6           0       -1.306885    0.586820    0.432363
     11          7           0       -1.295597    2.985610   -0.085525
     12          8           0       -0.654124    3.969795   -0.454280
     13          8           0       -2.489475    3.009108    0.215074
     14          7           0        2.760083    0.376746   -0.686159
     15          7           0        3.711060   -0.499475   -0.127374
     16          6           0        3.722327   -0.573694    1.328359
     17          6           0        3.801767   -1.779814   -0.812407
     18          1           0       -1.745391   -2.998787   -1.478633
     19          1           0       -3.321075   -3.134754   -2.262657
     20          1           0       -2.974733   -4.092002   -0.814156
     21          1           0       -3.183537   -1.018648   -0.916102
     22          1           0       -4.437672   -2.080003   -0.287013
     23          1           0       -3.148098   -1.140087    1.580939
     24          1           0       -2.923299   -2.877621    1.511816
     25          1           0       -0.747570   -2.638087    0.794922
     26          1           0        1.229880   -1.664000    0.186950
     27          1           0        1.253547    2.568945   -0.662264
     28          1           0       -2.348370    0.699746    0.692166
     29          1           0        3.168684    1.293660   -0.826103
     30          1           0        2.849065   -1.082315    1.767375
     31          1           0        4.624378   -1.112469    1.636262
     32          1           0        3.769750    0.439780    1.737780
     33          1           0        2.999276   -2.495371   -0.560832
     34          1           0        3.778347   -1.600202   -1.889124
     35          1           0        4.757714   -2.248101   -0.551854
 ---------------------------------------------------------------------

 SCF Done:  E(UB3LYP) =  -799.649490544     A.U. after   24 cycles

 The electronic state is 2-A.
 Alpha  occ. eigenvalues --  -18.93079 -18.93053 -14.30571 -14.24032 -14.22842
 Alpha  occ. eigenvalues --  -14.20749 -10.10298 -10.10055 -10.09620 -10.08178
 Alpha  occ. eigenvalues --  -10.07975 -10.07465 -10.07212 -10.05202 -10.02658
 Alpha  occ. eigenvalues --  -10.01727 -10.01621  -1.01096  -0.88917  -0.83945
 Alpha  occ. eigenvalues --   -0.82249  -0.74697  -0.70295  -0.68061  -0.62865
 Alpha  occ. eigenvalues --   -0.62196  -0.60631  -0.57833  -0.53568  -0.52035
 Alpha  occ. eigenvalues --   -0.50562  -0.46325  -0.45003  -0.41549  -0.39276
 Alpha  occ. eigenvalues --   -0.38164  -0.37358  -0.36460  -0.35460  -0.35310
 Alpha  occ. eigenvalues --   -0.34114  -0.33537  -0.33466  -0.32573  -0.31440
 Alpha  occ. eigenvalues --   -0.30837  -0.30300  -0.29843  -0.28439  -0.28272
 Alpha  occ. eigenvalues --   -0.27551  -0.25783  -0.24965  -0.24652  -0.23536
 Alpha  occ. eigenvalues --   -0.23016  -0.20370  -0.15456  -0.13174  -0.12462
 Alpha  occ. eigenvalues --   -0.11036  -0.09647  -0.08875  -0.07295   0.03685
 Alpha virt. eigenvalues --    0.06051   0.06788   0.08266   0.08608   0.09069
 Alpha virt. eigenvalues --    0.09938   0.10125   0.11311   0.11614   0.12100
 Alpha virt. eigenvalues --    0.12344   0.12767   0.13433   0.13505   0.14023

  Beta  occ. eigenvalues --  -18.92585 -18.92556 -14.29914 -14.24032 -14.22844
  Beta  occ. eigenvalues --  -14.20757 -10.10298 -10.10051 -10.09616 -10.08213
  Beta  occ. eigenvalues --  -10.08014 -10.07460 -10.07210 -10.05088 -10.02465
  Beta  occ. eigenvalues --  -10.01598 -10.01496  -1.00002  -0.88915  -0.83005
  Beta  occ. eigenvalues --   -0.82246  -0.74633  -0.70138  -0.67969  -0.62458
  Beta  occ. eigenvalues --   -0.62187  -0.60487  -0.57677  -0.53200  -0.51444
  Beta  occ. eigenvalues --   -0.50516  -0.46275  -0.44764  -0.41484  -0.39043
  Beta  occ. eigenvalues --   -0.37915  -0.37344  -0.36432  -0.35327  -0.35044
  Beta  occ. eigenvalues --   -0.34067  -0.33385  -0.32244  -0.31248  -0.30847
  Beta  occ. eigenvalues --   -0.30381  -0.30013  -0.29704  -0.28422  -0.28050
  Beta  occ. eigenvalues --   -0.27473  -0.25743  -0.24708  -0.24490  -0.23391
  Beta  occ. eigenvalues --   -0.22882  -0.20276  -0.14783  -0.13162  -0.10548
  Beta  occ. eigenvalues --   -0.09121  -0.08707  -0.08379  -0.06520
  Beta virt. eigenvalues --    0.05980   0.06725   0.08176   0.08514   0.08995
  Beta virt. eigenvalues --    0.09823   0.10055   0.10566   0.11234   0.11545
  Beta virt. eigenvalues --    0.12145   0.12411   0.12749   0.13397   0.13504

 Mulliken charges and spin densities:
               1          2
     1  C   -0.583341  -0.060132
     2  C   -0.098414   0.017986
     3  C   -0.263525  -0.034702
     4  N   -0.072660   0.010387
     5  C    0.360251  -0.059188
     6  C   -0.436884   0.177620
     7  C    0.230736  -0.004857
     8  C   -0.457812   0.134410
     9  C   -0.109885   0.050103
    10  C   -0.532081   0.113970
    11  N   -0.260787   0.208448
    12  O   -0.188910   0.193005
    13  O   -0.206324   0.196560
    14  N   -0.291385   0.035896
    15  N    0.003139  -0.026567
    16  C   -0.383953   0.000873
    17  C   -0.311301  -0.037610
    18  H    0.143976   0.030533
    19  H    0.114010   0.012759
    20  H    0.093340   0.021362
    21  H    0.169350   0.006543
    22  H    0.110643   0.001510
    23  H    0.152876   0.006408
    24  H    0.153452  -0.004946
    25  H    0.201931   0.020156
    26  H    0.088297  -0.070727
    27  H    0.197703  -0.008632
    28  H    0.198998   0.001048
    29  H    0.272301  -0.000653
    30  H    0.131473   0.000194
    31  H    0.110283   0.000078
    32  H    0.150997   0.005045
    33  H    0.058337   0.046145
    34  H    0.143538   0.007627
    35  H    0.111631   0.009351
 Sum of Mulliken charges =  -1.00000   1.00000

 Dipole moment (field-independent basis, Debye):
    X=              4.5081    Y=            -11.9617    Z=              0.7620  Tot=             12.8057
 Quadrupole moment (field-independent basis, Debye-Ang):
   XX=           -127.2660   YY=           -157.3135   ZZ=           -113.8414
   XY=             20.1004   XZ=              1.9714   YZ=              0.7699

 Summary of Natural Population Analysis:

                                       Natural Population
                Natural  -----------------------------------------------
    Atom  No    Charge         Core      Valence    Rydberg      Total
 -----------------------------------------------------------------------
      C    1   -0.29028      0.99967     2.28502    0.00560     3.29028
      C    2   -0.20155      0.99964     2.19609    0.00582     3.20155
      C    3   -0.08421      0.99963     2.07456    0.01002     3.08421
      N    4   -0.32075      0.99968     2.80943    0.01164     3.82075
      C    5    0.08432      0.99951     1.90561    0.01056     2.91568
      C    6   -0.12266      0.99949     2.11497    0.00820     3.12266
      C    7    0.07292      0.99949     1.91748    0.01011     2.92708
      C    8   -0.11599      0.99949     2.10658    0.00993     3.11599
      C    9    0.08358      0.99941     1.90525    0.01176     2.91642
      C   10   -0.12553      0.99948     2.11705    0.00900     3.12553
      N   11    0.30847      0.99973     2.16465    0.02715     3.19153
      O   12   -0.19613      0.99990     3.18823    0.00801     4.19613
      O   13   -0.19683      0.99990     3.18884    0.00809     4.19683
      N   14   -0.22933      0.99966     2.71516    0.01451     3.72933
      N   15   -0.18994      0.99974     2.67611    0.01409     3.68994
      C   16   -0.18315      0.99965     2.17697    0.00653     3.18315
      C   17   -0.17282      0.99965     2.16623    0.00694     3.17282
      H   18    0.10081      0.00000     0.39780    0.00139     0.39919
      H   19    0.09732      0.00000     0.40182    0.00086     0.40268
      H   20    0.08849      0.00000     0.40997    0.00154     0.41151
      H   21    0.10829      0.00000     0.39033    0.00138     0.39171
      H   22    0.09005      0.00000     0.40881    0.00114     0.40995
      H   23    0.09847      0.00000     0.40042    0.00111     0.40153
      H   24    0.08728      0.00000     0.41178    0.00094     0.41272
      H   25    0.17715      0.00000     0.32037    0.00248     0.32285
      H   26    0.08582      0.00000     0.41124    0.00295     0.41418
      H   27    0.11144      0.00000     0.38713    0.00143     0.38856
      H   28    0.11376      0.00000     0.38474    0.00151     0.38624
      H   29    0.18001      0.00000     0.31824    0.00176     0.31999
      H   30    0.08932      0.00000     0.40911    0.00157     0.41068
      H   31    0.08811      0.00000     0.41093    0.00096     0.41189
      H   32    0.09840      0.00000     0.40085    0.00075     0.40160
      H   33    0.07767      0.00000     0.42012    0.00220     0.42233
      H   34    0.10116      0.00000     0.39765    0.00119     0.39884
      H   35    0.08633      0.00000     0.41276    0.00091     0.41367
 =======================================================================
   * Total *    0.00000     16.99372    46.80227    0.20401    64.00000

 Normal termination of Gaussian 16 at Fri Dec 11 13:46:56 2020.
