 Gaussian 16, Revision A.03,

 -----------------------------------------------------------
 # opt freq B3LYP/6-31G(d) empiricaldispersion=gd3bj scf=xqc
 -----------------------------------------------------------

 --------------------------------
 CID_116220220_JID_10875_neutraal
 --------------------------------
 Symbolic Z-matrix:
 Charge =  0 Multiplicity = 1

 SCF Done:  E(RB3LYP) =  -1640.29155679     A.U. after   14 cycles
 SCF Done:  E(RB3LYP) =  -1640.29886209     A.U. after   12 cycles
 SCF Done:  E(RB3LYP) =  -1640.30101545     A.U. after   12 cycles
 SCF Done:  E(RB3LYP) =  -1640.30321511     A.U. after   12 cycles
 SCF Done:  E(RB3LYP) =  -1640.30463025     A.U. after   12 cycles
 SCF Done:  E(RB3LYP) =  -1640.30474491     A.U. after   13 cycles
 SCF Done:  E(RB3LYP) =  -1640.30559807     A.U. after   12 cycles
 SCF Done:  E(RB3LYP) =  -1640.30603052     A.U. after   11 cycles
 SCF Done:  E(RB3LYP) =  -1640.30700978     A.U. after   13 cycles
 SCF Done:  E(RB3LYP) =  -1640.30795773     A.U. after   13 cycles
 SCF Done:  E(RB3LYP) =  -1640.31103519     A.U. after   11 cycles
 SCF Done:  E(RB3LYP) =  -1640.31103226     A.U. after   10 cycles
 SCF Done:  E(RB3LYP) =  -1640.31103538     A.U. after   10 cycles
 SCF Done:  E(RB3LYP) =  -1640.31103546     A.U. after    7 cycles
 SCF Done:  E(RB3LYP) =  -1640.31103554     A.U. after    7 cycles
 Optimization completed.
    -- Stationary point found.
 Normal termination of Gaussian 16 at Sat Dec 12 17:12:17 2020.

 --------------------------------------------------------------------
 #N Geom=AllCheck Guess=TCheck SCRF=Check GenChk RB3LYP/6-31G(d) Freq
 --------------------------------------------------------------------

 Structure from the checkpoint file:  "JID_10875.chk"
 --------------------------------
 CID_116220220_JID_10875_neutraal
 --------------------------------
 Charge =  0 Multiplicity = 1

 SCF Done:  E(RB3LYP) =  -1640.31103554     A.U. after    1 cycles

  Exact polarizability: 227.999   0.821 182.094   9.458   0.933 146.941
 Approx polarizability: 271.121  -0.687 284.342  18.836  -2.090 245.640

                      1                      2                      3
                      A                      A                      A
 Frequencies --     17.0679                21.4226                32.1476
 Red. masses --      6.9164                 7.1403                 9.4914
 Frc consts  --      0.0012                 0.0019                 0.0058
 IR Inten    --      0.0474                 0.0714                 1.3724

                      4                      5                      6
                      A                      A                      A
 Frequencies --     37.7436                41.7752                62.8905
 Red. masses --      5.3555                 5.1657                 4.1359
 Frc consts  --      0.0045                 0.0053                 0.0096
 IR Inten    --      0.3642                 0.6703                 0.9290

                      7                      8                      9
                      A                      A                      A
 Frequencies --     86.8122                97.4555               101.3384
 Red. masses --      5.0031                 5.4265                 4.4736
 Frc consts  --      0.0222                 0.0304                 0.0271
 IR Inten    --      0.6551                 1.3335                 1.3765

                     10                     11                     12
                      A                      A                      A
 Frequencies --    136.3837               144.9063               191.3666
 Red. masses --      3.4860                 4.7968                 2.8777
 Frc consts  --      0.0382                 0.0593                 0.0621
 IR Inten    --      0.2342                 2.3700                 1.5409

                     13                     14                     15
                      A                      A                      A
 Frequencies --    219.6081               229.9203               242.9999
 Red. masses --      3.3652                 2.6897                 2.7065
 Frc consts  --      0.0956                 0.0838                 0.0942
 IR Inten    --      3.8502                11.6728                 3.4650

                     16                     17                     18
                      A                      A                      A
 Frequencies --    266.2716               269.2477               284.9033
 Red. masses --      4.7024                 3.3070                 2.9265
 Frc consts  --      0.1964                 0.1413                 0.1400
 IR Inten    --      0.2993                10.6524                 2.3777

                     19                     20                     21
                      A                      A                      A
 Frequencies --    298.2983               319.2806               363.1030
 Red. masses --      3.7833                 3.2041                 4.1456
 Frc consts  --      0.1983                 0.1924                 0.3220
 IR Inten    --      0.2552                 0.4010                 4.7175

                     22                     23                     24
                      A                      A                      A
 Frequencies --    367.3728               419.1053               432.6778
 Red. masses --      3.4993                 1.9925                 2.4194
 Frc consts  --      0.2783                 0.2062                 0.2669
 IR Inten    --      0.6019                 0.2019                 0.0598

                     25                     26                     27
                      A                      A                      A
 Frequencies --    457.7381               512.2886               522.5933
 Red. masses --      4.0079                 2.0043                 3.1078
 Frc consts  --      0.4948                 0.3099                 0.5001
 IR Inten    --     17.7343                16.0521                20.8963

                     28                     29                     30
                      A                      A                      A
 Frequencies --    555.7120               578.0662               595.3013
 Red. masses --      2.8131                 2.5419                 3.4193
 Frc consts  --      0.5118                 0.5005                 0.7139
 IR Inten    --      1.7031                15.0328                23.2511

                     31                     32                     33
                      A                      A                      A
 Frequencies --    622.5496               626.9598               640.9787
 Red. masses --      3.9619                 3.4276                 4.3590
 Frc consts  --      0.9047                 0.7938                 1.0552
 IR Inten    --     20.3995                13.2762                 3.0718

                     34                     35                     36
                      A                      A                      A
 Frequencies --    666.8068               680.6119               688.5432
 Red. masses --      3.9459                 3.6105                 1.4520
 Frc consts  --      1.0337                 0.9854                 0.4056
 IR Inten    --      3.5822                13.1501                96.9460

                     37                     38                     39
                      A                      A                      A
 Frequencies --    737.7986               744.4895               791.0510
 Red. masses --      3.3958                 2.4943                 2.0421
 Frc consts  --      1.0891                 0.8145                 0.7529
 IR Inten    --     16.8936                 7.8843                 2.5022

                     40                     41                     42
                      A                      A                      A
 Frequencies --    804.4838               806.7483               851.6772
 Red. masses --      2.8096                 2.6986                 3.6806
 Frc consts  --      1.0713                 1.0348                 1.5730
 IR Inten    --     59.0268                12.0879                 2.6255

                     43                     44                     45
                      A                      A                      A
 Frequencies --    857.4141               895.2004               903.8575
 Red. masses --      1.7551                 1.8077                 2.5405
 Frc consts  --      0.7602                 0.8535                 1.2228
 IR Inten    --      5.8466                24.3834                 9.3401

                     46                     47                     48
                      A                      A                      A
 Frequencies --    931.2816               943.2519               959.0265
 Red. masses --      2.0125                 1.6773                 1.8881
 Frc consts  --      1.0284                 0.8793                 1.0231
 IR Inten    --      3.4551                17.1064                19.2195

                     49                     50                     51
                      A                      A                      A
 Frequencies --    961.7793               982.9669              1003.9844
 Red. masses --      1.8414                 1.3407                 2.3649
 Frc consts  --      1.0036                 0.7632                 1.4045
 IR Inten    --      6.8488                 2.3426                 5.1968

                     52                     53                     54
                      A                      A                      A
 Frequencies --   1005.7863              1023.5235              1041.4677
 Red. masses --      1.9909                 2.6282                 2.4247
 Frc consts  --      1.1866                 1.6222                 1.5496
 IR Inten    --      1.1028                 0.5669                 1.3537

                     55                     56                     57
                      A                      A                      A
 Frequencies --   1093.3479              1099.3847              1112.3116
 Red. masses --      2.0538                 2.6200                 2.2613
 Frc consts  --      1.4465                 1.8658                 1.6484
 IR Inten    --      4.0709                11.0098                 2.6575

                     58                     59                     60
                      A                      A                      A
 Frequencies --   1128.9675              1132.6530              1159.9836
 Red. masses --      1.9591                 2.6915                 2.4994
 Frc consts  --      1.4712                 2.0344                 1.9815
 IR Inten    --    102.5713                26.8573                50.7582

                     61                     62                     63
                      A                      A                      A
 Frequencies --   1168.8807              1182.8105              1194.4520
 Red. masses --      1.0976                 2.2426                 1.4361
 Frc consts  --      0.8836                 1.8485                 1.2071
 IR Inten    --      7.7077               149.6326                26.2637

                     64                     65                     66
                      A                      A                      A
 Frequencies --   1199.6109              1221.8518              1224.4367
 Red. masses --      1.4345                 1.3428                 2.0864
 Frc consts  --      1.2163                 1.1811                 1.8430
 IR Inten    --      5.2723                92.5732                22.0976

                     67                     68                     69
                      A                      A                      A
 Frequencies --   1240.8626              1249.0659              1254.4045
 Red. masses --      1.2403                 1.2990                 1.2896
 Frc consts  --      1.1252                 1.1940                 1.1956
 IR Inten    --      6.7992                 6.0993                10.4722

                     70                     71                     72
                      A                      A                      A
 Frequencies --   1267.8855              1278.9068              1299.5069
 Red. masses --      1.3148                 1.4004                 1.3898
 Frc consts  --      1.2453                 1.3495                 1.3828
 IR Inten    --     19.4247                20.5279                13.7584

                     73                     74                     75
                      A                      A                      A
 Frequencies --   1316.6007              1324.9223              1332.9306
 Red. masses --      1.2861                 1.3884                 1.4479
 Frc consts  --      1.3135                 1.4360                 1.5157
 IR Inten    --     41.9475                 0.3037                10.2639

                     76                     77                     78
                      A                      A                      A
 Frequencies --   1338.8353              1350.4662              1351.8684
 Red. masses --      1.2494                 1.2410                 1.2568
 Frc consts  --      1.3195                 1.3335                 1.3533
 IR Inten    --     26.0473                 1.7776                 3.7130

                     79                     80                     81
                      A                      A                      A
 Frequencies --   1359.2658              1384.1750              1387.4020
 Red. masses --      1.2667                 1.3638                 1.3170
 Frc consts  --      1.3789                 1.5395                 1.4937
 IR Inten    --     15.8909                 4.4661                 4.6450

                     82                     83                     84
                      A                      A                      A
 Frequencies --   1402.8167              1409.5928              1429.3126
 Red. masses --      1.7879                 1.4416                 1.6759
 Frc consts  --      2.0730                 1.6876                 2.0173
 IR Inten    --    245.3922                34.1851                35.4906

                     85                     86                     87
                      A                      A                      A
 Frequencies --   1437.1541              1455.1963              1472.9832
 Red. masses --      1.9844                 2.3132                 1.3862
 Frc consts  --      2.4149                 2.8860                 1.7720
 IR Inten    --     29.7109               342.8042                 1.8734

                     88                     89                     90
                      A                      A                      A
 Frequencies --   1483.2652              1489.6130              1491.6380
 Red. masses --      1.0963                 1.0818                 1.0908
 Frc consts  --      1.4211                 1.4144                 1.4299
 IR Inten    --      8.4119                18.7625                16.1061

                     91                     92                     93
                      A                      A                      A
 Frequencies --   1496.0262              1511.1459              1521.2805
 Red. masses --      1.1038                 1.0904                 1.1070
 Frc consts  --      1.4556                 1.4670                 1.5095
 IR Inten    --      2.3994                 5.3861                24.3419

                     94                     95                     96
                      A                      A                      A
 Frequencies --   1522.4768              1549.4482              1561.1384
 Red. masses --      1.1109                 1.0805                 1.1039
 Frc consts  --      1.5171                 1.5284                 1.5852
 IR Inten    --      5.0658                 3.0365                 5.6216

                     97                     98                     99
                      A                      A                      A
 Frequencies --   1778.4409              1843.8499              3025.5382
 Red. masses --      7.7635                 9.4534                 1.0706
 Frc consts  --     14.4672                18.9361                 5.7741
 IR Inten    --    409.1759               226.1621                54.7820

                    100                    101                    102
                      A                      A                      A
 Frequencies --   3041.8097              3046.0283              3046.5077
 Red. masses --      1.0670                 1.0654                 1.0681
 Frc consts  --      5.8169                 5.8240                 5.8406
 IR Inten    --      9.9438                18.4741                24.6124

                    103                    104                    105
                      A                      A                      A
 Frequencies --   3058.1162              3065.3692              3069.5588
 Red. masses --      1.0651                 1.0585                 1.0750
 Frc consts  --      5.8690                 5.8602                 5.9680
 IR Inten    --     16.7668                17.9450                 2.1010

                    106                    107                    108
                      A                      A                      A
 Frequencies --   3071.3807              3072.2949              3080.3335
 Red. masses --      1.0783                 1.0608                 1.0630
 Frc consts  --      5.9934                 5.8994                 5.9426
 IR Inten    --     21.1974                20.2026                 3.7705

                    109                    110                    111
                      A                      A                      A
 Frequencies --   3085.3355              3089.9636              3102.8505
 Red. masses --      1.0705                 1.0997                 1.0960
 Frc consts  --      6.0042                 6.1865                 6.2171
 IR Inten    --     43.2847                 3.2988                 4.6241

                    112                    113                    114
                      A                      A                      A
 Frequencies --   3104.2000              3108.2561              3114.9080
 Red. masses --      1.0947                 1.0980                 1.1065
 Frc consts  --      6.2152                 6.2503                 6.3255
 IR Inten    --     21.3260                43.1990                 3.1311

                    115                    116                    117
                      A                      A                      A
 Frequencies --   3115.4012              3127.7850              3130.7656
 Red. masses --      1.1015                 1.1062                 1.1070
 Frc consts  --      6.2989                 6.3760                 6.3932
 IR Inten    --     42.8746                18.6011                 2.5900

                    118                    119                    120
                      A                      A                      A
 Frequencies --   3155.6153              3575.4767              3683.2592
 Red. masses --      1.0979                 1.0751                 1.0640
 Frc consts  --      6.4412                 8.0976                 8.5043
 IR Inten    --     10.8292                21.1793                46.8082

 - Thermochemistry -
 -------------------
 Temperature   298.150 Kelvin.  Pressure   1.00000 Atm.
 Atom     1 has atomic number  6 and mass  12.00000

 Molecular mass:   318.10719 amu.
 Principal axes and moments of inertia in atomic units:
                           1         2         3
     Eigenvalues --  3029.99827********************
           X            0.99997   0.00663   0.00500
           Y           -0.00665   0.99996   0.00518
           Z           -0.00497  -0.00521   0.99997
 This molecule is an asymmetric top.
 Rotational symmetry number  1.
 Warning -- assumption of classical behavior for rotation
           may cause significant error
 Rotational temperatures (Kelvin)      0.02859     0.00476     0.00432
 Rotational constants (GHZ):           0.59562     0.09924     0.09010
 Zero-point vibrational energy     936436.5 (Joules/Mol)
                                  223.81370 (Kcal/Mol)
 Warning -- explicit consideration of  30 degrees of freedom as
           vibrations may cause significant error
 Vibrational temperatures:     24.56    30.82    46.25    54.30    60.11
          (Kelvin)             90.49   124.90   140.22   145.80   196.23
                              208.49   275.33   315.97   330.80   349.62
                              383.11   387.39   409.91   429.18   459.37
                              522.42   528.57   603.00   622.53   658.58
                              737.07   751.90   799.55   831.71   856.51
                              895.71   902.06   922.23   959.39   979.25
                              990.66  1061.53  1071.15  1138.15  1157.47
                             1160.73  1225.37  1233.63  1287.99  1300.45
                             1339.91  1357.13  1379.83  1383.79  1414.27
                             1444.51  1447.10  1472.62  1498.44  1573.08
                             1581.77  1600.37  1624.33  1629.64  1668.96
                             1681.76  1701.80  1718.55  1725.97  1757.97
                             1761.69  1785.32  1797.13  1804.81  1824.20
                             1840.06  1869.70  1894.29  1906.27  1917.79
                             1926.29  1943.02  1945.04  1955.68  1991.52
                             1996.16  2018.34  2028.09  2056.46  2067.74
                             2093.70  2119.29  2134.09  2143.22  2146.13
                             2152.45  2174.20  2188.78  2190.50  2229.31
                             2246.13  2558.78  2652.89  4353.07  4376.49
                             4382.56  4383.25  4399.95  4410.38  4416.41
                             4419.03  4420.35  4431.91  4439.11  4445.77
                             4464.31  4466.25  4472.09  4481.66  4482.37
                             4500.18  4504.47  4540.23  5144.31  5299.39

 Zero-point correction=                           0.356670 (Hartree/Particle)
 Thermal correction to Energy=                    0.377312
 Thermal correction to Enthalpy=                  0.378256
 Thermal correction to Gibbs Free Energy=         0.303370
 Sum of electronic and zero-point Energies=          -1639.954366
 Sum of electronic and thermal Energies=             -1639.933724
 Sum of electronic and thermal Enthalpies=           -1639.932779
 Sum of electronic and thermal Free Energies=        -1640.007665

                     E (Thermal)             CV                S
                      KCal/Mol        Cal/Mol-Kelvin    Cal/Mol-Kelvin
 Total                  236.767             77.059            157.611
 Electronic               0.000              0.000              0.000
 Translational            0.889              2.981             43.167
 Rotational               0.889              2.981             35.355
 Vibrational            234.989             71.098             79.088
 Vibration     1          0.593              1.986              6.949
 Vibration     2          0.593              1.985              6.498
 Vibration     3          0.594              1.983              5.692
 Vibration     4          0.594              1.982              5.374
 Vibration     5          0.594              1.980              5.173
 Vibration     6          0.597              1.972              4.364
 Vibration     7          0.601              1.958              3.731
 Vibration     8          0.603              1.951              3.505
 Vibration     9          0.604              1.948              3.428
 Vibration    10          0.614              1.917              2.854
 Vibration    11          0.616              1.908              2.738
 Vibration    12          0.634              1.852              2.215
 Vibration    13          0.647              1.811              1.962
 Vibration    14          0.652              1.795              1.880
 Vibration    15          0.659              1.774              1.781
 Vibration    16          0.672              1.735              1.620
 Vibration    17          0.674              1.730              1.601
 Vibration    18          0.683              1.702              1.504
 Vibration    19          0.691              1.677              1.426
 Vibration    20          0.705              1.637              1.314
 Vibration    21          0.737              1.548              1.109
 Vibration    22          0.740              1.539              1.091
 Vibration    23          0.782              1.429              0.895
 Vibration    24          0.794              1.399              0.850
 Vibration    25          0.816              1.344              0.773
 Vibration    26          0.867              1.223              0.628
 Vibration    27          0.878              1.200              0.604
 Vibration    28          0.911              1.127              0.532
 Vibration    29          0.935              1.079              0.489
 Vibration    30          0.953              1.042              0.458

 Optimization completed.
    -- Stationary point found.
 Normal termination of Gaussian 16 at Sat Dec 12 17:32:22 2020.

 ----------------------------------------------------------------------
 # B3LYP/6-311++G(d,p) empiricaldispersion=gd3bj scf=xqc pop=npa geom=c
 heck
 ----------------------------------------------------------------------

 ----------------------------------------
 CID_116220220_JID_10875_Energie_neutraal
 ----------------------------------------
 Structure from the checkpoint file:  "JID_10875.chk"
 Charge =  0 Multiplicity = 1

 SCF Done:  E(RB3LYP) =  -1640.61621272     A.U. after   15 cycles
 Normal termination of Gaussian 16 at Sat Dec 12 17:42:52 2020.

 ----------------------------------------------------------------------
 # B3LYP/6-311++G(d,p) empiricaldispersion=gd3bj scf=xqc pop=npa geom=c
 heck
 ----------------------------------------------------------------------

 --------------------------------------
 CID_116220220_JID_10875_Energie_kation
 --------------------------------------
 Structure from the checkpoint file:  "JID_10875.chk"
 Charge =  1 Multiplicity = 2

 SCF Done:  E(UB3LYP) =  -1640.32479559     A.U. after   30 cycles
 Normal termination of Gaussian 16 at Sat Dec 12 18:12:34 2020.
 Gaussian 16:  ES64L-G16RevA.03 25-Dec-2016

 ----------------------------------------------------------------------
 # B3LYP/6-311++G(d,p) empiricaldispersion=gd3bj scf=xqc pop=npa geom=c
 heck
 ----------------------------------------------------------------------

 -------------------------------------
 CID_116220220_JID_10875_Energie_anion
 -------------------------------------
 Structure from the checkpoint file:  "JID_10875.chk"
 Charge = -1 Multiplicity = 2

                         Standard orientation:
 ---------------------------------------------------------------------
 Center     Atomic      Atomic             Coordinates (Angstroms)
 Number     Number       Type             X           Y           Z
 ---------------------------------------------------------------------
      1          6           0        2.353934   -0.036515    1.158026
      2          6           0        0.902746   -0.013055    0.662272
      3          7           0        0.874133    1.108959   -0.290614
      4          6           0        2.228532    1.598804   -0.581711
      5          6           0        3.147013    0.491556   -0.050012
      6          6           0        4.558307    0.990833    0.261828
      7          6           0        5.497935   -0.092283    0.795614
      8          6           0        5.826237   -1.155342   -0.229587
      9          8           0        5.592364   -1.100026   -1.417257
     10          8           0        6.455795   -2.214296    0.337921
     11          6           0       -0.158960    2.012536   -0.396085
     12          8           0        0.019822    3.183344   -0.718062
     13          7           0       -1.435620    1.526134   -0.091056
     14          6           0       -1.932005    0.241507   -0.594371
     15          6           0       -2.571951   -0.611306    0.510566
     16          6           0       -3.617921    0.138125    1.339553
     17         16           0       -5.055985    0.749749    0.381360
     18          6           0       -5.696367   -0.857207   -0.228767
     19          6           0       -4.696817   -1.625654   -1.087319
     20         16           0       -3.214717   -2.201232   -0.166212
     21          1           0        2.472737    0.649894    2.006770
     22          1           0        2.660597   -1.034835    1.484528
     23          1           0        0.649161   -0.960960    0.168465
     24          1           0        0.179365    0.151041    1.466145
     25          1           0        2.403841    2.551994   -0.065409
     26          1           0        2.353143    1.779430   -1.653393
     27          1           0        3.212500   -0.302267   -0.803451
     28          1           0        4.996236    1.422320   -0.645252
     29          1           0        4.497116    1.796804    1.004535
     30          1           0        6.452796    0.347798    1.112679
     31          1           0        5.091035   -0.584879    1.685908
     32          1           0        6.653336   -2.832371   -0.390965
     33          1           0       -2.097634    2.284292   -0.213449
     34          1           0       -2.669566    0.428503   -1.381114
     35          1           0       -1.111384   -0.313477   -1.050251
     36          1           0       -1.788158   -0.937197    1.203609
     37          1           0       -3.973200   -0.495180    2.157585
     38          1           0       -3.156459    1.031357    1.771470
     39          1           0       -6.582805   -0.606642   -0.821350
     40          1           0       -6.016274   -1.464395    0.624307
     41          1           0       -4.396655   -1.029206   -1.953379
     42          1           0       -5.156048   -2.548117   -1.459515
 ---------------------------------------------------------------------

 SCF Done:  E(UB3LYP) =  -1640.60995709     A.U. after   33 cycles
 SCF Done:  E(UB3LYP) =  -1640.60995709     a.u. after    1 cycles

 The electronic state is 2-A.
 Alpha  occ. eigenvalues --  -88.76879 -88.76702 -19.08729 -19.03620 -19.00286
 Alpha  occ. eigenvalues --  -14.25584 -14.25186 -10.22703 -10.21199 -10.13961
 Alpha  occ. eigenvalues --  -10.13647 -10.13154 -10.13132 -10.13102 -10.13046
 Alpha  occ. eigenvalues --  -10.11950 -10.10754 -10.09938 -10.09748 -10.09614
 Alpha  occ. eigenvalues --   -7.85506  -7.85324  -5.81892  -5.81716  -5.81544
 Alpha  occ. eigenvalues --   -5.81358  -5.80870  -5.80684  -1.02896  -0.96913
 Alpha  occ. eigenvalues --   -0.94062  -0.86697  -0.84148  -0.77420  -0.74275
 Alpha  occ. eigenvalues --   -0.71112  -0.69412  -0.69083  -0.66461  -0.62401
 Alpha  occ. eigenvalues --   -0.59976  -0.56380  -0.55870  -0.54831  -0.52367
 Alpha  occ. eigenvalues --   -0.49171  -0.48791  -0.47325  -0.44579  -0.42862
 Alpha  occ. eigenvalues --   -0.42156  -0.42104  -0.40511  -0.40014  -0.39707
 Alpha  occ. eigenvalues --   -0.39217  -0.38028  -0.36765  -0.36464  -0.35967
 Alpha  occ. eigenvalues --   -0.35151  -0.34044  -0.33638  -0.33031  -0.32451
 Alpha  occ. eigenvalues --   -0.32376  -0.31388  -0.30940  -0.30346  -0.29794
 Alpha  occ. eigenvalues --   -0.29182  -0.28681  -0.26361  -0.25582  -0.25507
 Alpha  occ. eigenvalues --   -0.25374  -0.25148  -0.24318  -0.23041  -0.20433
 Alpha  occ. eigenvalues --   -0.20060  -0.17753  -0.16493  -0.16433  -0.15133
 Alpha  occ. eigenvalues --    0.03252
 Alpha virt. eigenvalues --    0.04230   0.05425   0.05904   0.06723   0.06875
 Alpha virt. eigenvalues --    0.07216   0.07385   0.07963   0.08285   0.08663
 Alpha virt. eigenvalues --    0.08863   0.09518   0.09841   0.10059   0.10270

  Beta  occ. eigenvalues --  -88.76878 -88.76699 -19.08680 -19.03607 -19.00285
  Beta  occ. eigenvalues --  -14.25584 -14.25185 -10.22697 -10.21197 -10.13958
  Beta  occ. eigenvalues --  -10.13642 -10.13147 -10.13119 -10.13078 -10.13013
  Beta  occ. eigenvalues --  -10.11947 -10.10720 -10.09934 -10.09740 -10.09592
  Beta  occ. eigenvalues --   -7.85504  -7.85322  -5.81890  -5.81714  -5.81541
  Beta  occ. eigenvalues --   -5.81354  -5.80869  -5.80681  -1.02833  -0.96909
  Beta  occ. eigenvalues --   -0.94008  -0.86690  -0.84143  -0.77398  -0.74253
  Beta  occ. eigenvalues --   -0.71082  -0.69374  -0.69059  -0.66432  -0.62378
  Beta  occ. eigenvalues --   -0.59928  -0.56346  -0.55836  -0.54783  -0.52297
  Beta  occ. eigenvalues --   -0.49124  -0.48764  -0.47291  -0.44560  -0.42844
  Beta  occ. eigenvalues --   -0.42137  -0.42068  -0.40482  -0.39974  -0.39678
  Beta  occ. eigenvalues --   -0.39184  -0.38002  -0.36744  -0.36444  -0.35937
  Beta  occ. eigenvalues --   -0.35125  -0.34008  -0.33605  -0.33006  -0.32432
  Beta  occ. eigenvalues --   -0.32348  -0.31364  -0.30906  -0.30312  -0.29768
  Beta  occ. eigenvalues --   -0.29166  -0.28658  -0.26338  -0.25552  -0.25474
  Beta  occ. eigenvalues --   -0.25355  -0.25128  -0.24277  -0.23015  -0.20395
  Beta  occ. eigenvalues --   -0.20056  -0.17748  -0.16488  -0.16417  -0.15119
  Beta virt. eigenvalues --    0.05207   0.05448   0.05975   0.06531   0.06849
  Beta virt. eigenvalues --    0.07110   0.07414   0.07607   0.08045   0.08575
  Beta virt. eigenvalues --    0.08766   0.09132   0.09714   0.10004   0.10273

 Mulliken charges and spin densities:
               1          2
     1  C    0.347629  -1.683256
     2  C   -0.330579   0.424319
     3  N    0.028607   0.034496
     4  C   -0.431116   0.007559
     5  C    0.049751   0.530876
     6  C   -0.629349   0.122624
     7  C    1.028016  -1.290583
     8  C   -0.102764  -0.101257
     9  O   -0.268544  -0.000736
    10  O   -0.175983   0.057009
    11  C    0.124303  -0.024558
    12  O   -0.346196   0.001705
    13  N   -0.120443   0.014691
    14  C   -0.778755  -0.278584
    15  C    0.672402   0.253426
    16  C   -0.615906  -0.289986
    17  S   -0.024629   0.263552
    18  C    0.164766  -0.819228
    19  C   -0.082311  -0.320864
    20  S    0.033376  -0.102490
    21  H   -0.059428   0.238099
    22  H   -0.150763   0.354960
    23  H    0.130143   0.019976
    24  H    0.143256   0.037349
    25  H    0.154964   0.059787
    26  H    0.202776  -0.000824
    27  H    0.124941   0.103635
    28  H    0.151874   0.036572
    29  H    0.120427   0.005309
    30  H   -0.369342   0.575020
    31  H    0.025887   0.215368
    32  H   -0.347243   0.636894
    33  H    0.283231   0.018112
    34  H    0.175699   0.035037
    35  H    0.129993   0.076307
    36  H    0.042721   0.239900
    37  H    0.055556   0.176606
    38  H    0.219205  -0.006846
    39  H   -0.419596   0.643730
    40  H    0.098975   0.080228
    41  H    0.159359   0.003952
    42  H   -0.414907   0.652114
 Sum of Mulliken charges =  -1.00000   1.00000

 Dipole moment (field-independent basis, Debye):
    X=             -3.3241    Y=              3.2374    Z=              1.2603  Tot=              4.8082
 Quadrupole moment (field-independent basis, Debye-Ang):
   XX=           -307.5991   YY=           -194.8835   ZZ=           -169.0993
   XY=             10.8470   XZ=             -7.1772   YZ=              0.4614

 Summary of Natural Population Analysis:

                                       Natural Population
                Natural  -----------------------------------------------
    Atom  No    Charge         Core      Valence    Rydberg      Total
 -----------------------------------------------------------------------
      C    1   -0.19382      0.99962     2.18577    0.00843     3.19382
      C    2   -0.08426      0.99963     2.07390    0.01073     3.08426
      N    3   -0.26927      0.99964     2.76176    0.00787     3.76927
      C    4   -0.07527      0.99961     2.06624    0.00942     3.07527
      C    5   -0.11996      0.99958     2.11034    0.01004     3.11996
      C    6   -0.18702      0.99961     2.17708    0.01033     3.18702
      C    7   -0.24102      0.99958     2.23241    0.00903     3.24102
      C    8    0.40864      0.99972     1.56648    0.02516     2.59136
      O    9   -0.30847      0.99987     3.30232    0.00628     4.30847
      O   10   -0.34308      0.99988     3.33673    0.00647     4.34308
      C   11    0.41446      0.99966     1.56328    0.02259     2.58554
      O   12   -0.33629      0.99988     3.33131    0.00510     4.33629
      N   13   -0.34187      0.99968     2.83329    0.00890     3.84187
      C   14   -0.10005      0.99956     2.08870    0.01180     3.10005
      C   15   -0.17857      0.99954     2.16298    0.01605     3.17857
      C   16   -0.25755      0.99954     2.24781    0.01020     3.25755
      S   17    0.08443      4.99963     2.89705    0.01888     7.91557
      C   18   -0.25709      0.99958     2.24445    0.01307     3.25709
      C   19   -0.25897      0.99957     2.24650    0.01290     3.25897
      S   20    0.09501      4.99962     2.88886    0.01650     7.90499
      H   21    0.09676      0.00000     0.40200    0.00125     0.40324
      H   22    0.10751      0.00000     0.39128    0.00121     0.39249
      H   23    0.09232      0.00000     0.40612    0.00156     0.40768
      H   24    0.10091      0.00000     0.39762    0.00147     0.39909
      H   25    0.09722      0.00000     0.40154    0.00124     0.40278
      H   26    0.10137      0.00000     0.39771    0.00092     0.39863
      H   27    0.10617      0.00000     0.39206    0.00177     0.39383
      H   28    0.10603      0.00000     0.39301    0.00096     0.39397
      H   29    0.09886      0.00000     0.40016    0.00098     0.40114
      H   30    0.11849      0.00000     0.38021    0.00130     0.38151
      H   31    0.11417      0.00000     0.38446    0.00137     0.38583
      H   32    0.24345      0.00000     0.24446    0.01209     0.25655
      H   33    0.19301      0.00000     0.30425    0.00274     0.30699
      H   34    0.10010      0.00000     0.39845    0.00145     0.39990
      H   35    0.10750      0.00000     0.39117    0.00133     0.39250
      H   36    0.11157      0.00000     0.38685    0.00157     0.38843
      H   37    0.10785      0.00000     0.39079    0.00136     0.39215
      H   38    0.11419      0.00000     0.38445    0.00136     0.38581
      H   39    0.11279      0.00000     0.38521    0.00200     0.38721
      H   40    0.10390      0.00000     0.39439    0.00170     0.39610
      H   41    0.10235      0.00000     0.39615    0.00150     0.39765
      H   42    0.11347      0.00000     0.38469    0.00185     0.38653
 =======================================================================
   * Total *   -0.00000     27.99299    56.72429    0.28272    85.00000

 Normal termination of Gaussian 16 at Sat Dec 12 18:44:58 2020.
