 Gaussian 16, Revision A.03,

 -----------------------------------------------------------
 # opt freq B3LYP/6-31G(d) empiricaldispersion=gd3bj scf=xqc
 -----------------------------------------------------------

 -------------------------------
 CID_150034212_JID_5472_neutraal
 -------------------------------
 Symbolic Z-matrix:
 Charge =  0 Multiplicity = 1

 SCF Done:  E(RB3LYP) =  -1056.33779454     A.U. after   14 cycles
 SCF Done:  E(RB3LYP) =  -1056.33933744     A.U. after   12 cycles
 SCF Done:  E(RB3LYP) =  -1056.33306279     A.U. after   14 cycles
 SCF Done:  E(RB3LYP) =  -1056.33840935     A.U. after   13 cycles
 SCF Done:  E(RB3LYP) =  -1056.34102717     A.U. after   10 cycles
 SCF Done:  E(RB3LYP) =  -1056.34242846     A.U. after   12 cycles
 SCF Done:  E(RB3LYP) =  -1056.34312751     A.U. after   12 cycles
 SCF Done:  E(RB3LYP) =  -1056.34268261     A.U. after   13 cycles
 SCF Done:  E(RB3LYP) =  -1056.34346874     A.U. after   12 cycles
 SCF Done:  E(RB3LYP) =  -1056.34369960     A.U. after   11 cycles
 SCF Done:  E(RB3LYP) =  -1056.34376522     A.U. after   12 cycles
 SCF Done:  E(RB3LYP) =  -1056.34377247     A.U. after    9 cycles
 SCF Done:  E(RB3LYP) =  -1056.34377417     A.U. after    9 cycles
 SCF Done:  E(RB3LYP) =  -1056.34377451     A.U. after    8 cycles
 SCF Done:  E(RB3LYP) =  -1056.34377454     A.U. after    7 cycles
 Optimization completed.
    -- Stationary point found.
 Normal termination of Gaussian 16 at Thu Dec 10 16:48:18 2020.

 --------------------------------------------------------------------
 #N Geom=AllCheck Guess=TCheck SCRF=Check GenChk RB3LYP/6-31G(d) Freq
 --------------------------------------------------------------------

 Structure from the checkpoint file:  "JID_5472.chk"
 -------------------------------
 CID_150034212_JID_5472_neutraal
 -------------------------------
 Charge =  0 Multiplicity = 1

 SCF Done:  E(RB3LYP) =  -1056.34377454     A.U. after    1 cycles

  Exact polarizability: 158.335   0.683 137.805  -4.440   3.084 122.144
 Approx polarizability: 195.699  -4.255 204.941  -4.168   9.203 192.310

                      1                      2                      3
                      A                      A                      A
 Frequencies --     26.2146                31.9022                34.5309
 Red. masses --      5.4991                 7.7878                 4.3988
 Frc consts  --      0.0022                 0.0047                 0.0031
 IR Inten    --      1.1251                 0.9711                 0.6570

                      4                      5                      6
                      A                      A                      A
 Frequencies --     43.9756                64.4155                72.6190
 Red. masses --      3.3495                 4.1448                 3.5813
 Frc consts  --      0.0038                 0.0101                 0.0111
 IR Inten    --      0.5010                 2.0357                 0.2917

                      7                      8                      9
                      A                      A                      A
 Frequencies --     85.8859               102.1005               143.2649
 Red. masses --      4.7646                 4.0832                 3.8211
 Frc consts  --      0.0207                 0.0251                 0.0462
 IR Inten    --      0.6874                 1.5403                 0.4249

                     10                     11                     12
                      A                      A                      A
 Frequencies --    168.9101               193.4276               221.2639
 Red. masses --      2.6167                 2.5962                 3.1478
 Frc consts  --      0.0440                 0.0572                 0.0908
 IR Inten    --      1.2116                 5.2552                 1.7005

                     13                     14                     15
                      A                      A                      A
 Frequencies --    236.3935               262.8542               285.1579
 Red. masses --      1.3526                 2.4965                 1.8503
 Frc consts  --      0.0445                 0.1016                 0.0886
 IR Inten    --      1.5453                12.5311                22.0185

                     16                     17                     18
                      A                      A                      A
 Frequencies --    314.5426               323.7436               339.2147
 Red. masses --      1.7792                 1.7046                 2.2060
 Frc consts  --      0.1037                 0.1053                 0.1496
 IR Inten    --     30.1906                37.4408                12.8986

                     19                     20                     21
                      A                      A                      A
 Frequencies --    368.5190               391.8153               407.7861
 Red. masses --      2.3467                 1.9429                 3.7943
 Frc consts  --      0.1878                 0.1757                 0.3717
 IR Inten    --      1.4790                 0.7803                 3.2873

                     22                     23                     24
                      A                      A                      A
 Frequencies --    426.6006               433.9059               498.7941
 Red. masses --      3.3358                 1.8881                 2.0788
 Frc consts  --      0.3577                 0.2094                 0.3047
 IR Inten    --      4.1441                 2.1316                 1.2400

                     25                     26                     27
                      A                      A                      A
 Frequencies --    550.5031               565.7703               628.9232
 Red. masses --      4.0564                 2.6152                 3.2139
 Frc consts  --      0.7243                 0.4932                 0.7490
 IR Inten    --     18.3304                 1.0243                13.6699

                     28                     29                     30
                      A                      A                      A
 Frequencies --    646.6866               684.8949               712.5782
 Red. masses --      1.6965                 2.2753                 1.3613
 Frc consts  --      0.4180                 0.6288                 0.4073
 IR Inten    --     52.6360                57.5582                27.0384

                     31                     32                     33
                      A                      A                      A
 Frequencies --    745.3184               764.8429               798.7122
 Red. masses --      1.7564                 2.9567                 1.9216
 Frc consts  --      0.5748                 1.0191                 0.7223
 IR Inten    --      1.9974                43.0678                10.5209

                     34                     35                     36
                      A                      A                      A
 Frequencies --    817.7390               839.6032               861.6432
 Red. masses --      2.5391                 2.8609                 1.8529
 Frc consts  --      1.0004                 1.1882                 0.8105
 IR Inten    --      5.2074                 8.6907                 5.6105

                     37                     38                     39
                      A                      A                      A
 Frequencies --    890.0445               917.7249               962.5099
 Red. masses --      2.1100                 1.7945                 1.9882
 Frc consts  --      0.9848                 0.8904                 1.0852
 IR Inten    --      3.1047                 0.8560                18.0755

                     40                     41                     42
                      A                      A                      A
 Frequencies --    978.2482              1011.7324              1019.7744
 Red. masses --      1.6812                 1.5929                 1.7935
 Frc consts  --      0.9479                 0.9606                 1.0989
 IR Inten    --      3.3932                 1.5998                 6.8772

                     43                     44                     45
                      A                      A                      A
 Frequencies --   1034.3308              1051.3345              1092.7334
 Red. masses --      1.7490                 1.7601                 2.8597
 Frc consts  --      1.1024                 1.1462                 2.0118
 IR Inten    --     22.7116                 0.5113                42.5326

                     46                     47                     48
                      A                      A                      A
 Frequencies --   1095.1105              1098.2649              1112.6492
 Red. masses --      1.8754                 2.2842                 1.9168
 Frc consts  --      1.3251                 1.6233                 1.3981
 IR Inten    --     70.6709                61.9869                20.7830

                     49                     50                     51
                      A                      A                      A
 Frequencies --   1123.1213              1127.8546              1161.8514
 Red. masses --      2.3849                 2.2001                 1.1263
 Frc consts  --      1.7724                 1.6489                 0.8958
 IR Inten    --      2.3463                 2.5775                15.8594

                     52                     53                     54
                      A                      A                      A
 Frequencies --   1175.5149              1185.1285              1220.5718
 Red. masses --      1.9527                 1.3115                 1.2168
 Frc consts  --      1.5898                 1.0853                 1.0680
 IR Inten    --    140.1481                13.0593                 1.3107

                     55                     56                     57
                      A                      A                      A
 Frequencies --   1246.4497              1252.9433              1270.3803
 Red. masses --      1.2979                 1.2075                 1.3144
 Frc consts  --      1.1881                 1.1168                 1.2498
 IR Inten    --      4.5123                 7.4907                15.5192

                     58                     59                     60
                      A                      A                      A
 Frequencies --   1300.0327              1309.4905              1326.5424
 Red. masses --      1.2298                 1.3055                 1.2009
 Frc consts  --      1.2246                 1.3190                 1.2451
 IR Inten    --      6.3180                 0.1183                 4.3861

                     61                     62                     63
                      A                      A                      A
 Frequencies --   1337.4774              1356.2368              1363.8986
 Red. masses --      1.1929                 1.1361                 2.0784
 Frc consts  --      1.2573                 1.2312                 2.2780
 IR Inten    --      9.7747                 3.3140                17.5281

                     64                     65                     66
                      A                      A                      A
 Frequencies --   1381.5189              1385.6545              1402.6125
 Red. masses --      1.3605                 1.5557                 1.3054
 Frc consts  --      1.5299                 1.7599                 1.5131
 IR Inten    --      7.4576                 0.3334                 3.8806

                     67                     68                     69
                      A                      A                      A
 Frequencies --   1409.0666              1410.4111              1423.4595
 Red. masses --      1.4192                 1.2600                 1.3875
 Frc consts  --      1.6602                 1.4767                 1.6564
 IR Inten    --     15.8489                10.9341                 1.8002

                     70                     71                     72
                      A                      A                      A
 Frequencies --   1427.5258              1440.1920              1442.6614
 Red. masses --      1.4387                 1.2261                 1.3068
 Frc consts  --      1.7274                 1.4984                 1.6025
 IR Inten    --      1.2270                 6.3785                36.9772

                     73                     74                     75
                      A                      A                      A
 Frequencies --   1495.2109              1505.1156              1510.4336
 Red. masses --      1.0855                 1.0823                 1.0830
 Frc consts  --      1.4298                 1.4446                 1.4557
 IR Inten    --      6.6068                 6.9935                11.9719

                     76                     77                     78
                      A                      A                      A
 Frequencies --   1517.7469              1525.8279              1528.6215
 Red. masses --      1.0743                 1.0709                 1.0775
 Frc consts  --      1.4581                 1.4689                 1.4835
 IR Inten    --      3.0919                 3.8088                 4.1002

                     79                     80                     81
                      A                      A                      A
 Frequencies --   1530.0788              1537.6843              1541.3381
 Red. masses --      1.0700                 1.0577                 1.0819
 Frc consts  --      1.4760                 1.4735                 1.5144
 IR Inten    --      5.5116                 4.3251                 4.1355

                     82                     83                     84
                      A                      A                      A
 Frequencies --   1544.6204              1848.5644              3000.4118
 Red. masses --      1.0916                10.2758                 1.0719
 Frc consts  --      1.5344                20.6887                 5.6853
 IR Inten    --      3.4549               189.5668                51.9856

                     85                     86                     87
                      A                      A                      A
 Frequencies --   3026.4105              3034.8173              3039.8517
 Red. masses --      1.0655                 1.0656                 1.0612
 Frc consts  --      5.7498                 5.7822                 5.7774
 IR Inten    --     17.9142                39.7201                29.1206

                     88                     89                     90
                      A                      A                      A
 Frequencies --   3043.4302              3044.0891              3045.8296
 Red. masses --      1.0686                 1.0817                 1.0680
 Frc consts  --      5.8314                 5.9058                 5.8373
 IR Inten    --     16.6824                 2.4587                 7.0187

                     91                     92                     93
                      A                      A                      A
 Frequencies --   3051.2066              3060.8745              3073.2928
 Red. masses --      1.0802                 1.0880                 1.0731
 Frc consts  --      5.9249                 6.0059                 5.9717
 IR Inten    --      2.5318                21.2262                35.3722

                     94                     95                     96
                      A                      A                      A
 Frequencies --   3075.9219              3079.6426              3080.2672
 Red. masses --      1.0792                 1.0434                 1.0884
 Frc consts  --      6.0159                 5.8305                 6.0843
 IR Inten    --     61.3495                44.0567                63.9504

                     97                     98                     99
                      A                      A                      A
 Frequencies --   3085.8322              3102.6920              3103.8519
 Red. masses --      1.1010                 1.0940                 1.0932
 Frc consts  --      6.1768                 6.2049                 6.2054
 IR Inten    --     60.6561                54.3467                36.2996

                    100                    101                    102
                      A                      A                      A
 Frequencies --   3113.9908              3120.1892              3154.0894
 Red. masses --      1.1014                 1.0961                 1.1037
 Frc consts  --      6.2928                 6.2874                 6.4692
 IR Inten    --     18.8968                17.7417                10.9836

                    103                    104                    105
                      A                      A                      A
 Frequencies --   3156.0046              3681.3504              3753.4602
 Red. masses --      1.1024                 1.0640                 1.0660
 Frc consts  --      6.4694                 8.4962                 8.8483
 IR Inten    --     15.3705                47.7324                 6.5447

 - Thermochemistry -
 -------------------
 Temperature   298.150 Kelvin.  Pressure   1.00000 Atm.
 Atom     1 has atomic number  6 and mass  12.00000

 Molecular mass:   234.12897 amu.
 Principal axes and moments of inertia in atomic units:
                           1         2         3
     Eigenvalues --  1890.357468939.906879531.46672
           X            0.99996  -0.00066  -0.00861
           Y            0.00081   0.99984   0.01781
           Z            0.00860  -0.01782   0.99980
 This molecule is an asymmetric top.
 Rotational symmetry number  1.
 Warning -- assumption of classical behavior for rotation
           may cause significant error
 Rotational temperatures (Kelvin)      0.04582     0.00969     0.00909
 Rotational constants (GHZ):           0.95471     0.20187     0.18935
 Zero-point vibrational energy     860431.2 (Joules/Mol)
                                  205.64798 (Kcal/Mol)
 Warning -- explicit consideration of  26 degrees of freedom as
           vibrations may cause significant error
 Vibrational temperatures:     37.72    45.90    49.68    63.27    92.68
          (Kelvin)            104.48   123.57   146.90   206.13   243.02
                              278.30   318.35   340.12   378.19   410.28
                              452.56   465.79   488.05   530.22   563.73
                              586.71   613.78   624.29   717.65   792.05
                              814.02   904.88   930.44   985.41  1025.24
                             1072.35  1100.44  1149.17  1176.54  1208.00
                             1239.71  1280.58  1320.40  1384.84  1407.48
                             1455.66  1467.23  1488.17  1512.64  1572.20
                             1575.62  1580.16  1600.85  1615.92  1622.73
                             1671.65  1691.30  1705.14  1756.13  1793.36
                             1802.71  1827.79  1870.46  1884.06  1908.60
                             1924.33  1951.32  1962.35  1987.70  1993.65
                             2018.05  2027.33  2029.27  2048.04  2053.89
                             2072.12  2075.67  2151.28  2165.53  2173.18
                             2183.70  2195.33  2199.35  2201.44  2212.38
                             2217.64  2222.36  2659.67  4316.92  4354.33
                             4366.43  4373.67  4378.82  4379.77  4382.27
                             4390.01  4403.92  4421.78  4425.57  4430.92
                             4431.82  4439.82  4464.08  4465.75  4480.34
                             4489.26  4538.03  4540.79  5296.64  5400.39

 Zero-point correction=                           0.327721 (Hartree/Particle)
 Thermal correction to Energy=                    0.345897
 Thermal correction to Enthalpy=                  0.346841
 Thermal correction to Gibbs Free Energy=         0.278993
 Sum of electronic and zero-point Energies=          -1056.016054
 Sum of electronic and thermal Energies=             -1055.997878
 Sum of electronic and thermal Enthalpies=           -1055.996933
 Sum of electronic and thermal Free Energies=        -1056.064781

                     E (Thermal)             CV                S
                      KCal/Mol        Cal/Mol-Kelvin    Cal/Mol-Kelvin
 Total                  217.054             66.142            142.797
 Electronic               0.000              0.000              0.000
 Translational            0.889              2.981             42.254
 Rotational               0.889              2.981             33.443
 Vibrational            215.276             60.181             67.101
 Vibration     1          0.593              1.985              6.097
 Vibration     2          0.594              1.983              5.707
 Vibration     3          0.594              1.983              5.550
 Vibration     4          0.595              1.980              5.071
 Vibration     5          0.597              1.971              4.317
 Vibration     6          0.599              1.967              4.081
 Vibration     7          0.601              1.959              3.752
 Vibration     8          0.604              1.947              3.414
 Vibration     9          0.616              1.910              2.760
 Vibration    10          0.625              1.881              2.448
 Vibration    11          0.635              1.849              2.195
 Vibration    12          0.648              1.809              1.949
 Vibration    13          0.655              1.785              1.830
 Vibration    14          0.670              1.741              1.643
 Vibration    15          0.683              1.701              1.503
 Vibration    16          0.702              1.646              1.338
 Vibration    17          0.708              1.628              1.291
 Vibration    18          0.719              1.597              1.216
 Vibration    19          0.741              1.537              1.086
 Vibration    20          0.759              1.488              0.993
 Vibration    21          0.772              1.453              0.934
 Vibration    22          0.788              1.412              0.870
 Vibration    23          0.795              1.396              0.846
 Vibration    24          0.854              1.253              0.661
 Vibration    25          0.906              1.139              0.543
 Vibration    26          0.922              1.105              0.512

                           ! Non-Optimized Parameters !
 Normal termination of Gaussian 16 at Thu Dec 10 17:00:45 2020.

 ----------------------------------------------------------------------
 # B3LYP/6-311++G(d,p) empiricaldispersion=gd3bj scf=xqc pop=npa geom=c
 heck
 ----------------------------------------------------------------------

 ---------------------------------------
 CID_150034212_JID_5472_Energie_neutraal
 ---------------------------------------
 Structure from the checkpoint file:  "JID_5472.chk"
 Charge =  0 Multiplicity = 1

 SCF Done:  E(RB3LYP) =  -1056.58146666     A.U. after   14 cycles
 Normal termination of Gaussian 16 at Thu Dec 10 17:06:30 2020.

 ----------------------------------------------------------------------
 # B3LYP/6-311++G(d,p) empiricaldispersion=gd3bj scf=xqc pop=npa geom=c
 heck
 ----------------------------------------------------------------------

 -------------------------------------
 CID_150034212_JID_5472_Energie_kation
 -------------------------------------
 Structure from the checkpoint file:  "JID_5472.chk"
 Charge =  1 Multiplicity = 2

 SCF Done:  E(UB3LYP) =  -1056.27411966     A.U. after   24 cycles
 Normal termination of Gaussian 16 at Thu Dec 10 17:30:03 2020.
 Gaussian 16:  ES64L-G16RevA.03 25-Dec-2016

 ----------------------------------------------------------------------
 # B3LYP/6-311++G(d,p) empiricaldispersion=gd3bj scf=xqc pop=npa geom=c
 heck
 ----------------------------------------------------------------------

 ------------------------------------
 CID_150034212_JID_5472_Energie_anion
 ------------------------------------
 Structure from the checkpoint file:  "JID_5472.chk"
 Charge = -1 Multiplicity = 2

                         Standard orientation:
 ---------------------------------------------------------------------
 Center     Atomic      Atomic             Coordinates (Angstroms)
 Number     Number       Type             X           Y           Z
 ---------------------------------------------------------------------
      1          6           0       -2.651939    0.431378    1.964487
      2          6           0       -3.311181    0.187024    0.602096
      3          6           0       -2.985129    1.250266   -0.448957
      4          8           0       -2.925792    1.095651   -1.645266
      5          8           0       -2.804444    2.468903    0.128297
      6         16           0       -3.116624   -1.522798   -0.031466
      7          6           0       -1.305244   -1.834387   -0.007151
      8          6           0       -0.437331   -1.049767   -1.007974
      9          6           0        0.229467    0.221488   -0.457573
     10          6           0        1.211450    0.000772    0.704584
     11          6           0        2.357656   -0.980987    0.415472
     12          6           0        3.218053   -0.631882   -0.810255
     13          6           0        3.874355    0.757184   -0.775898
     14          6           0        4.775984    0.992249    0.438441
     15          8           0        5.840009    0.050325    0.534922
     16          1           0       -1.561748    0.399299    1.894694
     17          1           0       -2.974862   -0.339407    2.668768
     18          1           0       -2.931785    1.412663    2.355706
     19          1           0       -4.399772    0.257117    0.736070
     20          1           0       -2.643640    3.086725   -0.609905
     21          1           0       -0.934042   -1.739514    1.017544
     22          1           0       -1.273086   -2.902978   -0.244786
     23          1           0        0.350584   -1.723832   -1.368254
     24          1           0       -1.044995   -0.788942   -1.878996
     25          1           0        0.755430    0.709796   -1.287600
     26          1           0       -0.527964    0.942118   -0.132577
     27          1           0        1.627594    0.974829    0.992080
     28          1           0        0.668170   -0.356295    1.589716
     29          1           0        2.992124   -1.040399    1.310836
     30          1           0        1.950696   -1.991025    0.278905
     31          1           0        4.003984   -1.391600   -0.919352
     32          1           0        2.609916   -0.710526   -1.719487
     33          1           0        4.474829    0.885156   -1.684782
     34          1           0        3.104888    1.540814   -0.792546
     35          1           0        5.259233    1.970907    0.356838
     36          1           0        4.178495    1.004556    1.363977
     37          1           0        5.446918   -0.813757    0.729359
 ---------------------------------------------------------------------

 SCF Done:  E(UB3LYP) =  -1056.57384363     A.U. after   33 cycles
 SCF Done:  E(UB3LYP) =  -1056.57384363     a.u. after    1 cycles

 The electronic state is 2-A.
 Alpha  occ. eigenvalues --  -88.74565 -19.07640 -19.03299 -19.02067 -10.21243
 Alpha  occ. eigenvalues --  -10.12875 -10.12623 -10.10648 -10.07912 -10.07807
 Alpha  occ. eigenvalues --  -10.07722 -10.07592 -10.07441 -10.07350 -10.07283
 Alpha  occ. eigenvalues --   -7.83178  -5.79602  -5.79204  -5.78512  -1.01738
 Alpha  occ. eigenvalues --   -0.93357  -0.92766  -0.73825  -0.72339  -0.69639
 Alpha  occ. eigenvalues --   -0.66377  -0.62816  -0.59490  -0.57947  -0.55915
 Alpha  occ. eigenvalues --   -0.53110  -0.49746  -0.47136  -0.44825  -0.42348
 Alpha  occ. eigenvalues --   -0.41196  -0.39938  -0.39460  -0.38387  -0.37442
 Alpha  occ. eigenvalues --   -0.36061  -0.35681  -0.33626  -0.33054  -0.32747
 Alpha  occ. eigenvalues --   -0.32202  -0.31327  -0.30439  -0.29990  -0.29719
 Alpha  occ. eigenvalues --   -0.28834  -0.26918  -0.26464  -0.25843  -0.24889
 Alpha  occ. eigenvalues --   -0.24401  -0.23325  -0.22873  -0.22475  -0.22092
 Alpha  occ. eigenvalues --   -0.21365  -0.18803  -0.18740  -0.13452   0.03829
 Alpha virt. eigenvalues --    0.05440   0.06399   0.07125   0.07427   0.07532
 Alpha virt. eigenvalues --    0.08758   0.09089   0.09688   0.09974   0.10384
 Alpha virt. eigenvalues --    0.10736   0.10856   0.11339   0.12412   0.12529

  Beta  occ. eigenvalues --  -88.74564 -19.07591 -19.03269 -19.02025 -10.21193
  Beta  occ. eigenvalues --  -10.12861 -10.12609 -10.10637 -10.07906 -10.07791
  Beta  occ. eigenvalues --  -10.07687 -10.07585 -10.07413 -10.07337 -10.07269
  Beta  occ. eigenvalues --   -7.83176  -5.79601  -5.79203  -5.78510  -1.01642
  Beta  occ. eigenvalues --   -0.93292  -0.92679  -0.73790  -0.72300  -0.69605
  Beta  occ. eigenvalues --   -0.66339  -0.62774  -0.59447  -0.57850  -0.55845
  Beta  occ. eigenvalues --   -0.53051  -0.49684  -0.47063  -0.44769  -0.42297
  Beta  occ. eigenvalues --   -0.41113  -0.39892  -0.39401  -0.38343  -0.37354
  Beta  occ. eigenvalues --   -0.36015  -0.35612  -0.33584  -0.33006  -0.32698
  Beta  occ. eigenvalues --   -0.32172  -0.31294  -0.30380  -0.29966  -0.29689
  Beta  occ. eigenvalues --   -0.28797  -0.26883  -0.26441  -0.25810  -0.24847
  Beta  occ. eigenvalues --   -0.24376  -0.23186  -0.22844  -0.22440  -0.22057
  Beta  occ. eigenvalues --   -0.21346  -0.18748  -0.18693  -0.13441
  Beta virt. eigenvalues --    0.06003   0.06625   0.06879   0.07431   0.07855
  Beta virt. eigenvalues --    0.07929   0.08988   0.09518   0.09779   0.10211
  Beta virt. eigenvalues --    0.10558   0.11040   0.11101   0.11410   0.12491

 Mulliken charges and spin densities:
               1          2
     1  C    0.591732  -1.449919
     2  C    0.022836   0.528947
     3  C    0.100177  -0.623739
     4  O   -0.208066   0.042842
     5  O   -0.173311   0.077282
     6  S    0.088010  -0.144630
     7  C   -0.255110  -0.127416
     8  C   -0.493182  -0.061081
     9  C    0.536786  -0.626565
    10  C   -0.672821   0.492148
    11  C    0.458336  -0.691299
    12  C   -0.161535  -0.311530
    13  C   -0.331209   0.202408
    14  C    0.381671  -0.931565
    15  O   -0.257804   0.021050
    16  H    0.033863   0.128675
    17  H   -0.224177   0.384546
    18  H   -0.015180   0.181643
    19  H   -0.235292   0.533083
    20  H   -0.334601   0.641838
    21  H    0.180323  -0.011476
    22  H    0.012416   0.217998
    23  H    0.264410  -0.140566
    24  H    0.171687   0.040167
    25  H    0.177763  -0.014556
    26  H    0.180784   0.016612
    27  H   -0.013694   0.181555
    28  H   -0.007905   0.125864
    29  H   -0.377727   0.545723
    30  H   -0.318878   0.483419
    31  H   -0.175751   0.356829
    32  H   -0.080468   0.200262
    33  H    0.108680   0.059223
    34  H   -0.044466   0.164480
    35  H    0.119513   0.043859
    36  H   -0.079018   0.242262
    37  H    0.031210   0.221626
 Sum of Mulliken charges =  -1.00000   1.00000

 Dipole moment (field-independent basis, Debye):
    X=             -0.0494    Y=             -1.0326    Z=             -1.7036  Tot=              1.9927
 Quadrupole moment (field-independent basis, Debye-Ang):
   XX=           -208.9431   YY=           -144.1737   ZZ=           -137.2358
   XY=             13.9613   XZ=             -6.9615   YZ=              2.6535

 Summary of Natural Population Analysis:

                                       Natural Population
                Natural  -----------------------------------------------
    Atom  No    Charge         Core      Valence    Rydberg      Total
 -----------------------------------------------------------------------
      C    1   -0.28982      0.99963     2.28284    0.00735     3.28982
      C    2   -0.21982      0.99953     2.20590    0.01439     3.21982
      C    3    0.40599      0.99967     1.56790    0.02645     2.59401
      O    4   -0.29951      0.99986     3.29378    0.00586     4.29951
      O    5   -0.34716      0.99988     3.34003    0.00725     4.34716
      S    6    0.10313      4.99962     2.88092    0.01633     7.89687
      C    7   -0.25512      0.99958     2.24473    0.01081     3.25512
      C    8   -0.20321      0.99961     2.19531    0.00829     3.20321
      C    9   -0.19136      0.99961     2.18373    0.00802     3.19136
      C   10   -0.19406      0.99962     2.18503    0.00940     3.19406
      C   11   -0.19493      0.99963     2.18503    0.01027     3.19493
      C   12   -0.19816      0.99962     2.18823    0.01030     3.19816
      C   13   -0.20428      0.99962     2.19767    0.00698     3.20428
      C   14   -0.01064      0.99960     1.99912    0.01193     3.01064
      O   15   -0.37080      0.99990     3.36420    0.00670     4.37080
      H   16    0.10164      0.00000     0.39687    0.00149     0.39836
      H   17    0.10418      0.00000     0.39439    0.00142     0.39582
      H   18    0.11123      0.00000     0.38730    0.00147     0.38877
      H   19    0.12337      0.00000     0.37475    0.00188     0.37663
      H   20    0.24377      0.00000     0.24586    0.01037     0.25623
      H   21    0.10240      0.00000     0.39594    0.00165     0.39760
      H   22    0.10743      0.00000     0.39171    0.00085     0.39257
      H   23    0.09652      0.00000     0.40217    0.00130     0.40348
      H   24    0.11180      0.00000     0.38708    0.00112     0.38820
      H   25    0.09701      0.00000     0.40173    0.00125     0.40299
      H   26    0.09827      0.00000     0.39935    0.00238     0.40173
      H   27    0.09686      0.00000     0.40192    0.00123     0.40314
      H   28    0.09644      0.00000     0.40218    0.00138     0.40356
      H   29    0.09685      0.00000     0.40136    0.00178     0.40315
      H   30    0.09850      0.00000     0.40023    0.00127     0.40150
      H   31    0.09766      0.00000     0.40112    0.00123     0.40234
      H   32    0.09843      0.00000     0.40042    0.00115     0.40157
      H   33    0.09784      0.00000     0.40109    0.00107     0.40216
      H   34    0.09860      0.00000     0.40025    0.00115     0.40140
      H   35    0.08415      0.00000     0.41463    0.00122     0.41585
      H   36    0.07711      0.00000     0.42148    0.00141     0.42289
      H   37    0.22968      0.00000     0.26675    0.00357     0.27032
 =======================================================================
   * Total *   -0.00000     18.99498    44.80301    0.20201    64.00000

 Normal termination of Gaussian 16 at Thu Dec 10 17:48:04 2020.
