 Gaussian 16, Revision A.03,

 -----------------------------------------------------------
 # opt freq B3LYP/6-31G(d) empiricaldispersion=gd3bj scf=xqc
 -----------------------------------------------------------

 ------------------------------
 CID_83906063_JID_3303_neutraal
 ------------------------------
 Symbolic Z-matrix:
 Charge =  0 Multiplicity = 1

 SCF Done:  E(RB3LYP) =  -537.106626049     A.U. after   14 cycles
 SCF Done:  E(RB3LYP) =  -537.110548817     A.U. after   12 cycles
 SCF Done:  E(RB3LYP) =  -537.111079425     A.U. after   12 cycles
 SCF Done:  E(RB3LYP) =  -537.111293263     A.U. after   11 cycles
 SCF Done:  E(RB3LYP) =  -537.111338430     A.U. after   10 cycles
 SCF Done:  E(RB3LYP) =  -537.111348559     A.U. after    9 cycles
 SCF Done:  E(RB3LYP) =  -537.111350688     A.U. after    8 cycles
 SCF Done:  E(RB3LYP) =  -537.111351014     A.U. after    7 cycles
 Optimization completed.
    -- Stationary point found.
 Normal termination of Gaussian 16 at Wed Dec  9 22:48:18 2020.

 --------------------------------------------------------------------
 #N Geom=AllCheck Guess=TCheck SCRF=Check GenChk RB3LYP/6-31G(d) Freq
 --------------------------------------------------------------------

 Structure from the checkpoint file:  "JID_3303.chk"
 ------------------------------
 CID_83906063_JID_3303_neutraal
 ------------------------------
 Charge =  0 Multiplicity = 1

 SCF Done:  E(RB3LYP) =  -537.111351014     A.U. after    1 cycles

  Exact polarizability: 126.885  14.494 114.143   8.927  -9.267 105.624
 Approx polarizability: 180.369  29.522 173.841  22.696 -23.302 180.806

                      1                      2                      3
                      A                      A                      A
 Frequencies --     62.8525                67.4841                94.7016
 Red. masses --      3.1000                 4.1640                 3.0448
 Frc consts  --      0.0072                 0.0112                 0.0161
 IR Inten    --      0.9067                 0.0720                 0.8411

                      4                      5                      6
                      A                      A                      A
 Frequencies --    158.7064               180.2760               223.4270
 Red. masses --      2.8617                 3.0139                 2.5102
 Frc consts  --      0.0425                 0.0577                 0.0738
 IR Inten    --      0.9717                 1.7553                 0.1255

                      7                      8                      9
                      A                      A                      A
 Frequencies --    287.7650               328.9075               394.1904
 Red. masses --      3.6692                 2.8013                 2.7966
 Frc consts  --      0.1790                 0.1786                 0.2560
 IR Inten    --      6.5159                 1.5021                 2.2269

                     10                     11                     12
                      A                      A                      A
 Frequencies --    433.9480               451.6854               495.3772
 Red. masses --      3.2317                 2.6632                 3.2594
 Frc consts  --      0.3586                 0.3201                 0.4713
 IR Inten    --      2.8198                11.4578                 0.4799

                     13                     14                     15
                      A                      A                      A
 Frequencies --    559.4496               575.3479               618.8820
 Red. masses --      4.4929                 3.3614                 3.4921
 Frc consts  --      0.8285                 0.6556                 0.7881
 IR Inten    --      1.8188                 3.0760                 3.2222

                     16                     17                     18
                      A                      A                      A
 Frequencies --    703.0461               718.0507               754.3396
 Red. masses --      3.9766                 2.5398                 3.0907
 Frc consts  --      1.1581                 0.7715                 1.0362
 IR Inten    --     18.3146                61.9815                 4.8511

                     19                     20                     21
                      A                      A                      A
 Frequencies --    775.1393               797.6680               812.2892
 Red. masses --      1.1348                 1.5497                 1.5454
 Frc consts  --      0.4017                 0.5809                 0.6008
 IR Inten    --     30.1513                16.2916                 2.1404

                     22                     23                     24
                      A                      A                      A
 Frequencies --    816.6329               844.4034               871.8962
 Red. masses --      1.5548                 3.9180                 1.7865
 Frc consts  --      0.6109                 1.6460                 0.8002
 IR Inten    --     34.2778                 0.7696                12.6522

                     25                     26                     27
                      A                      A                      A
 Frequencies --    894.0401               924.8084               955.2774
 Red. masses --      3.8738                 2.1189                 1.4202
 Frc consts  --      1.8243                 1.0677                 0.7636
 IR Inten    --      0.9124                 5.0558                 2.5786

                     28                     29                     30
                      A                      A                      A
 Frequencies --    966.3876               974.4163               984.7426
 Red. masses --      2.4955                 2.4714                 1.4103
 Frc consts  --      1.3731                 1.3826                 0.8057
 IR Inten    --     19.4717                 6.8644                 3.5538

                     31                     32                     33
                      A                      A                      A
 Frequencies --   1011.9221              1059.2520              1065.7963
 Red. masses --      1.9571                 1.4048                 1.9745
 Frc consts  --      1.1808                 0.9287                 1.3215
 IR Inten    --      1.8624                 4.3755                 6.3815

                     34                     35                     36
                      A                      A                      A
 Frequencies --   1077.5327              1081.7359              1109.7691
 Red. masses --      2.4026                 1.4084                 2.0382
 Frc consts  --      1.6436                 0.9710                 1.4789
 IR Inten    --      0.7063                 4.1491                 8.3646

                     37                     38                     39
                      A                      A                      A
 Frequencies --   1120.2061              1142.0779              1177.0702
 Red. masses --      2.3799                 1.1373                 1.2568
 Frc consts  --      1.7596                 0.8740                 1.0259
 IR Inten    --      6.2782                 9.4862                 1.2690

                     40                     41                     42
                      A                      A                      A
 Frequencies --   1184.1554              1207.4866              1217.8411
 Red. masses --      1.6406                 1.3758                 1.7342
 Frc consts  --      1.3554                 1.1818                 1.5154
 IR Inten    --      6.3642                 1.0333                11.5203

                     43                     44                     45
                      A                      A                      A
 Frequencies --   1232.6953              1256.9861              1268.2262
 Red. masses --      1.7436                 2.0269                 1.7031
 Frc consts  --      1.5610                 1.8868                 1.6140
 IR Inten    --      7.5236                16.3206                 1.7240

                     46                     47                     48
                      A                      A                      A
 Frequencies --   1282.9842              1294.8350              1330.3850
 Red. masses --      1.5712                 3.3384                 1.5106
 Frc consts  --      1.5238                 3.2977                 1.5753
 IR Inten    --      5.7349                 1.0333                 2.7070

                     49                     50                     51
                      A                      A                      A
 Frequencies --   1353.6434              1354.7892              1385.7246
 Red. masses --      2.6200                 1.4527                 1.4216
 Frc consts  --      2.8285                 1.5709                 1.6083
 IR Inten    --      2.7996                 2.9416                 5.0526

                     52                     53                     54
                      A                      A                      A
 Frequencies --   1403.2099              1469.5426              1489.5290
 Red. masses --      1.3017                 2.7518                 1.0971
 Frc consts  --      1.5100                 3.5013                 1.4342
 IR Inten    --     10.2795                42.7628                 0.7327

                     55                     56                     57
                      A                      A                      A
 Frequencies --   1508.4834              1511.3192              1517.2857
 Red. masses --      1.2113                 1.6131                 1.3193
 Frc consts  --      1.6239                 2.1709                 1.7895
 IR Inten    --      3.8646                 2.4867                 8.4900

                     58                     59                     60
                      A                      A                      A
 Frequencies --   1527.5845              1537.0658              1636.3015
 Red. masses --      1.1169                 1.4660                 6.2801
 Frc consts  --      1.5355                 2.0407                 9.9070
 IR Inten    --      9.2703                14.7069                19.7572

                     61                     62                     63
                      A                      A                      A
 Frequencies --   1648.4418              3046.6838              3069.8181
 Red. masses --      6.4020                 1.0637                 1.0771
 Frc consts  --     10.2497                 5.8175                 5.9802
 IR Inten    --      9.3046                26.1281                 4.7392

                     64                     65                     66
                      A                      A                      A
 Frequencies --   3081.1204              3091.0720              3130.8699
 Red. masses --      1.0877                 1.0855                 1.1018
 Frc consts  --      6.0839                 6.1109                 6.3636
 IR Inten    --     28.9232                53.7443                24.3320

                     67                     68                     69
                      A                      A                      A
 Frequencies --   3140.0038              3147.6558              3153.4693
 Red. masses --      1.0539                 1.0623                 1.0845
 Frc consts  --      6.1224                 6.2011                 6.3540
 IR Inten    --     19.7815                13.2108                15.3363

                     70                     71                     72
                      A                      A                      A
 Frequencies --   3172.0938              3183.6418              3210.7683
 Red. masses --      1.0885                 1.0901                 1.0958
 Frc consts  --      6.4533                 6.5100                 6.6555
 IR Inten    --     20.1133                18.5553                26.5883

                     73                     74                     75
                      A                      A                      A
 Frequencies --   3217.2461              3238.9977              3493.5970
 Red. masses --      1.1175                 1.1148                 1.0738
 Frc consts  --      6.8150                 6.8907                 7.7216
 IR Inten    --      7.8859                15.0303                 0.0871

 - Thermochemistry -
 -------------------
 Temperature   298.150 Kelvin.  Pressure   1.00000 Atm.
 Atom     1 has atomic number  6 and mass  12.00000

 Molecular mass:   174.11570 amu.
 Principal axes and moments of inertia in atomic units:
                           1         2         3
     Eigenvalues --  1484.285852497.101172943.96918
           X            0.99998  -0.00667   0.00184
           Y            0.00667   0.99997  -0.00470
           Z           -0.00181   0.00471   0.99999
 This molecule is an asymmetric top.
 Rotational symmetry number  1.
 Warning -- assumption of classical behavior for rotation
           may cause significant error
 Rotational temperatures (Kelvin)      0.05835     0.03469     0.02942
 Rotational constants (GHZ):           1.21590     0.72273     0.61303
 Zero-point vibrational energy     613487.2 (Joules/Mol)
                                  146.62697 (Kcal/Mol)
 Warning -- explicit consideration of  15 degrees of freedom as
           vibrations may cause significant error
 Vibrational temperatures:     90.43    97.09   136.25   228.34   259.38
          (Kelvin)            321.46   414.03   473.22   567.15   624.35
                              649.87   712.74   804.92   827.80   890.43
                             1011.53  1033.11  1085.33  1115.25  1147.67
                             1168.70  1174.95  1214.91  1254.46  1286.32
                             1330.59  1374.43  1390.42  1401.97  1416.82
                             1455.93  1524.03  1533.44  1550.33  1556.38
                             1596.71  1611.73  1643.20  1693.54  1703.74
                             1737.30  1752.20  1773.57  1808.52  1824.69
                             1845.93  1862.98  1914.13  1947.59  1949.24
                             1993.75  2018.91  2114.34  2143.10  2170.37
                             2174.45  2183.04  2197.85  2211.49  2354.27
                             2371.74  4383.50  4416.78  4433.05  4447.36
                             4504.62  4517.77  4528.77  4537.14  4563.94
                             4580.55  4619.58  4628.90  4660.20  5026.51

 Zero-point correction=                           0.233665 (Hartree/Particle)
 Thermal correction to Energy=                    0.244455
 Thermal correction to Enthalpy=                  0.245399
 Thermal correction to Gibbs Free Energy=         0.196773
 Sum of electronic and zero-point Energies=           -536.877686
 Sum of electronic and thermal Energies=              -536.866896
 Sum of electronic and thermal Enthalpies=            -536.865952
 Sum of electronic and thermal Free Energies=         -536.914578

                     E (Thermal)             CV                S
                      KCal/Mol        Cal/Mol-Kelvin    Cal/Mol-Kelvin
 Total                  153.398             43.338            102.342
 Electronic               0.000              0.000              0.000
 Translational            0.889              2.981             41.371
 Rotational               0.889              2.981             30.768
 Vibrational            151.620             37.377             30.203
 Vibration     1          0.597              1.972              4.366
 Vibration     2          0.598              1.970              4.225
 Vibration     3          0.603              1.953              3.561
 Vibration     4          0.621              1.893              2.565
 Vibration     5          0.629              1.866              2.326
 Vibration     6          0.649              1.805              1.931
 Vibration     7          0.685              1.696              1.487
 Vibration     8          0.712              1.618              1.265
 Vibration     9          0.761              1.483              0.984
 Vibration    10          0.795              1.396              0.846
 Vibration    11          0.810              1.357              0.791
 Vibration    12          0.851              1.260              0.670
 Vibration    13          0.915              1.119              0.525
 Vibration    14          0.932              1.085              0.494
 Vibration    15          0.979              0.992              0.418

 Optimization completed.
    -- Stationary point found.
 Normal termination of Gaussian 16 at Wed Dec  9 22:56:04 2020.

 ----------------------------------------------------------------------
 # B3LYP/6-311++G(d,p) empiricaldispersion=gd3bj scf=xqc pop=npa geom=c
 heck
 ----------------------------------------------------------------------

 --------------------------------------
 CID_83906063_JID_3303_Energie_neutraal
 --------------------------------------
 Structure from the checkpoint file:  "JID_3303.chk"
 Charge =  0 Multiplicity = 1

 SCF Done:  E(RB3LYP) =  -537.253964789     A.U. after   15 cycles
 Normal termination of Gaussian 16 at Wed Dec  9 22:58:54 2020.

 ----------------------------------------------------------------------
 # B3LYP/6-311++G(d,p) empiricaldispersion=gd3bj scf=xqc pop=npa geom=c
 heck
 ----------------------------------------------------------------------

 ------------------------------------
 CID_83906063_JID_3303_Energie_kation
 ------------------------------------
 Structure from the checkpoint file:  "JID_3303.chk"
 Charge =  1 Multiplicity = 2

 SCF Done:  E(UB3LYP) =  -536.964187802     A.U. after   25 cycles
 Normal termination of Gaussian 16 at Wed Dec  9 23:04:56 2020.
 Gaussian 16:  ES64L-G16RevA.03 25-Dec-2016

 ----------------------------------------------------------------------
 # B3LYP/6-311++G(d,p) empiricaldispersion=gd3bj scf=xqc pop=npa geom=c
 heck
 ----------------------------------------------------------------------

 -----------------------------------
 CID_83906063_JID_3303_Energie_anion
 -----------------------------------
 Structure from the checkpoint file:  "JID_3303.chk"
 Charge = -1 Multiplicity = 2

                         Standard orientation:
 ---------------------------------------------------------------------
 Center     Atomic      Atomic             Coordinates (Angstroms)
 Number     Number       Type             X           Y           Z
 ---------------------------------------------------------------------
      1          6           0        2.863364   -1.566720   -0.512399
      2          6           0        1.451721   -1.400914   -1.033391
      3          6           0        2.156489   -0.257620   -0.323215
      4          7           0        1.833299    0.188703    1.010913
      5          6           0        0.593157    0.973217    1.150856
      6          6           0        0.572265    2.241096    0.258390
      7          6           0       -0.298148    1.900573   -0.983238
      8          6           0       -1.143929    0.742977   -0.510908
      9          6           0       -0.657859    0.237144    0.700089
     10          7           0       -1.160861   -0.816456    1.346473
     11          6           0       -2.223252   -1.405066    0.774812
     12          6           0       -2.791469   -0.981099   -0.429595
     13          6           0       -2.239557    0.117003   -1.095148
     14          1           0        3.686880   -1.615228   -1.219114
     15          1           0        3.003196   -2.192484    0.366530
     16          1           0        1.297818   -1.331824   -2.107351
     17          1           0        0.658168   -1.912483   -0.498565
     18          1           0        2.495330    0.557941   -0.958834
     19          1           0        1.767121   -0.615733    1.632415
     20          1           0        0.526428    1.233957    2.212141
     21          1           0        1.582560    2.568842    0.001256
     22          1           0        0.097389    3.054328    0.816853
     23          1           0        0.321735    1.590361   -1.834489
     24          1           0       -0.894818    2.756005   -1.319339
     25          1           0       -2.640116   -2.259447    1.304973
     26          1           0       -3.650455   -1.505802   -0.836695
     27          1           0       -2.654987    0.462299   -2.039001
 ---------------------------------------------------------------------

 SCF Done:  E(UB3LYP) =  -537.240472252     A.U. after   33 cycles
 SCF Done:  E(UB3LYP) =  -537.240472252     a.u. after    1 cycles

 The electronic state is 2-A.
 Alpha  occ. eigenvalues --  -14.18807 -14.16715 -10.08593 -10.08340 -10.07041
 Alpha  occ. eigenvalues --  -10.06603 -10.06046 -10.05664 -10.05484 -10.04905
 Alpha  occ. eigenvalues --  -10.04818 -10.04774 -10.04402  -0.81984  -0.79730
 Alpha  occ. eigenvalues --   -0.72549  -0.69709  -0.66076  -0.60162  -0.57253
 Alpha  occ. eigenvalues --   -0.50483  -0.49091  -0.48723  -0.47056  -0.44728
 Alpha  occ. eigenvalues --   -0.39608  -0.38782  -0.36229  -0.35949  -0.34603
 Alpha  occ. eigenvalues --   -0.32541  -0.31281  -0.29661  -0.27911  -0.27147
 Alpha  occ. eigenvalues --   -0.26388  -0.25071  -0.24874  -0.23831  -0.23164
 Alpha  occ. eigenvalues --   -0.22210  -0.20135  -0.18376  -0.15761  -0.13285
 Alpha  occ. eigenvalues --   -0.12228  -0.10283   0.05378
 Alpha virt. eigenvalues --    0.07735   0.07855   0.08641   0.09078   0.09921
 Alpha virt. eigenvalues --    0.10497   0.10675   0.11097   0.11604   0.11768
 Alpha virt. eigenvalues --    0.12710   0.13874   0.14098   0.14639   0.15575

  Beta  occ. eigenvalues --  -14.18797 -14.16437 -10.08580 -10.08345 -10.06982
  Beta  occ. eigenvalues --  -10.06579 -10.06037 -10.05660 -10.05473 -10.04889
  Beta  occ. eigenvalues --  -10.04815 -10.04760 -10.04155  -0.81778  -0.79541
  Beta  occ. eigenvalues --   -0.72479  -0.69556  -0.65790  -0.60015  -0.57193
  Beta  occ. eigenvalues --   -0.50175  -0.49047  -0.48619  -0.46972  -0.44640
  Beta  occ. eigenvalues --   -0.39506  -0.38697  -0.36158  -0.35835  -0.34519
  Beta  occ. eigenvalues --   -0.32429  -0.31220  -0.29579  -0.27558  -0.27020
  Beta  occ. eigenvalues --   -0.26188  -0.25026  -0.24729  -0.23574  -0.23092
  Beta  occ. eigenvalues --   -0.22136  -0.20095  -0.18325  -0.14542  -0.12987
  Beta  occ. eigenvalues --   -0.11757  -0.10210
  Beta virt. eigenvalues --    0.07885   0.08469   0.08641   0.09125   0.09839
  Beta virt. eigenvalues --    0.10465   0.10710   0.11157   0.11323   0.11857
  Beta virt. eigenvalues --    0.11875   0.13133   0.14058   0.14296   0.14869

 Mulliken charges and spin densities:
               1          2
     1  C    0.725614  -1.188990
     2  C    0.170348  -0.533801
     3  C   -0.980396   0.743506
     4  N    0.051115   0.001659
     5  C    0.319672  -0.216779
     6  C   -0.719943   0.086044
     7  C    1.340300  -1.767522
     8  C    0.509522   0.175501
     9  C   -1.378281   0.553886
    10  N   -0.058653   0.120712
    11  C   -0.217055   0.160664
    12  C    0.971734  -1.158913
    13  C   -0.869169   0.891511
    14  H   -0.134764   0.272765
    15  H    0.079524   0.017157
    16  H   -0.305856   0.466960
    17  H    0.247590  -0.081280
    18  H   -0.148674   0.353006
    19  H    0.208899  -0.008887
    20  H    0.204488  -0.000764
    21  H    0.044925   0.114363
    22  H    0.126432   0.019287
    23  H   -0.361390   0.554836
    24  H    0.101465   0.047699
    25  H    0.014116   0.136481
    26  H   -0.342207   0.487724
    27  H   -0.599359   0.753174
 Sum of Mulliken charges =  -1.00000   1.00000

 Dipole moment (field-independent basis, Debye):
    X=              1.0021    Y=              1.0241    Z=              4.7803  Tot=              4.9904
 Quadrupole moment (field-independent basis, Debye-Ang):
   XX=           -126.3717   YY=            -99.4379   ZZ=           -118.3798
   XY=             -5.5564   XZ=              3.0575   YZ=              0.9056

 Summary of Natural Population Analysis:

                                       Natural Population
                Natural  -----------------------------------------------
    Atom  No    Charge         Core      Valence    Rydberg      Total
 -----------------------------------------------------------------------
      C    1   -0.20351      0.99962     2.19608    0.00781     3.20351
      C    2   -0.20966      0.99962     2.19972    0.01033     3.20966
      C    3   -0.02359      0.99958     2.00831    0.01570     3.02359
      N    4   -0.33375      0.99973     2.82232    0.01170     3.83375
      C    5   -0.01965      0.99955     2.00608    0.01403     3.01965
      C    6   -0.18864      0.99964     2.18104    0.00796     3.18864
      C    7   -0.19766      0.99961     2.18953    0.00851     3.19766
      C    8   -0.03149      0.99944     2.02175    0.01031     3.03149
      C    9    0.10132      0.99944     1.88297    0.01626     2.89868
      N   10   -0.21363      0.99967     2.70256    0.01140     3.71363
      C   11    0.02553      0.99959     1.95939    0.01549     2.97447
      C   12   -0.12660      0.99956     2.11738    0.00966     3.12660
      C   13   -0.04082      0.99950     2.03095    0.01037     3.04082
      H   14    0.10132      0.00000     0.39768    0.00100     0.39868
      H   15    0.09559      0.00000     0.40349    0.00092     0.40441
      H   16    0.10500      0.00000     0.39298    0.00202     0.39500
      H   17    0.10862      0.00000     0.39015    0.00122     0.39138
      H   18    0.09908      0.00000     0.39916    0.00176     0.40092
      H   19    0.17579      0.00000     0.32229    0.00192     0.32421
      H   20    0.09568      0.00000     0.40321    0.00112     0.40432
      H   21    0.10204      0.00000     0.39694    0.00101     0.39796
      H   22    0.09598      0.00000     0.40307    0.00095     0.40402
      H   23    0.10808      0.00000     0.38833    0.00359     0.39192
      H   24    0.09729      0.00000     0.40174    0.00098     0.40271
      H   25    0.08242      0.00000     0.41652    0.00106     0.41758
      H   26    0.09828      0.00000     0.40070    0.00101     0.40172
      H   27    0.09699      0.00000     0.40181    0.00120     0.40301
 =======================================================================
   * Total *    0.00000     12.99455    33.83615    0.16930    47.00000

 Normal termination of Gaussian 16 at Wed Dec  9 23:12:45 2020.
