 Gaussian 16, Revision A.03,

 -----------------------------------------------------------
 # opt freq B3LYP/6-31G(d) empiricaldispersion=gd3bj scf=xqc
 -----------------------------------------------------------

 -----------------------------
 CID_83872232_JID_520_neutraal
 -----------------------------
 Symbolic Z-matrix:
 Charge =  0 Multiplicity = 1

 SCF Done:  E(RB3LYP) =  -456.292867408     A.U. after   15 cycles
 SCF Done:  E(RB3LYP) =  -456.295108653     A.U. after   12 cycles
 SCF Done:  E(RB3LYP) =  -456.295778443     A.U. after   12 cycles
 SCF Done:  E(RB3LYP) =  -456.295900629     A.U. after   12 cycles
 SCF Done:  E(RB3LYP) =  -456.295934714     A.U. after   11 cycles
 SCF Done:  E(RB3LYP) =  -456.295969644     A.U. after   10 cycles
 SCF Done:  E(RB3LYP) =  -456.296034972     A.U. after   12 cycles
 SCF Done:  E(RB3LYP) =  -456.296056147     A.U. after   11 cycles
 SCF Done:  E(RB3LYP) =  -456.296065138     A.U. after   11 cycles
 SCF Done:  E(RB3LYP) =  -456.296069026     A.U. after   10 cycles
 SCF Done:  E(RB3LYP) =  -456.296070323     A.U. after    9 cycles
 SCF Done:  E(RB3LYP) =  -456.296073371     A.U. after   10 cycles
 SCF Done:  E(RB3LYP) =  -456.296075321     A.U. after   10 cycles
 SCF Done:  E(RB3LYP) =  -456.296075784     A.U. after    9 cycles
 Optimization completed.
    -- Stationary point found.
 Normal termination of Gaussian 16 at Tue Dec  8 12:17:42 2020.

 --------------------------------------------------------------------
 #N Geom=AllCheck Guess=TCheck SCRF=Check GenChk RB3LYP/6-31G(d) Freq
 --------------------------------------------------------------------

 Structure from the checkpoint file:  "JID_520.chk"
 -----------------------------
 CID_83872232_JID_520_neutraal
 -----------------------------
 Charge =  0 Multiplicity = 1

 SCF Done:  E(RB3LYP) =  -456.296075784     A.U. after    1 cycles

  Exact polarizability:  92.446  -9.183  85.221   7.085   5.061  59.842
 Approx polarizability: 118.462 -14.250 144.461  13.536  14.814  95.244

                      1                      2                      3
                      A                      A                      A
 Frequencies --     21.3529                52.1793               126.9836
 Red. masses --      4.9615                 6.8048                 2.3275
 Frc consts  --      0.0013                 0.0109                 0.0221
 IR Inten    --      3.9123                 4.6625                 5.6060

                      4                      5                      6
                      A                      A                      A
 Frequencies --    146.5394               169.4039               243.8444
 Red. masses --      1.2188                 5.9772                 3.7908
 Frc consts  --      0.0154                 0.1011                 0.1328
 IR Inten    --      0.9501                 1.7839                 3.0327

                      7                      8                      9
                      A                      A                      A
 Frequencies --    267.4391               376.3083               380.3679
 Red. masses --      2.3216                 5.6592                 3.1091
 Frc consts  --      0.0978                 0.4722                 0.2650
 IR Inten    --      1.7435                 6.1410                 0.1937

                     10                     11                     12
                      A                      A                      A
 Frequencies --    411.1212               563.8433               626.2396
 Red. masses --      2.6096                 4.2138                 4.0275
 Frc consts  --      0.2599                 0.7893                 0.9306
 IR Inten    --      1.4682                 2.2344                 1.2455

                     13                     14                     15
                      A                      A                      A
 Frequencies --    644.8554               709.7335               741.4239
 Red. masses --      3.9849                 4.8054                 4.0501
 Frc consts  --      0.9763                 1.4262                 1.3118
 IR Inten    --      2.5840                 4.7908                 2.6610

                     16                     17                     18
                      A                      A                      A
 Frequencies --    831.8524               842.4169               934.2098
 Red. masses --      2.8102                 1.3096                 2.7302
 Frc consts  --      1.1457                 0.5476                 1.4039
 IR Inten    --      1.4678                13.9368                 2.2519

                     19                     20                     21
                      A                      A                      A
 Frequencies --    961.6795              1002.5749              1012.5329
 Red. masses --      2.8545                 4.4726                 2.2751
 Frc consts  --      1.5554                 2.6488                 1.3743
 IR Inten    --      7.1144                20.2787                 0.6710

                     22                     23                     24
                      A                      A                      A
 Frequencies --   1037.0815              1048.6082              1083.7513
 Red. masses --      2.3316                 2.6944                 1.4640
 Frc consts  --      1.4775                 1.7456                 1.0131
 IR Inten    --      2.7563                11.0619                 2.5932

                     25                     26                     27
                      A                      A                      A
 Frequencies --   1151.0806              1208.2307              1245.0294
 Red. masses --      2.0785                 1.8414                 2.5268
 Frc consts  --      1.6226                 1.5838                 2.3077
 IR Inten    --     28.4824                 2.1858                17.0242

                     28                     29                     30
                      A                      A                      A
 Frequencies --   1253.0053              1279.9123              1348.6406
 Red. masses --      1.4621                 1.6473                 1.7445
 Frc consts  --      1.3525                 1.5899                 1.8694
 IR Inten    --      1.5347                 2.5440                 8.9397

                     31                     32                     33
                      A                      A                      A
 Frequencies --   1375.7817              1415.2532              1447.6777
 Red. masses --      1.3905                 2.0097                 1.2937
 Frc consts  --      1.5506                 2.3716                 1.5974
 IR Inten    --      3.1562                11.5513                 1.6310

                     34                     35                     36
                      A                      A                      A
 Frequencies --   1497.0690              1500.7716              1502.1812
 Red. masses --      1.0893                 1.1148                 1.0421
 Frc consts  --      1.4384                 1.4794                 1.3855
 IR Inten    --     10.1647                 4.2636                 7.1281

                     37                     38                     39
                      A                      A                      A
 Frequencies --   1520.1517              1618.4620              1661.6210
 Red. masses --      1.0995                 8.6702                 6.5578
 Frc consts  --      1.4970                13.3809                10.6678
 IR Inten    --      6.6445                28.3212                18.9438

                     40                     41                     42
                      A                      A                      A
 Frequencies --   2374.8070              3051.4462              3068.3369
 Red. masses --     12.5988                 1.0374                 1.0594
 Frc consts  --     41.8637                 5.6913                 5.8763
 IR Inten    --      5.0006                22.4676                 8.0649

                     43                     44                     45
                      A                      A                      A
 Frequencies --   3090.2854              3105.2976              3112.6408
 Red. masses --      1.0617                 1.1018                 1.1016
 Frc consts  --      5.9737                 6.2596                 6.2884
 IR Inten    --      9.1915                11.7350                 6.7297

                     46                     47                     48
                      A                      A                      A
 Frequencies --   3143.9497              3144.4933              3277.8894
 Red. masses --      1.1062                 1.1004                 1.0981
 Frc consts  --      6.4422                 6.4104                 6.9518
 IR Inten    --      4.3931                10.1919                 6.9172

 - Thermochemistry -
 -------------------
 Temperature   298.150 Kelvin.  Pressure   1.00000 Atm.
 Atom     1 has atomic number  6 and mass  12.00000

 Molecular mass:   136.06366 amu.
 Principal axes and moments of inertia in atomic units:
                           1         2         3
     Eigenvalues --   796.626731884.327042371.64916
           X            0.99780  -0.06581   0.00770
           Y            0.06577   0.99782   0.00562
           Z           -0.00806  -0.00511   0.99995
 This molecule is an asymmetric top.
 Rotational symmetry number  1.
 Warning -- assumption of classical behavior for rotation
           may cause significant error
 Rotational temperatures (Kelvin)      0.10873     0.04597     0.03652
 Rotational constants (GHZ):           2.26548     0.95776     0.76096
 Zero-point vibrational energy     374612.7 (Joules/Mol)
                                   89.53459 (Kcal/Mol)
 Warning -- explicit consideration of  11 degrees of freedom as
           vibrations may cause significant error
 Vibrational temperatures:     30.72    75.07   182.70   210.84   243.73
          (Kelvin)            350.84   384.79   541.42   547.26   591.51
                              811.24   901.02   927.80  1021.15  1066.74
                             1196.85  1212.05  1344.12  1383.64  1442.48
                             1456.81  1492.13  1508.71  1559.28  1656.15
                             1738.37  1791.32  1802.80  1841.51  1940.39
                             1979.44  2036.23  2082.89  2153.95  2159.28
                             2161.30  2187.16  2328.61  2390.70  3416.82
                             4390.35  4414.65  4446.23  4467.83  4478.40
                             4523.44  4524.22  4716.15

 Zero-point correction=                           0.142682 (Hartree/Particle)
 Thermal correction to Energy=                    0.152293
 Thermal correction to Enthalpy=                  0.153237
 Thermal correction to Gibbs Free Energy=         0.106079
 Sum of electronic and zero-point Energies=           -456.153393
 Sum of electronic and thermal Energies=              -456.143783
 Sum of electronic and thermal Enthalpies=            -456.142839
 Sum of electronic and thermal Free Energies=         -456.189997

                     E (Thermal)             CV                S
                      KCal/Mol        Cal/Mol-Kelvin    Cal/Mol-Kelvin
 Total                   95.565             33.733             99.253
 Electronic               0.000              0.000              0.000
 Translational            0.889              2.981             40.636
 Rotational               0.889              2.981             29.655
 Vibrational             93.788             27.771             28.962
 Vibration     1          0.593              1.985              6.504
 Vibration     2          0.596              1.977              4.733
 Vibration     3          0.611              1.926              2.991
 Vibration     4          0.617              1.906              2.717
 Vibration     5          0.625              1.880              2.442
 Vibration     6          0.659              1.773              1.775
 Vibration     7          0.673              1.733              1.613
 Vibration     8          0.747              1.521              1.054
 Vibration     9          0.750              1.512              1.038
 Vibration    10          0.775              1.446              0.923
 Vibration    11          0.920              1.109              0.516

 Optimization completed.
    -- Stationary point found.
 Normal termination of Gaussian 16 at Tue Dec  8 12:22:13 2020.

 ----------------------------------------------------------------------
 # B3LYP/6-311++G(d,p) empiricaldispersion=gd3bj scf=xqc pop=npa geom=c
 heck
 ----------------------------------------------------------------------

 -------------------------------------
 CID_83872232_JID_520_Energie_neutraal
 -------------------------------------
 Structure from the checkpoint file:  "JID_520.chk"
 Charge =  0 Multiplicity = 1

 SCF Done:  E(RB3LYP) =  -456.422219152     A.U. after   14 cycles
 Normal termination of Gaussian 16 at Tue Dec  8 12:25:08 2020.

 ----------------------------------------------------------------------
 # B3LYP/6-311++G(d,p) empiricaldispersion=gd3bj scf=xqc pop=npa geom=c
 heck
 ----------------------------------------------------------------------

 -----------------------------------
 CID_83872232_JID_520_Energie_kation
 -----------------------------------
 Structure from the checkpoint file:  "JID_520.chk"
 Charge =  1 Multiplicity = 2

 SCF Done:  E(UB3LYP) =  -456.095701220     A.U. after   21 cycles
 Normal termination of Gaussian 16 at Tue Dec  8 12:40:39 2020.
 Gaussian 16:  ES64L-G16RevA.03 25-Dec-2016

 ----------------------------------------------------------------------
 # B3LYP/6-311++G(d,p) empiricaldispersion=gd3bj scf=xqc pop=npa geom=c
 heck
 ----------------------------------------------------------------------

 ----------------------------------
 CID_83872232_JID_520_Energie_anion
 ----------------------------------
 Structure from the checkpoint file:  "JID_520.chk"
 Charge = -1 Multiplicity = 2

                         Standard orientation:
 ---------------------------------------------------------------------
 Center     Atomic      Atomic             Coordinates (Angstroms)
 Number     Number       Type             X           Y           Z
 ---------------------------------------------------------------------
      1          6           0       -2.837213    1.337429    0.231077
      2          6           0       -1.876219    0.231189   -0.003234
      3          6           0       -1.851803   -0.883058   -0.781312
      4          7           0       -0.655537   -1.568423   -0.587145
      5          6           0       -0.013429   -0.857635    0.288440
      6          8           0       -0.688596    0.255872    0.695123
      7          6           0        1.364353   -1.067469    0.814930
      8          6           0        2.448571   -0.508811   -0.141929
      9          6           0        2.343747    0.940486   -0.324938
     10          7           0        2.245171    2.088872   -0.458042
     11          1           0       -3.154463    1.378335    1.279897
     12          1           0       -2.393728    2.307967   -0.020248
     13          1           0       -3.724490    1.192025   -0.390917
     14          1           0       -2.607295   -1.242575   -1.465139
     15          1           0        1.459220   -0.597649    1.797754
     16          1           0        1.535943   -2.141523    0.926202
     17          1           0        3.445485   -0.744022    0.248335
     18          1           0        2.352613   -0.995465   -1.118753
 ---------------------------------------------------------------------

 SCF Done:  E(UB3LYP) =  -456.410813289     A.U. after   30 cycles

 The electronic state is 2-A.
 Alpha  occ. eigenvalues --  -19.09208 -14.20911 -14.20561 -10.15559 -10.13110
 Alpha  occ. eigenvalues --  -10.11554 -10.10935 -10.09756 -10.09188 -10.08199
 Alpha  occ. eigenvalues --   -1.02821  -0.81826  -0.80662  -0.72594  -0.68449
 Alpha  occ. eigenvalues --   -0.61822  -0.56820  -0.51612  -0.47141  -0.42137
 Alpha  occ. eigenvalues --   -0.40881  -0.38710  -0.36224  -0.33925  -0.33077
 Alpha  occ. eigenvalues --   -0.32083  -0.30746  -0.29742  -0.28915  -0.28640
 Alpha  occ. eigenvalues --   -0.26364  -0.23221  -0.22705  -0.21686  -0.19087
 Alpha  occ. eigenvalues --   -0.13657   0.04445
 Alpha virt. eigenvalues --    0.06069   0.08319   0.09071   0.09157   0.09948
 Alpha virt. eigenvalues --    0.10160   0.11075   0.11686   0.12839   0.13223
 Alpha virt. eigenvalues --    0.13666   0.14239   0.14627   0.15622   0.16166

  Beta  occ. eigenvalues --  -19.09170 -14.20893 -14.20534 -10.15530 -10.13086
  Beta  occ. eigenvalues --  -10.11490 -10.10933 -10.09723 -10.09185 -10.08160
  Beta  occ. eigenvalues --   -1.02759  -0.81772  -0.80624  -0.72515  -0.68375
  Beta  occ. eigenvalues --   -0.61732  -0.56746  -0.51561  -0.47076  -0.42046
  Beta  occ. eigenvalues --   -0.40819  -0.38586  -0.36134  -0.33854  -0.33003
  Beta  occ. eigenvalues --   -0.32017  -0.30665  -0.29680  -0.28869  -0.28589
  Beta  occ. eigenvalues --   -0.26333  -0.23141  -0.22670  -0.21564  -0.19037
  Beta  occ. eigenvalues --   -0.13522
  Beta virt. eigenvalues --    0.06947   0.07785   0.08871   0.09429   0.09605
  Beta virt. eigenvalues --    0.10672   0.10859   0.11623   0.12214   0.13160
  Beta virt. eigenvalues --    0.13395   0.13683   0.14390   0.14769   0.15715

 Mulliken charges and spin densities:
               1          2
     1  C    1.454481  -2.067665
     2  C   -0.714073   1.029029
     3  C   -0.041494  -0.104522
     4  N   -0.162045   0.160496
     5  C   -0.164316  -0.262209
     6  O   -0.011377   0.045441
     7  C    1.086092  -1.370257
     8  C   -0.407053   0.590735
     9  C    1.277054  -1.464001
    10  N   -0.389417   0.075320
    11  H   -0.257311   0.418463
    12  H    0.018513   0.141239
    13  H   -0.579117   0.747896
    14  H   -0.441540   0.601846
    15  H   -0.138819   0.313802
    16  H   -0.559729   0.774537
    17  H   -1.061422   1.295357
    18  H    0.091573   0.074493
 Sum of Mulliken charges =  -1.00000   1.00000

 Dipole moment (field-independent basis, Debye):
    X=             -2.3205    Y=              0.4489    Z=             -0.9789  Tot=              2.5582
 Quadrupole moment (field-independent basis, Debye-Ang):
   XX=           -130.3528   YY=            -99.3302   ZZ=            -83.5511
   XY=              6.5625   XZ=             -6.9540   YZ=              2.6030

 Summary of Natural Population Analysis:

                                       Natural Population
                Natural  -----------------------------------------------
    Atom  No    Charge         Core      Valence    Rydberg      Total
 -----------------------------------------------------------------------
      C    1   -0.30714      0.99963     2.30192    0.00560     3.30714
      C    2    0.13857      0.99948     1.84736    0.01459     2.86143
      C    3   -0.04933      0.99948     2.03768    0.01217     3.04933
      N    4   -0.25219      0.99968     2.74271    0.00981     3.75219
      C    5    0.26603      0.99959     1.71327    0.02111     2.73397
      O    6   -0.23648      0.99985     3.22886    0.00777     4.23648
      C    7   -0.21015      0.99958     2.19988    0.01070     3.21015
      C    8   -0.24100      0.99954     2.23205    0.00941     3.24100
      C    9    0.16336      0.99966     1.82089    0.01610     2.83664
      N   10   -0.18622      0.99979     2.67493    0.01150     3.68622
      H   11    0.10936      0.00000     0.38880    0.00183     0.39064
      H   12    0.10841      0.00000     0.39030    0.00129     0.39159
      H   13    0.11141      0.00000     0.38664    0.00196     0.38859
      H   14    0.10082      0.00000     0.39799    0.00120     0.39918
      H   15    0.11287      0.00000     0.38502    0.00211     0.38713
      H   16    0.12074      0.00000     0.37563    0.00363     0.37926
      H   17    0.12950      0.00000     0.35997    0.01054     0.37050
      H   18    0.12146      0.00000     0.37693    0.00161     0.37854
 =======================================================================
   * Total *    0.00000      9.99627    25.86082    0.14291    36.00000

 Normal termination of Gaussian 16 at Tue Dec  8 12:50:20 2020.
