 Gaussian 16, Revision A.03,

 -----------------------------------------------------------
 # opt freq B3LYP/6-31G(d) empiricaldispersion=gd3bj scf=xqc
 -----------------------------------------------------------

 ------------------------------
 CID_82603981_JID_4699_neutraal
 ------------------------------
 Symbolic Z-matrix:
 Charge =  0 Multiplicity = 1

 SCF Done:  E(RB3LYP) =  -628.368135581     A.U. after   15 cycles
 SCF Done:  E(RB3LYP) =  -628.381530075     A.U. after   13 cycles
 SCF Done:  E(RB3LYP) =  -628.383175454     A.U. after   12 cycles
 SCF Done:  E(RB3LYP) =  -628.383489772     A.U. after   12 cycles
 SCF Done:  E(RB3LYP) =  -628.383543585     A.U. after   12 cycles
 SCF Done:  E(RB3LYP) =  -628.383572745     A.U. after   10 cycles
 SCF Done:  E(RB3LYP) =  -628.383581872     A.U. after   10 cycles
 SCF Done:  E(RB3LYP) =  -628.383583706     A.U. after    8 cycles
 SCF Done:  E(RB3LYP) =  -628.383584073     A.U. after    8 cycles
 SCF Done:  E(RB3LYP) =  -628.383584305     A.U. after    8 cycles
 SCF Done:  E(RB3LYP) =  -628.383584372     A.U. after    7 cycles
 SCF Done:  E(RB3LYP) =  -628.383584409     A.U. after    7 cycles
 Optimization completed.
    -- Stationary point found.
 Normal termination of Gaussian 16 at Thu Dec 10 10:23:58 2020.

 --------------------------------------------------------------------
 #N Geom=AllCheck Guess=TCheck SCRF=Check GenChk RB3LYP/6-31G(d) Freq
 --------------------------------------------------------------------

 Structure from the checkpoint file:  "JID_4699.chk"
 ------------------------------
 CID_82603981_JID_4699_neutraal
 ------------------------------
 Charge =  0 Multiplicity = 1

 SCF Done:  E(RB3LYP) =  -628.383584409     A.U. after    1 cycles

  Exact polarizability: 168.957   8.638 125.822  15.010  -6.026  76.914
 Approx polarizability: 249.971  17.617 231.915  34.013 -15.575 116.251

                      1                      2                      3
                      A                      A                      A
 Frequencies --     27.6646                37.5025                90.3907
 Red. masses --      4.3020                 4.4121                 3.2656
 Frc consts  --      0.0019                 0.0037                 0.0157
 IR Inten    --      0.4121                 2.4168                 1.2298

                      4                      5                      6
                      A                      A                      A
 Frequencies --    139.1048               184.8438               203.7035
 Red. masses --      4.9111                 3.5536                 4.0218
 Frc consts  --      0.0560                 0.0715                 0.0983
 IR Inten    --      1.3041                 1.5053                 7.3826

                      7                      8                      9
                      A                      A                      A
 Frequencies --    228.9739               287.4109               300.8962
 Red. masses --      4.2982                 1.8731                 2.5785
 Frc consts  --      0.1328                 0.0912                 0.1375
 IR Inten    --      3.3670                14.2831                26.8251

                     10                     11                     12
                      A                      A                      A
 Frequencies --    322.2042               374.8988               377.3295
 Red. masses --      1.7710                 1.1984                 5.3608
 Frc consts  --      0.1083                 0.0992                 0.4497
 IR Inten    --     33.9744               145.4076                10.1526

                     13                     14                     15
                      A                      A                      A
 Frequencies --    429.3761               442.4647               498.6901
 Red. masses --      2.1572                 2.9158                 5.2333
 Frc consts  --      0.2343                 0.3363                 0.7668
 IR Inten    --     10.4649                 5.0868                 3.8801

                     16                     17                     18
                      A                      A                      A
 Frequencies --    540.1853               576.3938               589.1221
 Red. masses --      2.9209                 5.7365                 4.3654
 Frc consts  --      0.5022                 1.1229                 0.8927
 IR Inten    --      6.0433                 0.1914                 1.9614

                     19                     20                     21
                      A                      A                      A
 Frequencies --    635.4768               665.0167               720.3942
 Red. masses --      5.3204                 3.7955                 1.2767
 Frc consts  --      1.2659                 0.9890                 0.3904
 IR Inten    --     10.2647                18.2695                50.0519

                     22                     23                     24
                      A                      A                      A
 Frequencies --    759.6514               773.6537               790.7931
 Red. masses --      1.6534                 2.7577                 3.7449
 Frc consts  --      0.5622                 0.9725                 1.3798
 IR Inten    --     31.2313                49.5534                14.4511

                     25                     26                     27
                      A                      A                      A
 Frequencies --    802.0479               827.7044               865.0051
 Red. masses --      4.3088                 2.4887                 1.6666
 Frc consts  --      1.6331                 1.0046                 0.7347
 IR Inten    --      3.1896                20.8565                 2.1946

                     28                     29                     30
                      A                      A                      A
 Frequencies --    884.7170               906.9058               919.4113
 Red. masses --      1.4932                 1.5987                 5.9655
 Frc consts  --      0.6886                 0.7747                 2.9711
 IR Inten    --    113.0096                18.8587                 9.9013

                     31                     32                     33
                      A                      A                      A
 Frequencies --    945.8651               975.0891               984.9991
 Red. masses --      1.3147                 2.4904                 1.2538
 Frc consts  --      0.6930                 1.3951                 0.7167
 IR Inten    --      0.4222                14.2013                 0.0747

                     34                     35                     36
                      A                      A                      A
 Frequencies --   1023.2607              1059.0081              1072.2845
 Red. masses --      2.1404                 2.4112                 3.4114
 Frc consts  --      1.3204                 1.5933                 2.3110
 IR Inten    --      2.1610                14.4243                95.4237

                     37                     38                     39
                      A                      A                      A
 Frequencies --   1106.5482              1127.5465              1161.2785
 Red. masses --      2.7498                 2.2152                 1.6247
 Frc consts  --      1.9838                 1.6593                 1.2909
 IR Inten    --     18.0810                 8.1862                23.4744

                     40                     41                     42
                      A                      A                      A
 Frequencies --   1177.4101              1188.0466              1195.1907
 Red. masses --      2.1384                 1.1894                 1.2127
 Frc consts  --      1.7466                 0.9891                 1.0207
 IR Inten    --     27.0027                 2.4754                 9.3124

                     43                     44                     45
                      A                      A                      A
 Frequencies --   1239.4407              1265.8002              1277.0542
 Red. masses --      1.1331                 1.4310                 1.9411
 Frc consts  --      1.0255                 1.3509                 1.8652
 IR Inten    --     12.0841                38.3472                14.8830

                     46                     47                     48
                      A                      A                      A
 Frequencies --   1312.3482              1353.1688              1366.7727
 Red. masses --      2.2627                 1.3934                 1.3060
 Frc consts  --      2.2960                 1.5032                 1.4374
 IR Inten    --     40.5997                24.2330                14.3889

                     49                     50                     51
                      A                      A                      A
 Frequencies --   1385.6046              1399.7489              1409.2856
 Red. masses --      2.2772                 1.5356                 1.3888
 Frc consts  --      2.5759                 1.7727                 1.6251
 IR Inten    --     18.8725                 2.5495                20.5637

                     52                     53                     54
                      A                      A                      A
 Frequencies --   1426.3511              1439.7525              1460.3727
 Red. masses --      4.7052                 2.1235                 1.4615
 Frc consts  --      5.6400                 2.5935                 1.8364
 IR Inten    --     25.0336                 6.7620                 4.5431

                     55                     56                     57
                      A                      A                      A
 Frequencies --   1492.5037              1497.2395              1542.9603
 Red. masses --      1.1131                 2.6963                 3.3008
 Frc consts  --      1.4609                 3.5613                 4.6300
 IR Inten    --      7.5073                 0.0276                15.2806

                     58                     59                     60
                      A                      A                      A
 Frequencies --   1550.7464              1575.4678              1602.6527
 Red. masses --      1.1078                 4.2609                 5.6239
 Frc consts  --      1.5696                 6.2312                 8.5107
 IR Inten    --      4.9226                 1.0656                 1.1703

                     61                     62                     63
                      A                      A                      A
 Frequencies --   1689.1089              1695.1775              2964.1635
 Red. masses --      6.4846                 1.0912                 1.0738
 Frc consts  --     10.9005                 1.8474                 5.5586
 IR Inten    --      7.2552                34.0771                73.9334

                     64                     65                     66
                      A                      A                      A
 Frequencies --   3009.0758              3056.7817              3069.9795
 Red. masses --      1.0841                 1.0708                 1.0779
 Frc consts  --      5.7836                 5.8951                 5.9853
 IR Inten    --     31.8867                18.7684                47.7008

                     67                     68                     69
                      A                      A                      A
 Frequencies --   3108.2991              3182.1532              3191.5207
 Red. masses --      1.1038                 1.0857                 1.0893
 Frc consts  --      6.2833                 6.4772                 6.5371
 IR Inten    --     27.0762                 0.3960                15.0442

                     70                     71                     72
                      A                      A                      A
 Frequencies --   3206.1668              3217.7837              3479.1439
 Red. masses --      1.0941                 1.0956                 1.0499
 Frc consts  --      6.6267                 6.6839                 7.4877
 IR Inten    --     27.5264                18.3501                 8.3640

                     73                     74                     75
                      A                      A                      A
 Frequencies --   3573.1697              3645.1280              3735.2910
 Red. masses --      1.0925                 1.0803                 1.0663
 Frc consts  --      8.2179                 8.4571                 8.7659
 IR Inten    --      3.2129                99.9524                19.8833

 - Thermochemistry -
 -------------------
 Temperature   298.150 Kelvin.  Pressure   1.00000 Atm.
 Atom     1 has atomic number  6 and mass  12.00000

 Molecular mass:   191.10586 amu.
 Principal axes and moments of inertia in atomic units:
                           1         2         3
     Eigenvalues --  1225.380644333.894524716.87873
           X            0.99998   0.00445  -0.00475
           Y           -0.00450   0.99993  -0.01054
           Z            0.00471   0.01056   0.99993
 This molecule is an asymmetric top.
 Rotational symmetry number  1.
 Warning -- assumption of classical behavior for rotation
           may cause significant error
 Rotational temperatures (Kelvin)      0.07068     0.01999     0.01836
 Rotational constants (GHZ):           1.47280     0.41642     0.38261
 Zero-point vibrational energy     595971.6 (Joules/Mol)
                                  142.44064 (Kcal/Mol)
 Warning -- explicit consideration of  18 degrees of freedom as
           vibrations may cause significant error
 Vibrational temperatures:     39.80    53.96   130.05   200.14   265.95
          (Kelvin)            293.08   329.44   413.52   432.92   463.58
                              539.40   542.89   617.78   636.61   717.50
                              777.21   829.30   847.62   914.31   956.81
                             1036.49  1092.97  1113.12  1137.77  1153.97
                             1190.88  1244.55  1272.91  1304.84  1322.83
                             1360.89  1402.94  1417.19  1472.24  1523.68
                             1542.78  1592.08  1622.29  1670.82  1694.03
                             1709.33  1719.61  1783.28  1821.20  1837.40
                             1888.18  1946.91  1966.48  1993.58  2013.93
                             2027.65  2052.20  2071.48  2101.15  2147.38
                             2154.19  2219.98  2231.18  2266.75  2305.86
                             2430.25  2438.98  4264.77  4329.39  4398.03
                             4417.02  4472.15  4578.41  4591.89  4612.96
                             4629.67  5005.71  5140.99  5244.53  5374.25

 Zero-point correction=                           0.226994 (Hartree/Particle)
 Thermal correction to Energy=                    0.239345
 Thermal correction to Enthalpy=                  0.240289
 Thermal correction to Gibbs Free Energy=         0.187367
 Sum of electronic and zero-point Energies=           -628.156591
 Sum of electronic and thermal Energies=              -628.144239
 Sum of electronic and thermal Enthalpies=            -628.143295
 Sum of electronic and thermal Free Energies=         -628.196218

                     E (Thermal)             CV                S
                      KCal/Mol        Cal/Mol-Kelvin    Cal/Mol-Kelvin
 Total                  150.191             48.251            111.385
 Electronic               0.000              0.000              0.000
 Translational            0.889              2.981             41.649
 Rotational               0.889              2.981             31.594
 Vibrational            148.414             42.290             38.143
 Vibration     1          0.593              1.984              5.990
 Vibration     2          0.594              1.982              5.387
 Vibration     3          0.602              1.956              3.652
 Vibration     4          0.615              1.914              2.816
 Vibration     5          0.631              1.861              2.279
 Vibration     6          0.639              1.835              2.099
 Vibration     7          0.652              1.797              1.887
 Vibration     8          0.685              1.697              1.489
 Vibration     9          0.693              1.672              1.412
 Vibration    10          0.707              1.631              1.299
 Vibration    11          0.746              1.524              1.060
 Vibration    12          0.748              1.518              1.050
 Vibration    13          0.791              1.406              0.861
 Vibration    14          0.802              1.378              0.819
 Vibration    15          0.854              1.253              0.661
 Vibration    16          0.895              1.161              0.565
 Vibration    17          0.933              1.082              0.492
 Vibration    18          0.946              1.055              0.469

                           ! Non-Optimized Parameters !
 Normal termination of Gaussian 16 at Thu Dec 10 10:32:13 2020.

 ----------------------------------------------------------------------
 # B3LYP/6-311++G(d,p) empiricaldispersion=gd3bj scf=xqc pop=npa geom=c
 heck
 ----------------------------------------------------------------------

 --------------------------------------
 CID_82603981_JID_4699_Energie_neutraal
 --------------------------------------
 Structure from the checkpoint file:  "JID_4699.chk"
 Charge =  0 Multiplicity = 1

 SCF Done:  E(RB3LYP) =  -628.571468720     A.U. after   15 cycles
 Normal termination of Gaussian 16 at Thu Dec 10 10:35:58 2020.

 ----------------------------------------------------------------------
 # B3LYP/6-311++G(d,p) empiricaldispersion=gd3bj scf=xqc pop=npa geom=c
 heck
 ----------------------------------------------------------------------

 ------------------------------------
 CID_82603981_JID_4699_Energie_kation
 ------------------------------------
 Structure from the checkpoint file:  "JID_4699.chk"
 Charge =  1 Multiplicity = 2

 SCF Done:  E(UB3LYP) =  -628.290998391     A.U. after   26 cycles
 Normal termination of Gaussian 16 at Thu Dec 10 10:45:42 2020.
 Gaussian 16:  ES64L-G16RevA.03 25-Dec-2016

 ----------------------------------------------------------------------
 # B3LYP/6-311++G(d,p) empiricaldispersion=gd3bj scf=xqc pop=npa geom=c
 heck
 ----------------------------------------------------------------------

 -----------------------------------
 CID_82603981_JID_4699_Energie_anion
 -----------------------------------
 Structure from the checkpoint file:  "JID_4699.chk"
 Charge = -1 Multiplicity = 2

                         Standard orientation:
 ---------------------------------------------------------------------
 Center     Atomic      Atomic             Coordinates (Angstroms)
 Number     Number       Type             X           Y           Z
 ---------------------------------------------------------------------
      1          6           0       -3.133845   -1.476048   -0.071690
      2          6           0       -1.802882   -1.490924    0.276254
      3          6           0       -1.094699   -0.263840    0.257024
      4          6           0        0.221056    0.128552    0.537665
      5          7           0        0.242400    1.464803    0.315146
      6          7           0       -0.923947    2.016138   -0.074956
      7          6           0       -1.760877    0.956405   -0.118638
      8          6           0       -3.133656    0.941342   -0.471895
      9          6           0       -3.792863   -0.265359   -0.443782
     10          6           0        1.455322   -0.628732    0.933562
     11          6           0        2.136417   -1.331393   -0.252465
     12          6           0        2.640014   -0.406209   -1.363685
     13          7           0        3.906087    0.229405   -0.985006
     14          8           0        2.406210    0.264831    1.535134
     15          1           0       -3.702700   -2.401316   -0.066579
     16          1           0       -1.308912   -2.417499    0.556199
     17          1           0        1.057979    2.051027    0.427655
     18          1           0       -3.633033    1.862376   -0.754857
     19          1           0       -4.845084   -0.307052   -0.711009
     20          1           0        1.167314   -1.406797    1.656105
     21          1           0        2.980328   -1.916390    0.130216
     22          1           0        1.400564   -2.030925   -0.666818
     23          1           0        2.827221   -1.014531   -2.256877
     24          1           0        1.834156    0.299353   -1.634753
     25          1           0        4.185273    0.896431   -1.701930
     26          1           0        3.775950    0.748534   -0.119815
     27          1           0        2.035555    0.562962    2.381004
 ---------------------------------------------------------------------

 SCF Done:  E(UB3LYP) =  -628.567017036     A.U. after   32 cycles

 The electronic state is 2-A.
 Alpha  occ. eigenvalues --  -19.02007 -14.25622 -14.19334 -14.17735 -10.12644
 Alpha  occ. eigenvalues --  -10.08302 -10.07980 -10.06675 -10.06313 -10.04876
 Alpha  occ. eigenvalues --  -10.04805 -10.04708 -10.04615 -10.04152  -0.92863
 Alpha  occ. eigenvalues --   -0.91239  -0.77021  -0.72783  -0.70144  -0.66026
 Alpha  occ. eigenvalues --   -0.63886  -0.61257  -0.56114  -0.52779  -0.48814
 Alpha  occ. eigenvalues --   -0.47378  -0.44601  -0.42896  -0.40039  -0.37689
 Alpha  occ. eigenvalues --   -0.37491  -0.36652  -0.34577  -0.32593  -0.31474
 Alpha  occ. eigenvalues --   -0.31071  -0.30665  -0.30252  -0.28087  -0.26057
 Alpha  occ. eigenvalues --   -0.25346  -0.24597  -0.23381  -0.22973  -0.21950
 Alpha  occ. eigenvalues --   -0.18369  -0.16557  -0.16124  -0.13193  -0.12736
 Alpha  occ. eigenvalues --   -0.08826   0.04703
 Alpha virt. eigenvalues --    0.06829   0.07861   0.08040   0.08797   0.09966
 Alpha virt. eigenvalues --    0.10565   0.11062   0.11428   0.12593   0.12829
 Alpha virt. eigenvalues --    0.13484   0.13898   0.14793   0.14828   0.15507

  Beta  occ. eigenvalues --  -19.01936 -14.25351 -14.19195 -14.17706 -10.12630
  Beta  occ. eigenvalues --  -10.08290 -10.07884 -10.06718 -10.06308 -10.04915
  Beta  occ. eigenvalues --  -10.04778 -10.04609 -10.04515 -10.03979  -0.92632
  Beta  occ. eigenvalues --   -0.90961  -0.76967  -0.72569  -0.69904  -0.65838
  Beta  occ. eigenvalues --   -0.63725  -0.60975  -0.56005  -0.52478  -0.48750
  Beta  occ. eigenvalues --   -0.47293  -0.44440  -0.42726  -0.39919  -0.37574
  Beta  occ. eigenvalues --   -0.37358  -0.36554  -0.34477  -0.32246  -0.31379
  Beta  occ. eigenvalues --   -0.30981  -0.30296  -0.30132  -0.28012  -0.25990
  Beta  occ. eigenvalues --   -0.25287  -0.24507  -0.23295  -0.22261  -0.21860
  Beta  occ. eigenvalues --   -0.18248  -0.16356  -0.15465  -0.13144  -0.12178
  Beta  occ. eigenvalues --   -0.07865
  Beta virt. eigenvalues --    0.07368   0.08074   0.08500   0.08987   0.09036
  Beta virt. eigenvalues --    0.09974   0.10742   0.11090   0.11603   0.12661
  Beta virt. eigenvalues --    0.12836   0.13598   0.14089   0.14965   0.15236

 Mulliken charges and spin densities:
               1          2
     1  C   -0.391393  -0.092412
     2  C   -0.666173   0.212861
     3  C    1.269263  -0.462600
     4  C   -0.020105   0.582651
     5  N   -0.052194   0.013293
     6  N   -0.291185   0.251349
     7  C   -0.092348  -0.371010
     8  C   -0.351410   0.251508
     9  C   -0.104027  -0.094425
    10  C    0.201394  -0.525983
    11  C   -0.141596  -0.278221
    12  C   -0.329096  -0.269187
    13  N   -0.281442  -0.058212
    14  O   -0.201696  -0.034777
    15  H    0.092817   0.024010
    16  H    0.063748   0.024222
    17  H    0.068909   0.251446
    18  H    0.124203   0.002639
    19  H    0.112623  -0.004745
    20  H    0.008255   0.183663
    21  H    0.145404   0.019811
    22  H    0.087980   0.050593
    23  H   -0.102454   0.256960
    24  H    0.096794   0.058997
    25  H   -0.016769   0.231156
    26  H    0.188714   0.056928
    27  H   -0.418219   0.719489
 Sum of Mulliken charges =  -1.00000   1.00000

 Dipole moment (field-independent basis, Debye):
    X=             -2.3964    Y=             -2.9080    Z=             -1.6842  Tot=              4.1274
 Quadrupole moment (field-independent basis, Debye-Ang):
   XX=           -140.6871   YY=           -104.6424   ZZ=           -111.2027
   XY=             -0.3845   XZ=             -3.0095   YZ=             -3.4443

 Summary of Natural Population Analysis:

                                       Natural Population
                Natural  -----------------------------------------------
    Atom  No    Charge         Core      Valence    Rydberg      Total
 -----------------------------------------------------------------------
      C    1   -0.11588      0.99958     2.10601    0.01029     3.11588
      C    2   -0.06810      0.99954     2.06066    0.00791     3.06810
      C    3   -0.07769      0.99945     2.06904    0.00920     3.07769
      C    4    0.07855      0.99949     1.90737    0.01460     2.92145
      N    5   -0.11616      0.99964     2.60397    0.01255     3.61616
      N    6   -0.15296      0.99972     2.64069    0.01255     3.65296
      C    7    0.05401      0.99952     1.93086    0.01561     2.94599
      C    8   -0.07583      0.99952     2.06732    0.00898     3.07583
      C    9   -0.10996      0.99958     2.10153    0.00884     3.10996
      C   10    0.05640      0.99952     1.93001    0.01408     2.94360
      C   11   -0.19398      0.99960     2.18639    0.00799     3.19398
      C   12   -0.09437      0.99964     2.08310    0.01162     3.09437
      N   13   -0.42981      0.99977     2.91930    0.01074     3.92981
      O   14   -0.38136      0.99989     3.37384    0.00763     4.38136
      H   15    0.09197      0.00000     0.40716    0.00087     0.40803
      H   16    0.09223      0.00000     0.40630    0.00146     0.40777
      H   17    0.19814      0.00000     0.29820    0.00367     0.30186
      H   18    0.09570      0.00000     0.40290    0.00140     0.40430
      H   19    0.09112      0.00000     0.40801    0.00087     0.40888
      H   20    0.08560      0.00000     0.41223    0.00218     0.41440
      H   21    0.10144      0.00000     0.39717    0.00140     0.39856
      H   22    0.10335      0.00000     0.39570    0.00095     0.39665
      H   23    0.08685      0.00000     0.41209    0.00107     0.41315
      H   24    0.08444      0.00000     0.41386    0.00170     0.41556
      H   25    0.17043      0.00000     0.32800    0.00158     0.32957
      H   26    0.18594      0.00000     0.31154    0.00252     0.31406
      H   27    0.23995      0.00000     0.24526    0.01479     0.26005
 =======================================================================
   * Total *    0.00000     13.99446    36.81852    0.18702    51.00000

 Normal termination of Gaussian 16 at Thu Dec 10 10:57:10 2020.
