 Gaussian 16, Revision A.03,

 -----------------------------------------------------------
 # opt freq B3LYP/6-31G(d) empiricaldispersion=gd3bj scf=xqc
 -----------------------------------------------------------

 -------------------------------
 CID_140315899_JID_1652_neutraal
 -------------------------------
 Symbolic Z-matrix:
 Charge =  0 Multiplicity = 1

 SCF Done:  E(RB3LYP) =  -464.724648786     A.U. after   14 cycles
 SCF Done:  E(RB3LYP) =  -464.728465063     A.U. after   12 cycles
 SCF Done:  E(RB3LYP) =  -464.728780755     A.U. after   12 cycles
 SCF Done:  E(RB3LYP) =  -464.728983454     A.U. after   11 cycles
 SCF Done:  E(RB3LYP) =  -464.729101112     A.U. after   10 cycles
 SCF Done:  E(RB3LYP) =  -464.729231930     A.U. after   11 cycles
 SCF Done:  E(RB3LYP) =  -464.729239510     A.U. after    9 cycles
 SCF Done:  E(RB3LYP) =  -464.729254674     A.U. after   10 cycles
 SCF Done:  E(RB3LYP) =  -464.729290863     A.U. after   11 cycles
 SCF Done:  E(RB3LYP) =  -464.729309077     A.U. after   11 cycles
 SCF Done:  E(RB3LYP) =  -464.729313902     A.U. after    9 cycles
 SCF Done:  E(RB3LYP) =  -464.729314969     A.U. after    9 cycles
 SCF Done:  E(RB3LYP) =  -464.729315069     A.U. after    8 cycles
 SCF Done:  E(RB3LYP) =  -464.729315097     A.U. after    7 cycles
 SCF Done:  E(RB3LYP) =  -464.729315111     A.U. after    6 cycles
 Optimization completed on the basis of negligible forces.
    -- Stationary point found.
 Normal termination of Gaussian 16 at Tue Dec  8 20:46:27 2020.

 --------------------------------------------------------------------
 #N Geom=AllCheck Guess=TCheck SCRF=Check GenChk RB3LYP/6-31G(d) Freq
 --------------------------------------------------------------------

 Structure from the checkpoint file:  "JID_1652.chk"
 -------------------------------
 CID_140315899_JID_1652_neutraal
 -------------------------------
 Charge =  0 Multiplicity = 1

 SCF Done:  E(RB3LYP) =  -464.729315111     A.U. after    1 cycles

  Exact polarizability: 145.961  20.884 108.858  -9.563  13.933  76.558
 Approx polarizability: 190.717  40.226 183.143 -14.096  33.430 114.960

                      1                      2                      3
                      A                      A                      A
 Frequencies --     12.9073                44.7602               112.2254
 Red. masses --      3.5848                 2.7288                 2.3337
 Frc consts  --      0.0004                 0.0032                 0.0173
 IR Inten    --      0.0489                 0.0117                 0.1740

                      4                      5                      6
                      A                      A                      A
 Frequencies --    125.0215               146.4548               192.0935
 Red. masses --      3.8171                 2.8606                 2.1854
 Frc consts  --      0.0352                 0.0362                 0.0475
 IR Inten    --      0.9651                 0.5210                 2.9048

                      7                      8                      9
                      A                      A                      A
 Frequencies --    201.9521               268.0994               303.9288
 Red. masses --      2.1773                 1.5211                 2.1954
 Frc consts  --      0.0523                 0.0644                 0.1195
 IR Inten    --      0.4028                 0.5878                 0.1706

                     10                     11                     12
                      A                      A                      A
 Frequencies --    324.8092               390.4891               477.9343
 Red. masses --      2.2171                 2.2414                 2.4733
 Frc consts  --      0.1378                 0.2014                 0.3329
 IR Inten    --      0.6583                 0.0800                 1.2427

                     13                     14                     15
                      A                      A                      A
 Frequencies --    500.9425               586.6869               625.5934
 Red. masses --      3.7164                 2.2553                 3.7699
 Frc consts  --      0.5495                 0.4574                 0.8693
 IR Inten    --      1.2139                 0.6365                 1.5990

                     16                     17                     18
                      A                      A                      A
 Frequencies --    657.3140               695.1915               743.2276
 Red. masses --      2.6198                 3.2074                 2.3875
 Frc consts  --      0.6669                 0.9133                 0.7770
 IR Inten    --      5.6877                 1.5022                 0.3130

                     19                     20                     21
                      A                      A                      A
 Frequencies --    768.5025               799.7772               822.8110
 Red. masses --      1.3125                 1.2808                 2.3514
 Frc consts  --      0.4567                 0.4827                 0.9379
 IR Inten    --      4.3329                44.0132                 3.9856

                     22                     23                     24
                      A                      A                      A
 Frequencies --    852.8127               897.9639               908.1807
 Red. masses --      1.3916                 1.4362                 1.3823
 Frc consts  --      0.5963                 0.6823                 0.6717
 IR Inten    --      0.5619                 2.9164                36.3466

                     25                     26                     27
                      A                      A                      A
 Frequencies --    953.2033               971.5981               992.0141
 Red. masses --      2.0527                 2.6243                 3.5995
 Frc consts  --      1.0989                 1.4596                 2.0870
 IR Inten    --      3.5930                 4.6321                 7.4991

                     28                     29                     30
                      A                      A                      A
 Frequencies --   1004.2915              1023.1525              1039.8971
 Red. masses --      2.1761                 1.0935                 1.4410
 Frc consts  --      1.2931                 0.6744                 0.9181
 IR Inten    --      2.7158                15.3414                16.9850

                     31                     32                     33
                      A                      A                      A
 Frequencies --   1064.7079              1086.4161              1119.8169
 Red. masses --      1.4635                 1.8557                 1.6700
 Frc consts  --      0.9774                 1.2905                 1.2338
 IR Inten    --     22.0653                 0.0476                 2.8868

                     34                     35                     36
                      A                      A                      A
 Frequencies --   1132.3370              1210.6618              1229.5276
 Red. masses --      1.9164                 1.9107                 1.5397
 Frc consts  --      1.4477                 1.6500                 1.3714
 IR Inten    --      2.4857                 0.8867                 0.4028

                     37                     38                     39
                      A                      A                      A
 Frequencies --   1255.9169              1279.3731              1301.8167
 Red. masses --      1.8446                 1.3877                 3.8913
 Frc consts  --      1.7143                 1.3383                 3.8855
 IR Inten    --      8.0456                 1.0938                 7.9623

                     40                     41                     42
                      A                      A                      A
 Frequencies --   1333.9657              1336.1576              1375.4511
 Red. masses --      1.3463                 1.1537                 1.8313
 Frc consts  --      1.4115                 1.2135                 2.0413
 IR Inten    --      0.4874                 1.2447                17.2389

                     43                     44                     45
                      A                      A                      A
 Frequencies --   1397.9796              1410.7403              1432.6982
 Red. masses --      1.4667                 1.4898                 2.1833
 Frc consts  --      1.6889                 1.7469                 2.6405
 IR Inten    --      4.8146                11.7364                 4.1148

                     46                     47                     48
                      A                      A                      A
 Frequencies --   1443.7746              1458.5392              1511.1421
 Red. masses --      1.2692                 1.3644                 1.0884
 Frc consts  --      1.5588                 1.7101                 1.4644
 IR Inten    --      6.0562                 0.2680                 3.0542

                     49                     50                     51
                      A                      A                      A
 Frequencies --   1520.4965              1522.2145              1533.6271
 Red. masses --      1.0755                 1.0830                 1.0677
 Frc consts  --      1.4649                 1.4785                 1.4796
 IR Inten    --      4.5534                 1.1499                 8.5193

                     52                     53                     54
                      A                      A                      A
 Frequencies --   1542.5505              1580.8765              1638.7676
 Red. masses --      1.0585                 4.9613                 5.2674
 Frc consts  --      1.4839                 7.3053                 8.3345
 IR Inten    --      3.5044                20.1144                18.0400

                     55                     56                     57
                      A                      A                      A
 Frequencies --   1718.9716              3020.6276              3036.8362
 Red. masses --      5.0365                 1.0704                 1.0614
 Frc consts  --      8.7684                 5.7545                 5.7671
 IR Inten    --     23.3354                18.1882                34.7635

                     58                     59                     60
                      A                      A                      A
 Frequencies --   3044.6994              3048.0140              3067.3663
 Red. masses --      1.0392                 1.0624                 1.1011
 Frc consts  --      5.6761                 5.8150                 6.1040
 IR Inten    --     24.3980                36.3738                12.2930

                     61                     62                     63
                      A                      A                      A
 Frequencies --   3081.6927              3089.8976              3111.4911
 Red. masses --      1.0959                 1.0949                 1.1008
 Frc consts  --      6.1320                 6.1589                 6.2791
 IR Inten    --     11.7436                48.6893                53.1148

                     64                     65                     66
                      A                      A                      A
 Frequencies --   3119.3342              3174.1027              3183.4427
 Red. masses --      1.1020                 1.0743                 1.0735
 Frc consts  --      6.3174                 6.3769                 6.4096
 IR Inten    --     52.5493                10.6107                 4.5823

                     67                     68                     69
                      A                      A                      A
 Frequencies --   3261.5746              3265.0123              3275.4411
 Red. masses --      1.0928                 1.1172                 1.1005
 Frc consts  --      6.8493                 7.0169                 6.9563
 IR Inten    --      8.9381                13.0665                 2.1524

 - Thermochemistry -
 -------------------
 Temperature   298.150 Kelvin.  Pressure   1.00000 Atm.
 Atom     1 has atomic number  6 and mass  12.00000

 Molecular mass:   150.10447 amu.
 Principal axes and moments of inertia in atomic units:
                           1         2         3
     Eigenvalues --   823.338303203.453703473.96903
           X            1.00000  -0.00187   0.00105
           Y            0.00186   0.99995   0.00935
           Z           -0.00107  -0.00935   0.99996
 This molecule is an asymmetric top.
 Rotational symmetry number  1.
 Warning -- assumption of classical behavior for rotation
           may cause significant error
 Rotational temperatures (Kelvin)      0.10520     0.02704     0.02493
 Rotational constants (GHZ):           2.19198     0.56337     0.51950
 Zero-point vibrational energy     572185.2 (Joules/Mol)
                                  136.75554 (Kcal/Mol)
 Warning -- explicit consideration of  14 degrees of freedom as
           vibrations may cause significant error
 Vibrational temperatures:     18.57    64.40   161.47   179.88   210.72
          (Kelvin)            276.38   290.56   385.74   437.29   467.33
                              561.83   687.64   720.74   844.11   900.09
                              945.73  1000.23  1069.34  1105.70  1150.70
                             1183.84  1227.01  1291.97  1306.67  1371.45
                             1397.91  1427.29  1444.95  1472.09  1496.18
                             1531.88  1563.11  1611.17  1629.18  1741.87
                             1769.02  1806.98  1840.73  1873.02  1919.28
                             1922.43  1978.97  2011.38  2029.74  2061.33
                             2077.27  2098.51  2174.20  2187.66  2190.13
                             2206.55  2219.39  2274.53  2357.82  2473.22
                             4346.01  4369.33  4380.64  4385.41  4413.26
                             4433.87  4445.67  4476.74  4488.03  4566.83
                             4580.26  4692.68  4697.62  4712.63

 Zero-point correction=                           0.217934 (Hartree/Particle)
 Thermal correction to Energy=                    0.229306
 Thermal correction to Enthalpy=                  0.230250
 Thermal correction to Gibbs Free Energy=         0.178884
 Sum of electronic and zero-point Energies=           -464.511381
 Sum of electronic and thermal Energies=              -464.500009
 Sum of electronic and thermal Enthalpies=            -464.499065
 Sum of electronic and thermal Free Energies=         -464.550431

                     E (Thermal)             CV                S
                      KCal/Mol        Cal/Mol-Kelvin    Cal/Mol-Kelvin
 Total                  143.892             42.126            108.109
 Electronic               0.000              0.000              0.000
 Translational            0.889              2.981             40.929
 Rotational               0.889              2.981             30.595
 Vibrational            142.114             36.164             36.586
 Vibration     1          0.593              1.987              7.504
 Vibration     2          0.595              1.979              5.036
 Vibration     3          0.607              1.939              3.230
 Vibration     4          0.610              1.928              3.021
 Vibration     5          0.617              1.907              2.718
 Vibration     6          0.634              1.851              2.208
 Vibration     7          0.639              1.837              2.115
 Vibration     8          0.673              1.732              1.608
 Vibration     9          0.695              1.666              1.395
 Vibration    10          0.709              1.626              1.286
 Vibration    11          0.758              1.491              0.998
 Vibration    12          0.834              1.299              0.716
 Vibration    13          0.856              1.248              0.656
 Vibration    14          0.944              1.060              0.473

 Optimization completed on the basis of negligible forces.
    -- Stationary point found.
 Normal termination of Gaussian 16 at Tue Dec  8 20:53:09 2020.

 ----------------------------------------------------------------------
 # B3LYP/6-311++G(d,p) empiricaldispersion=gd3bj scf=xqc pop=npa geom=c
 heck
 ----------------------------------------------------------------------

 ---------------------------------------
 CID_140315899_JID_1652_Energie_neutraal
 ---------------------------------------
 Structure from the checkpoint file:  "JID_1652.chk"
 Charge =  0 Multiplicity = 1

 SCF Done:  E(RB3LYP) =  -464.857237835     A.U. after   14 cycles
 Normal termination of Gaussian 16 at Tue Dec  8 20:55:51 2020.

 ----------------------------------------------------------------------
 # B3LYP/6-311++G(d,p) empiricaldispersion=gd3bj scf=xqc pop=npa geom=c
 heck
 ----------------------------------------------------------------------

 -------------------------------------
 CID_140315899_JID_1652_Energie_kation
 -------------------------------------
 Structure from the checkpoint file:  "JID_1652.chk"
 Charge =  1 Multiplicity = 2

 SCF Done:  E(UB3LYP) =  -464.579756596     A.U. after   19 cycles
 Normal termination of Gaussian 16 at Tue Dec  8 21:01:09 2020.
 Gaussian 16:  ES64L-G16RevA.03 25-Dec-2016

 ----------------------------------------------------------------------
 # B3LYP/6-311++G(d,p) empiricaldispersion=gd3bj scf=xqc pop=npa geom=c
 heck
 ----------------------------------------------------------------------

 ------------------------------------
 CID_140315899_JID_1652_Energie_anion
 ------------------------------------
 Structure from the checkpoint file:  "JID_1652.chk"
 Charge = -1 Multiplicity = 2

                         Standard orientation:
 ---------------------------------------------------------------------
 Center     Atomic      Atomic             Coordinates (Angstroms)
 Number     Number       Type             X           Y           Z
 ---------------------------------------------------------------------
      1          6           0        3.018591   -1.484186    0.956449
      2          6           0        2.974277    0.025269    0.702145
      3          6           0        2.642800    0.401505   -0.749612
      4          6           0        1.285010   -0.112102   -1.256932
      5          6           0        0.117391    0.433915   -0.504257
      6          6           0       -0.115301    1.591551    0.185464
      7          6           0       -1.468190    1.532588    0.642898
      8          6           0       -1.983326    0.339222    0.205962
      9          8           0       -1.014058   -0.336425   -0.496764
     10          6           0       -3.279057   -0.274769    0.361773
     11          6           0       -3.644113   -1.470106   -0.124263
     12          1           0        2.032680   -1.944527    0.829182
     13          1           0        3.349685   -1.700137    1.978092
     14          1           0        3.712317   -1.982802    0.267716
     15          1           0        2.240031    0.484381    1.374657
     16          1           0        3.947129    0.465251    0.957153
     17          1           0        2.676648    1.493526   -0.858635
     18          1           0        3.422455    0.004395   -1.412806
     19          1           0        1.185160    0.138418   -2.323379
     20          1           0        1.246884   -1.206169   -1.204721
     21          1           0        0.594546    2.390088    0.347855
     22          1           0       -1.995272    2.274680    1.226538
     23          1           0       -3.989517    0.321852    0.930666
     24          1           0       -4.643302   -1.859695    0.038945
     25          1           0       -2.955472   -2.085182   -0.694923
 ---------------------------------------------------------------------

 SCF Done:  E(UB3LYP) =  -464.843693212     A.U. after   33 cycles
 SCF Done:  E(UB3LYP) =  -464.843693212     a.u. after    1 cycles

 The electronic state is 2-A.
 Alpha  occ. eigenvalues --  -19.05105 -10.09522 -10.09308 -10.05938 -10.05335
 Alpha  occ. eigenvalues --  -10.05165 -10.05104 -10.04956 -10.04410 -10.04367
 Alpha  occ. eigenvalues --  -10.03188  -0.97922  -0.69909  -0.67859  -0.66593
 Alpha  occ. eigenvalues --   -0.63057  -0.58236  -0.53765  -0.48140  -0.47791
 Alpha  occ. eigenvalues --   -0.44643  -0.42522  -0.37635  -0.35808  -0.34780
 Alpha  occ. eigenvalues --   -0.32654  -0.32436  -0.31867  -0.29538  -0.27768
 Alpha  occ. eigenvalues --   -0.27355  -0.27045  -0.26089  -0.24412  -0.23945
 Alpha  occ. eigenvalues --   -0.21974  -0.21620  -0.21472  -0.18021  -0.15783
 Alpha  occ. eigenvalues --   -0.08543   0.05188
 Alpha virt. eigenvalues --    0.07012   0.08213   0.08583   0.08756   0.09640
 Alpha virt. eigenvalues --    0.10128   0.11227   0.11541   0.12483   0.12813
 Alpha virt. eigenvalues --    0.12953   0.14370   0.14620   0.14975   0.15507

  Beta  occ. eigenvalues --  -19.04993 -10.09359 -10.09255 -10.05944 -10.05303
  Beta  occ. eigenvalues --  -10.05148 -10.05020 -10.04937 -10.04433 -10.04307
  Beta  occ. eigenvalues --  -10.02984  -0.97725  -0.69789  -0.67654  -0.66416
  Beta  occ. eigenvalues --   -0.62896  -0.58061  -0.53656  -0.47948  -0.47535
  Beta  occ. eigenvalues --   -0.44507  -0.42392  -0.37498  -0.35599  -0.34708
  Beta  occ. eigenvalues --   -0.32548  -0.32041  -0.31744  -0.29472  -0.27642
  Beta  occ. eigenvalues --   -0.27283  -0.26990  -0.26004  -0.24291  -0.23833
  Beta  occ. eigenvalues --   -0.21895  -0.21549  -0.21422  -0.17093  -0.15346
  Beta  occ. eigenvalues --   -0.07631
  Beta virt. eigenvalues --    0.07674   0.08247   0.08776   0.08914   0.09580
  Beta virt. eigenvalues --    0.09945   0.10514   0.11568   0.11805   0.12718
  Beta virt. eigenvalues --    0.12974   0.13121   0.14496   0.14745   0.15321

 Mulliken charges and spin densities:
               1          2
     1  C    0.499387  -1.156872
     2  C   -0.509586   0.397825
     3  C    0.907647  -0.895513
     4  C   -0.826392   0.243828
     5  C    0.874687  -0.619020
     6  C   -0.415272   0.109137
     7  C   -0.158788  -0.041706
     8  C    0.486743  -0.098867
     9  O   -0.038992   0.050585
    10  C   -0.057603  -0.170761
    11  C   -0.680701   0.213016
    12  H    0.119289   0.036027
    13  H   -0.083655   0.207542
    14  H   -0.144601   0.276902
    15  H    0.138531  -0.031112
    16  H   -0.472128   0.624428
    17  H   -0.031572   0.154061
    18  H   -0.794581   0.963277
    19  H   -0.257995   0.461660
    20  H    0.183266  -0.050769
    21  H   -0.136061   0.286600
    22  H    0.103998   0.032498
    23  H    0.103120   0.003794
    24  H    0.108942  -0.007563
    25  H    0.082318   0.011004
 Sum of Mulliken charges =  -1.00000   1.00000

 Dipole moment (field-independent basis, Debye):
    X=             -4.6467    Y=              0.4879    Z=              2.6748  Tot=              5.3837
 Quadrupole moment (field-independent basis, Debye-Ang):
   XX=           -141.5112   YY=            -90.1699   ZZ=            -94.9918
   XY=             -3.5955   XZ=              2.3075   YZ=              3.8241

 Summary of Natural Population Analysis:

                                       Natural Population
                Natural  -----------------------------------------------
    Atom  No    Charge         Core      Valence    Rydberg      Total
 -----------------------------------------------------------------------
      C    1   -0.28774      0.99967     2.28260    0.00547     3.28774
      C    2   -0.19332      0.99964     2.18490    0.00878     3.19332
      C    3   -0.18442      0.99963     2.17517    0.00962     3.18442
      C    4   -0.21564      0.99959     2.20607    0.00997     3.21564
      C    5    0.18909      0.99947     1.79690    0.01454     2.81091
      C    6   -0.17619      0.99949     2.16774    0.00896     3.17619
      C    7   -0.12684      0.99951     2.11917    0.00815     3.12684
      C    8    0.13553      0.99944     1.85152    0.01351     2.86447
      O    9   -0.23175      0.99985     3.22442    0.00747     4.23175
      C   10   -0.10998      0.99955     2.10102    0.00942     3.10998
      C   11   -0.16169      0.99961     2.15363    0.00846     3.16169
      H   12    0.09677      0.00000     0.40227    0.00096     0.40323
      H   13    0.09629      0.00000     0.40296    0.00074     0.40371
      H   14    0.09573      0.00000     0.40324    0.00103     0.40427
      H   15    0.09685      0.00000     0.40172    0.00143     0.40315
      H   16    0.09552      0.00000     0.40282    0.00166     0.40448
      H   17    0.09606      0.00000     0.40242    0.00153     0.40394
      H   18    0.09901      0.00000     0.39809    0.00290     0.40099
      H   19    0.11000      0.00000     0.38801    0.00198     0.39000
      H   20    0.10422      0.00000     0.39429    0.00149     0.39578
      H   21    0.10549      0.00000     0.39360    0.00091     0.39451
      H   22    0.09988      0.00000     0.39940    0.00071     0.40012
      H   23    0.09184      0.00000     0.40706    0.00110     0.40816
      H   24    0.08356      0.00000     0.41548    0.00097     0.41644
      H   25    0.09173      0.00000     0.40716    0.00111     0.40827
 =======================================================================
   * Total *    0.00000     10.99544    29.88168    0.12288    41.00000

 Normal termination of Gaussian 16 at Tue Dec  8 21:10:04 2020.
