 Gaussian 16, Revision A.03,

 -----------------------------------------------------------
 # opt freq B3LYP/6-31G(d) empiricaldispersion=gd3bj scf=xqc
 -----------------------------------------------------------

 ------------------------------
 CID_71757564_JID_5323_neutraal
 ------------------------------
 Symbolic Z-matrix:
 Charge =  0 Multiplicity = 1

 SCF Done:  E(RB3LYP) =  -1118.31725093     A.U. after   16 cycles
 SCF Done:  E(RB3LYP) =  -1118.32083648     A.U. after   12 cycles
 SCF Done:  E(RB3LYP) =  -1118.32127013     A.U. after   12 cycles
 SCF Done:  E(RB3LYP) =  -1118.32161795     A.U. after   12 cycles
 SCF Done:  E(RB3LYP) =  -1118.32178015     A.U. after   12 cycles
 SCF Done:  E(RB3LYP) =  -1118.32196250     A.U. after   12 cycles
 SCF Done:  E(RB3LYP) =  -1118.32210197     A.U. after   11 cycles
 SCF Done:  E(RB3LYP) =  -1118.32242088     A.U. after   13 cycles
 SCF Done:  E(RB3LYP) =  -1118.32258156     A.U. after   12 cycles
 SCF Done:  E(RB3LYP) =  -1118.32285490     A.U. after   12 cycles
 SCF Done:  E(RB3LYP) =  -1118.32774793     A.U. after    8 cycles
 SCF Done:  E(RB3LYP) =  -1118.32775196     A.U. after    9 cycles
 SCF Done:  E(RB3LYP) =  -1118.32775292     A.U. after    8 cycles
 SCF Done:  E(RB3LYP) =  -1118.32775384     A.U. after    9 cycles
 SCF Done:  E(RB3LYP) =  -1118.32775394     A.U. after    7 cycles
 SCF Done:  E(RB3LYP) =  -1118.32775399     A.U. after    7 cycles
 Optimization completed.
    -- Stationary point found.
 Normal termination of Gaussian 16 at Thu Dec 10 15:40:14 2020.

 --------------------------------------------------------------------
 #N Geom=AllCheck Guess=TCheck SCRF=Check GenChk RB3LYP/6-31G(d) Freq
 --------------------------------------------------------------------

 Structure from the checkpoint file:  "JID_5323.chk"
 ------------------------------
 CID_71757564_JID_5323_neutraal
 ------------------------------
 Charge =  0 Multiplicity = 1

 SCF Done:  E(RB3LYP) =  -1118.32775399     A.U. after    1 cycles

  Exact polarizability: 200.853   6.467 138.867   2.194  -5.574  59.428
 Approx polarizability: 310.589  20.526 239.603  -0.902 -10.850  95.361

                      1                      2                      3
                      A                      A                      A
 Frequencies --     38.3733                57.3167                69.8895
 Red. masses --      7.8389                12.4457                 6.1314
 Frc consts  --      0.0068                 0.0241                 0.0176
 IR Inten    --      4.1014                 2.6340                 2.8143

                      4                      5                      6
                      A                      A                      A
 Frequencies --     86.1457                93.8950               131.6445
 Red. masses --      7.5280                 6.7624                 6.0806
 Frc consts  --      0.0329                 0.0351                 0.0621
 IR Inten    --      1.2691                 3.3494                 1.7685

                      7                      8                      9
                      A                      A                      A
 Frequencies --    145.3970               163.7451               200.8290
 Red. masses --      4.2707                 6.2266                 4.2866
 Frc consts  --      0.0532                 0.0984                 0.1019
 IR Inten    --      4.1195                 1.6642                 9.3248

                     10                     11                     12
                      A                      A                      A
 Frequencies --    237.8952               301.6197               314.0292
 Red. masses --      1.2156                 9.7445                 4.0688
 Frc consts  --      0.0405                 0.5223                 0.2364
 IR Inten    --     91.3522                 1.6944                26.4733

                     13                     14                     15
                      A                      A                      A
 Frequencies --    316.6305               324.4334               384.4052
 Red. masses --      2.4093                 1.8359                 5.4847
 Frc consts  --      0.1423                 0.1139                 0.4775
 IR Inten    --     38.7031                60.8713                 4.9499

                     16                     17                     18
                      A                      A                      A
 Frequencies --    416.9102               465.2530               472.1540
 Red. masses --      6.1883                 3.9989                 5.9011
 Frc consts  --      0.6337                 0.5100                 0.7751
 IR Inten    --      6.0499                 5.9666                 5.6801

                     19                     20                     21
                      A                      A                      A
 Frequencies --    508.6820               543.4074               549.4906
 Red. masses --      6.7558                 1.9793                 2.4700
 Frc consts  --      1.0300                 0.3444                 0.4394
 IR Inten    --     22.2231                59.4523                 5.3246

                     22                     23                     24
                      A                      A                      A
 Frequencies --    582.1868               629.6551               642.8583
 Red. masses --      5.7645                 1.4171                 1.8776
 Frc consts  --      1.1512                 0.3310                 0.4572
 IR Inten    --     13.9167                85.4542                47.0462

                     25                     26                     27
                      A                      A                      A
 Frequencies --    669.6855               683.1541               700.9083
 Red. masses --      2.2978                 2.1500                 2.6253
 Frc consts  --      0.6072                 0.5912                 0.7599
 IR Inten    --    103.7854                89.3046               119.4532

                     28                     29                     30
                      A                      A                      A
 Frequencies --    749.9926               771.3401               774.8060
 Red. masses --      7.0310                 5.1972                 4.8202
 Frc consts  --      2.3301                 1.8219                 1.7049
 IR Inten    --      2.2189                 8.0134                52.4226

                     31                     32                     33
                      A                      A                      A
 Frequencies --    804.9467               880.2618               931.9174
 Red. masses --      5.9654                 4.4073                 1.6933
 Frc consts  --      2.2773                 2.0121                 0.8665
 IR Inten    --     17.9222                10.6752                 5.7358

                     34                     35                     36
                      A                      A                      A
 Frequencies --    933.2698               959.5260              1007.9948
 Red. masses --      1.7005                 1.4144                 4.6132
 Frc consts  --      0.8727                 0.7672                 2.7616
 IR Inten    --     21.1944                 2.0757                 5.3192

                     37                     38                     39
                      A                      A                      A
 Frequencies --   1119.0635              1144.7958              1182.8960
 Red. masses --      4.5970                 4.0246                 1.2084
 Frc consts  --      3.3918                 3.1076                 0.9963
 IR Inten    --      5.1712               301.5580                 8.7986

                     40                     41                     42
                      A                      A                      A
 Frequencies --   1207.5788              1259.1074              1280.2024
 Red. masses --      1.4951                 2.5308                 1.4265
 Frc consts  --      1.2846                 2.3640                 1.3775
 IR Inten    --    217.1665                27.8275                 4.8206

                     43                     44                     45
                      A                      A                      A
 Frequencies --   1291.6887              1336.1616              1346.9600
 Red. masses --      1.6534                 6.3597                 3.7577
 Frc consts  --      1.6253                 6.6897                 4.0168
 IR Inten    --      0.6690                 4.3660               199.8746

                     46                     47                     48
                      A                      A                      A
 Frequencies --   1400.4646              1415.7126              1474.7716
 Red. masses --      2.7533                 1.9750                 5.1657
 Frc consts  --      3.1816                 2.3322                 6.6195
 IR Inten    --    220.1723                21.3645               138.0075

                     49                     50                     51
                      A                      A                      A
 Frequencies --   1481.6205              1533.6945              1607.7819
 Red. masses --      1.1177                 2.6345                 7.5704
 Frc consts  --      1.4456                 3.6511                11.5298
 IR Inten    --     20.2839                44.2963                29.0570

                     52                     53                     54
                      A                      A                      A
 Frequencies --   1649.7520              1734.1587              1818.2767
 Red. masses --      5.5968                 1.0794                 9.0947
 Frc consts  --      8.9748                 1.9125                17.7157
 IR Inten    --     93.7439                80.0703               607.8612

                     55                     56                     57
                      A                      A                      A
 Frequencies --   1830.1379              3072.3755              3172.9931
 Red. masses --     10.0512                 1.0677                 1.0976
 Frc consts  --     19.8351                 5.9381                 6.5105
 IR Inten    --    246.7229                 9.2242                 0.0956

                     58                     59                     60
                      A                      A                      A
 Frequencies --   3220.9842              3227.8384              3591.0666
 Red. masses --      1.0914                 1.0920                 1.0765
 Frc consts  --      6.6714                 6.7035                 8.1795
 IR Inten    --      1.6561                 0.5752                38.6277

                     61                     62                     63
                      A                      A                      A
 Frequencies --   3597.5791              3698.5839              3801.3285
 Red. masses --      1.0553                 1.0642                 1.0717
 Frc consts  --      8.0472                 8.5776                 9.1239
 IR Inten    --    310.9876                96.7787                65.9389

 - Thermochemistry -
 -------------------
 Temperature   298.150 Kelvin.  Pressure   1.00000 Atm.
 Atom     1 has atomic number  6 and mass  12.00000

 Molecular mass:   228.02048 amu.
 Principal axes and moments of inertia in atomic units:
                           1         2         3
     Eigenvalues --  2408.353025139.468217416.52179
           X            0.99991  -0.01222   0.00511
           Y            0.01224   0.99992  -0.00321
           Z           -0.00507   0.00328   0.99998
 This molecule is an asymmetric top.
 Rotational symmetry number  1.
 Warning -- assumption of classical behavior for rotation
           may cause significant error
 Rotational temperatures (Kelvin)      0.03596     0.01685     0.01168
 Rotational constants (GHZ):           0.74937     0.35115     0.24334
 Zero-point vibrational energy     430908.2 (Joules/Mol)
                                  102.98953 (Kcal/Mol)
 Warning -- explicit consideration of  22 degrees of freedom as
           vibrations may cause significant error
 Vibrational temperatures:     55.21    82.47   100.56   123.94   135.09
          (Kelvin)            189.41   209.19   235.59   288.95   342.28
                              433.96   451.82   455.56   466.79   553.07
                              599.84   669.40   679.32   731.88   781.84
                              790.59   837.64   905.93   924.93   963.53
                              982.91  1008.45  1079.07  1109.79  1114.77
                             1158.14  1266.50  1340.82  1342.77  1380.54
                             1450.28  1610.08  1647.11  1701.92  1737.44
                             1811.57  1841.93  1858.45  1922.44  1937.97
                             2014.96  2036.89  2121.87  2131.72  2206.64
                             2313.24  2373.63  2495.07  2616.09  2633.16
                             4420.46  4565.23  4634.28  4644.14  5166.74
                             5176.11  5321.44  5469.26

 Zero-point correction=                           0.164124 (Hartree/Particle)
 Thermal correction to Energy=                    0.178835
 Thermal correction to Enthalpy=                  0.179779
 Thermal correction to Gibbs Free Energy=         0.121234
 Sum of electronic and zero-point Energies=          -1118.163630
 Sum of electronic and thermal Energies=             -1118.148919
 Sum of electronic and thermal Enthalpies=           -1118.147975
 Sum of electronic and thermal Free Energies=        -1118.206520

                     E (Thermal)             CV                S
                      KCal/Mol        Cal/Mol-Kelvin    Cal/Mol-Kelvin
 Total                  112.221             53.659            123.220
 Electronic               0.000              0.000              0.000
 Translational            0.889              2.981             42.175
 Rotational               0.889              2.981             32.884
 Vibrational            110.443             47.697             48.161
 Vibration     1          0.594              1.982              5.341
 Vibration     2          0.596              1.975              4.548
 Vibration     3          0.598              1.968              4.156
 Vibration     4          0.601              1.959              3.746
 Vibration     5          0.603              1.954              3.577
 Vibration     6          0.612              1.922              2.922
 Vibration     7          0.617              1.908              2.732
 Vibration     8          0.623              1.887              2.506
 Vibration     9          0.638              1.839              2.125
 Vibration    10          0.656              1.783              1.819
 Vibration    11          0.694              1.671              1.408
 Vibration    12          0.702              1.647              1.341
 Vibration    13          0.704              1.642              1.327
 Vibration    14          0.709              1.627              1.288
 Vibration    15          0.753              1.503              1.022
 Vibration    16          0.780              1.434              0.903
 Vibration    17          0.823              1.327              0.751
 Vibration    18          0.829              1.312              0.732
 Vibration    19          0.864              1.231              0.637
 Vibration    20          0.899              1.154              0.558
 Vibration    21          0.905              1.141              0.545
 Vibration    22          0.939              1.070              0.481

 Optimization completed.
    -- Stationary point found.
 Normal termination of Gaussian 16 at Thu Dec 10 15:47:14 2020.

 ----------------------------------------------------------------------
 # B3LYP/6-311++G(d,p) empiricaldispersion=gd3bj scf=xqc pop=npa geom=c
 heck
 ----------------------------------------------------------------------

 --------------------------------------
 CID_71757564_JID_5323_Energie_neutraal
 --------------------------------------
 Structure from the checkpoint file:  "JID_5323.chk"
 Charge =  0 Multiplicity = 1

 SCF Done:  E(RB3LYP) =  -1118.58792272     A.U. after   16 cycles
 Normal termination of Gaussian 16 at Thu Dec 10 15:50:18 2020.

 ----------------------------------------------------------------------
 # B3LYP/6-311++G(d,p) empiricaldispersion=gd3bj scf=xqc pop=npa geom=c
 heck
 ----------------------------------------------------------------------

 ------------------------------------
 CID_71757564_JID_5323_Energie_kation
 ------------------------------------
 Structure from the checkpoint file:  "JID_5323.chk"
 Charge =  1 Multiplicity = 2

 SCF Done:  E(UB3LYP) =  -1118.27030436     A.U. after   27 cycles
 Normal termination of Gaussian 16 at Thu Dec 10 15:56:19 2020.
 Gaussian 16:  ES64L-G16RevA.03 25-Dec-2016

 ----------------------------------------------------------------------
 # B3LYP/6-311++G(d,p) empiricaldispersion=gd3bj scf=xqc pop=npa geom=c
 heck
 ----------------------------------------------------------------------

 -----------------------------------
 CID_71757564_JID_5323_Energie_anion
 -----------------------------------
 Structure from the checkpoint file:  "JID_5323.chk"
 Charge = -1 Multiplicity = 2

                         Standard orientation:
 ---------------------------------------------------------------------
 Center     Atomic      Atomic             Coordinates (Angstroms)
 Number     Number       Type             X           Y           Z
 ---------------------------------------------------------------------
      1          6           0       -2.973118   -0.499178   -0.712878
      2          6           0       -2.522757   -1.749034    0.019868
      3          8           0       -3.267157   -2.672424    0.290183
      4          7           0       -1.173464   -1.799600    0.312134
      5          6           0       -0.214765   -0.805860    0.097896
      6          6           0       -0.573536    0.555542   -0.045031
      7         16           0       -2.273833    1.050661   -0.027205
      8          7           0        0.338882    1.526514   -0.148023
      9          6           0        1.634201    1.212041   -0.130813
     10          6           0        2.086932   -0.106619   -0.033129
     11          6           0        1.140077   -1.127265    0.081050
     12          6           0        3.546719   -0.360991   -0.048860
     13          8           0        4.396700    0.497781   -0.156202
     14          8           0        3.846955   -1.678859    0.071576
     15          8           0       -1.152158    3.924273    0.504460
     16          1           0       -2.712477   -0.586557   -1.774020
     17          1           0       -4.057418   -0.428847   -0.625346
     18          1           0       -0.864706   -2.682072    0.703166
     19          1           0        2.345864    2.028186   -0.199865
     20          1           0        1.459558   -2.160048    0.174195
     21          1           0        4.820308   -1.734976    0.052007
     22          1           0       -1.637821    4.101797   -0.314732
     23          1           0       -0.467145    3.285561    0.222354
 ---------------------------------------------------------------------

 SCF Done:  E(UB3LYP) =  -1118.62412610     A.U. after   25 cycles

 The electronic state is 2-A.
 Alpha  occ. eigenvalues --  -88.73627 -19.03860 -18.99723 -18.98744 -18.96107
 Alpha  occ. eigenvalues --  -14.24859 -14.18330 -10.18013 -10.14832 -10.10418
 Alpha  occ. eigenvalues --  -10.10261 -10.08867 -10.07303 -10.04908 -10.03786
 Alpha  occ. eigenvalues --   -7.82221  -5.78611  -5.78230  -5.77619  -0.97346
 Alpha  occ. eigenvalues --   -0.95062  -0.87903  -0.87484  -0.84703  -0.81324
 Alpha  occ. eigenvalues --   -0.70277  -0.67486  -0.64542  -0.57407  -0.53476
 Alpha  occ. eigenvalues --   -0.51762  -0.50477  -0.45412  -0.42154  -0.39175
 Alpha  occ. eigenvalues --   -0.38363  -0.37747  -0.36295  -0.35374  -0.34006
 Alpha  occ. eigenvalues --   -0.33326  -0.32248  -0.32052  -0.30118  -0.29103
 Alpha  occ. eigenvalues --   -0.28498  -0.27038  -0.25886  -0.25005  -0.23060
 Alpha  occ. eigenvalues --   -0.21684  -0.19931  -0.18315  -0.17933  -0.16349
 Alpha  occ. eigenvalues --   -0.15315  -0.13812  -0.13453  -0.10150   0.02365
 Alpha virt. eigenvalues --    0.07911   0.08408   0.08520   0.09584   0.10213
 Alpha virt. eigenvalues --    0.10562   0.11777   0.12455   0.13489   0.14033
 Alpha virt. eigenvalues --    0.14398   0.14887   0.15760   0.16294   0.16433

  Beta  occ. eigenvalues --  -88.73614 -19.03805 -18.99715 -18.98743 -18.95789
  Beta  occ. eigenvalues --  -14.24867 -14.18287 -10.17992 -10.14602 -10.10384
  Beta  occ. eigenvalues --  -10.10381 -10.08328 -10.07261 -10.04616 -10.03556
  Beta  occ. eigenvalues --   -7.82208  -5.78606  -5.78238  -5.77559  -0.97071
  Beta  occ. eigenvalues --   -0.95044  -0.87481  -0.87437  -0.84612  -0.81031
  Beta  occ. eigenvalues --   -0.70003  -0.67029  -0.64112  -0.57044  -0.53214
  Beta  occ. eigenvalues --   -0.51480  -0.50214  -0.45073  -0.42006  -0.39162
  Beta  occ. eigenvalues --   -0.38256  -0.37558  -0.36073  -0.35060  -0.33737
  Beta  occ. eigenvalues --   -0.33154  -0.32002  -0.30985  -0.30011  -0.28636
  Beta  occ. eigenvalues --   -0.27951  -0.26644  -0.25828  -0.24777  -0.22825
  Beta  occ. eigenvalues --   -0.21426  -0.18759  -0.18219  -0.17324  -0.15305
  Beta  occ. eigenvalues --   -0.15088  -0.13555  -0.12697  -0.09077
  Beta virt. eigenvalues --    0.07943   0.08076   0.08495   0.09302   0.09625
  Beta virt. eigenvalues --    0.10249   0.10795   0.12127   0.12525   0.13463
  Beta virt. eigenvalues --    0.14095   0.14447   0.14964   0.15841   0.16306

 Mulliken charges and spin densities:
               1          2
     1  C   -0.414555   0.018393
     2  C    0.033573   0.003777
     3  O   -0.361895   0.002572
     4  N   -0.165193  -0.000648
     5  C   -0.123892  -0.067591
     6  C    0.154255   0.296344
     7  S   -0.265643   0.038889
     8  N   -0.014682   0.019327
     9  C   -0.311766   0.060544
    10  C    0.554113   0.078952
    11  C   -0.568553   0.257875
    12  C   -0.178519   0.149722
    13  O   -0.413629   0.110544
    14  O   -0.243749   0.013237
    15  O   -0.505895  -0.000154
    16  H    0.205636  -0.008067
    17  H    0.159067   0.044172
    18  H    0.289597   0.001547
    19  H    0.201376  -0.002522
    20  H    0.171937  -0.018266
    21  H    0.267071  -0.000765
    22  H    0.213408   0.001403
    23  H    0.317939   0.000713
 Sum of Mulliken charges =  -1.00000   1.00000

 Dipole moment (field-independent basis, Debye):
    X=             -1.5565    Y=             -3.2270    Z=             -2.1873  Tot=              4.1977
 Quadrupole moment (field-independent basis, Debye-Ang):
   XX=           -143.2131   YY=           -126.6690   ZZ=           -100.4159
   XY=            -14.7607   XZ=              8.4428   YZ=             -6.4421

 Summary of Natural Population Analysis:

                                       Natural Population
                Natural  -----------------------------------------------
    Atom  No    Charge         Core      Valence    Rydberg      Total
 -----------------------------------------------------------------------
      C    1   -0.29334      0.99955     2.28381    0.00998     3.29334
      C    2    0.33972      0.99967     1.63714    0.02347     2.66028
      O    3   -0.32246      0.99987     3.31571    0.00687     4.32246
      N    4   -0.30438      0.99963     2.79454    0.01021     3.80438
      C    5    0.02070      0.99942     1.96889    0.01098     2.97930
      C    6    0.11607      0.99944     1.86627    0.01822     2.88393
      S    7    0.13628      4.99957     2.84355    0.02060     7.86372
      N    8   -0.26804      0.99963     2.75458    0.01382     3.76804
      C    9    0.05955      0.99956     1.92789    0.01301     2.94045
      C   10   -0.06337      0.99946     2.05464    0.00927     3.06337
      C   11   -0.02308      0.99952     2.01547    0.00810     3.02308
      C   12    0.42204      0.99967     1.55364    0.02465     2.57796
      O   13   -0.29886      0.99987     3.29123    0.00776     4.29886
      O   14   -0.35497      0.99988     3.34905    0.00604     4.35497
      O   15   -0.47830      0.99991     3.47234    0.00604     4.47830
      H   16    0.10758      0.00000     0.39108    0.00134     0.39242
      H   17    0.11473      0.00000     0.38426    0.00101     0.38527
      H   18    0.19549      0.00000     0.30258    0.00193     0.30451
      H   19    0.09596      0.00000     0.40290    0.00114     0.40404
      H   20    0.09998      0.00000     0.39892    0.00111     0.40002
      H   21    0.23181      0.00000     0.26499    0.00320     0.26819
      H   22    0.22126      0.00000     0.27587    0.00287     0.27874
      H   23    0.24562      0.00000     0.25100    0.00337     0.25438
 =======================================================================
   * Total *    0.00000     18.99466    39.80033    0.20501    59.00000

 Normal termination of Gaussian 16 at Thu Dec 10 16:02:16 2020.
