 Gaussian 16, Revision A.03,

 -----------------------------------------------------------
 # opt freq B3LYP/6-31G(d) empiricaldispersion=gd3bj scf=xqc
 -----------------------------------------------------------

 ------------------------------
 CID_81817990_JID_3051_neutraal
 ------------------------------
 Symbolic Z-matrix:
 Charge =  0 Multiplicity = 1

 SCF Done:  E(RB3LYP) =  -543.132029061     A.U. after   14 cycles
 SCF Done:  E(RB3LYP) =  -543.135590908     A.U. after   11 cycles
 SCF Done:  E(RB3LYP) =  -543.135911766     A.U. after   11 cycles
 SCF Done:  E(RB3LYP) =  -543.136368128     A.U. after   10 cycles
 SCF Done:  E(RB3LYP) =  -543.136480306     A.U. after   10 cycles
 SCF Done:  E(RB3LYP) =  -543.136503093     A.U. after   10 cycles
 SCF Done:  E(RB3LYP) =  -543.136531671     A.U. after   10 cycles
 SCF Done:  E(RB3LYP) =  -543.136540055     A.U. after    9 cycles
 SCF Done:  E(RB3LYP) =  -543.136542170     A.U. after    8 cycles
 SCF Done:  E(RB3LYP) =  -543.136543584     A.U. after    7 cycles
 SCF Done:  E(RB3LYP) =  -543.136544189     A.U. after    7 cycles
 SCF Done:  E(RB3LYP) =  -543.136544318     A.U. after    7 cycles
 SCF Done:  E(RB3LYP) =  -543.136544395     A.U. after    6 cycles
 Optimization completed.
    -- Stationary point found.
 Normal termination of Gaussian 16 at Wed Dec  9 22:25:27 2020.

 --------------------------------------------------------------------
 #N Geom=AllCheck Guess=TCheck SCRF=Check GenChk RB3LYP/6-31G(d) Freq
 --------------------------------------------------------------------

 Structure from the checkpoint file:  "JID_3051.chk"
 ------------------------------
 CID_81817990_JID_3051_neutraal
 ------------------------------
 Charge =  0 Multiplicity = 1

 SCF Done:  E(RB3LYP) =  -543.136544395     A.U. after    1 cycles

  Exact polarizability: 137.413   4.636 141.491   0.132   6.721 113.498
 Approx polarizability: 175.503   9.823 196.364   4.238  13.183 166.817

                      1                      2                      3
                      A                      A                      A
 Frequencies --     32.7800                55.3113                78.4534
 Red. masses --      3.3555                 3.1127                 2.5482
 Frc consts  --      0.0021                 0.0056                 0.0092
 IR Inten    --      0.1524                 0.7734                 0.3848

                      4                      5                      6
                      A                      A                      A
 Frequencies --     87.0087                93.5559               121.4651
 Red. masses --      2.2527                 2.5377                 2.4567
 Frc consts  --      0.0100                 0.0131                 0.0214
 IR Inten    --      0.9072                 0.2001                 0.1627

                      7                      8                      9
                      A                      A                      A
 Frequencies --    136.3290               163.1810               218.7021
 Red. masses --      2.7716                 2.9927                 2.4086
 Frc consts  --      0.0303                 0.0470                 0.0679
 IR Inten    --      1.1102                 1.5341                 0.8610

                     10                     11                     12
                      A                      A                      A
 Frequencies --    230.8082               238.2240               262.3551
 Red. masses --      2.9856                 1.2442                 1.3114
 Frc consts  --      0.0937                 0.0416                 0.0532
 IR Inten    --      0.2284                 0.1526                 1.2358

                     13                     14                     15
                      A                      A                      A
 Frequencies --    279.4330               285.0516               302.5218
 Red. masses --      1.4732                 1.3644                 2.0578
 Frc consts  --      0.0678                 0.0653                 0.1110
 IR Inten    --      0.9127                 0.4032                 0.7816

                     16                     17                     18
                      A                      A                      A
 Frequencies --    307.1867               314.9620               349.9756
 Red. masses --      1.2637                 1.8547                 2.4859
 Frc consts  --      0.0703                 0.1084                 0.1794
 IR Inten    --      0.4299                 2.0176                 0.5940

                     19                     20                     21
                      A                      A                      A
 Frequencies --    376.9838               395.4144               414.0003
 Red. masses --      2.3349                 2.1231                 2.1454
 Frc consts  --      0.1955                 0.1956                 0.2167
 IR Inten    --      0.6479                 0.4687                 2.2629

                     22                     23                     24
                      A                      A                      A
 Frequencies --    462.6305               520.9601               567.9583
 Red. masses --      2.1782                 2.6666                 1.9804
 Frc consts  --      0.2747                 0.4264                 0.3764
 IR Inten    --      0.5206                17.1623                 0.5496

                     25                     26                     27
                      A                      A                      A
 Frequencies --    577.2396               671.3232               714.5706
 Red. masses --      2.7893                 2.1501                 2.3316
 Frc consts  --      0.5476                 0.5709                 0.7015
 IR Inten    --      5.5855                 7.0908                 9.8396

                     28                     29                     30
                      A                      A                      A
 Frequencies --    784.0606               820.5158               862.3379
 Red. masses --      1.4701                 1.8973                 1.5256
 Frc consts  --      0.5325                 0.7526                 0.6684
 IR Inten    --     59.7680                 2.3581                 5.4571

                     31                     32                     33
                      A                      A                      A
 Frequencies --    892.4313               921.2058               932.3936
 Red. masses --      2.0620                 1.5304                 1.4126
 Frc consts  --      0.9676                 0.7652                 0.7235
 IR Inten    --      2.7069                 4.3432                 1.8298

                     34                     35                     36
                      A                      A                      A
 Frequencies --    943.1732               949.0816               963.0022
 Red. masses --      1.3441                 1.6009                 1.5248
 Frc consts  --      0.7045                 0.8496                 0.8331
 IR Inten    --     33.5053                13.2319                 2.5368

                     37                     38                     39
                      A                      A                      A
 Frequencies --    970.1291               988.8665              1025.4712
 Red. masses --      1.6394                 1.5498                 1.3882
 Frc consts  --      0.9091                 0.8929                 0.8601
 IR Inten    --      1.5929                 4.4873                 5.7760

                     40                     41                     42
                      A                      A                      A
 Frequencies --   1034.7218              1056.5128              1084.5878
 Red. masses --      1.4786                 2.0759                 2.0783
 Frc consts  --      0.9327                 1.3652                 1.4404
 IR Inten    --     17.6516                 7.1338                 8.8072

                     43                     44                     45
                      A                      A                      A
 Frequencies --   1111.2365              1131.2908              1146.7853
 Red. masses --      2.1151                 1.8941                 2.1444
 Frc consts  --      1.5388                 1.4282                 1.6616
 IR Inten    --     29.5079                13.2782                25.9089

                     46                     47                     48
                      A                      A                      A
 Frequencies --   1153.2343              1164.4015              1169.1770
 Red. masses --      2.0558                 1.6697                 2.4847
 Frc consts  --      1.6109                 1.3338                 2.0012
 IR Inten    --     14.3387                 7.6247                23.8748

                     49                     50                     51
                      A                      A                      A
 Frequencies --   1190.5528              1210.2748              1226.6986
 Red. masses --      1.9437                 1.9498                 2.0413
 Frc consts  --      1.6232                 1.6827                 1.8098
 IR Inten    --      4.1007                 0.2757                55.8180

                     52                     53                     54
                      A                      A                      A
 Frequencies --   1246.7607              1273.0056              1326.5632
 Red. masses --      2.3842                 1.3499                 1.3491
 Frc consts  --      2.1835                 1.2889                 1.3988
 IR Inten    --     50.9749                 3.4933                 4.8341

                     55                     56                     57
                      A                      A                      A
 Frequencies --   1331.3516              1349.6049              1356.3040
 Red. masses --      1.2679                 1.3063                 1.3324
 Frc consts  --      1.3241                 1.4018                 1.4441
 IR Inten    --      0.2834                10.9641                20.5748

                     58                     59                     60
                      A                      A                      A
 Frequencies --   1377.2481              1386.2199              1405.3821
 Red. masses --      1.3096                 1.2262                 1.4568
 Frc consts  --      1.4636                 1.3883                 1.6953
 IR Inten    --     10.7324                22.2422                 0.4759

                     61                     62                     63
                      A                      A                      A
 Frequencies --   1417.1691              1423.4431              1426.2685
 Red. masses --      1.3477                 1.2295                 1.2601
 Frc consts  --      1.5948                 1.4677                 1.5102
 IR Inten    --     10.4856                 7.2358                 6.3146

                     64                     65                     66
                      A                      A                      A
 Frequencies --   1438.7918              1448.6502              1467.8340
 Red. masses --      1.2365                 1.2406                 1.2146
 Frc consts  --      1.5081                 1.5339                 1.5419
 IR Inten    --      0.5123                17.8690                17.9944

                     67                     68                     69
                      A                      A                      A
 Frequencies --   1476.8478              1482.8628              1502.7905
 Red. masses --      1.2131                 1.1822                 1.1460
 Frc consts  --      1.5589                 1.5315                 1.5249
 IR Inten    --      2.4874                 1.8189                 5.5527

                     70                     71                     72
                      A                      A                      A
 Frequencies --   1507.4709              1511.7452              1517.2902
 Red. masses --      1.0921                 1.1401                 1.0505
 Frc consts  --      1.4622                 1.5352                 1.4249
 IR Inten    --      5.8503                20.4160                10.1790

                     73                     74                     75
                      A                      A                      A
 Frequencies --   1518.8040              1522.8197              1528.3099
 Red. masses --      1.0593                 1.0515                 1.0536
 Frc consts  --      1.4398                 1.4367                 1.4499
 IR Inten    --      4.5555                 1.0726                 0.6921

                     76                     77                     78
                      A                      A                      A
 Frequencies --   1533.8975              1536.9653              1541.2105
 Red. masses --      1.0605                 1.0828                 1.0600
 Frc consts  --      1.4702                 1.5070                 1.4835
 IR Inten    --      2.9511                14.0758                 5.9602

                     79                     80                     81
                      A                      A                      A
 Frequencies --   1547.3377              1548.1036              1723.5617
 Red. masses --      1.0507                 1.0556                 4.3433
 Frc consts  --      1.4822                 1.4906                 7.6019
 IR Inten    --      6.9488                 2.2455                 3.0298

                     82                     83                     84
                      A                      A                      A
 Frequencies --   2947.4933              2964.4966              2992.2760
 Red. masses --      1.0612                 1.0708                 1.0682
 Frc consts  --      5.4321                 5.5447                 5.6351
 IR Inten    --     77.7271                77.3185                53.3876

                     85                     86                     87
                      A                      A                      A
 Frequencies --   3000.8082              3046.0499              3052.7015
 Red. masses --      1.0845                 1.0764                 1.0448
 Frc consts  --      5.7540                 5.8841                 5.7366
 IR Inten    --     37.8134                17.2787                 9.0113

                     88                     89                     90
                      A                      A                      A
 Frequencies --   3053.6266              3055.7862              3059.8899
 Red. masses --      1.0409                 1.0827                 1.0851
 Frc consts  --      5.7189                 5.9569                 5.9860
 IR Inten    --     34.1469                14.9160                56.2543

                     91                     92                     93
                      A                      A                      A
 Frequencies --   3061.4729              3065.1854              3069.4231
 Red. masses --      1.0673                 1.0461                 1.0722
 Frc consts  --      5.8936                 5.7906                 5.9516
 IR Inten    --     10.9587                37.1311                57.2075

                     94                     95                     96
                      A                      A                      A
 Frequencies --   3104.8136              3115.1872              3116.6471
 Red. masses --      1.0982                 1.1025                 1.0967
 Frc consts  --      6.2376                 6.3037                 6.2763
 IR Inten    --     25.2058                31.0736                56.4402

                     97                     98                     99
                      A                      A                      A
 Frequencies --   3117.3247              3127.2419              3138.1439
 Red. masses --      1.1002                 1.0993                 1.1020
 Frc consts  --      6.2993                 6.3339                 6.3942
 IR Inten    --     75.7495                16.6615                30.6278

                    100                    101                    102
                      A                      A                      A
 Frequencies --   3145.8253              3148.5949              3150.2193
 Red. masses --      1.1017                 1.0936                 1.0667
 Frc consts  --      6.4235                 6.3879                 6.2372
 IR Inten    --      6.6784                45.5771                11.6744

                    103                    104                    105
                      A                      A                      A
 Frequencies --   3170.6747              3232.9629              3507.1859
 Red. masses --      1.0914                 1.1147                 1.0729
 Frc consts  --      6.4645                 6.8647                 7.7756
 IR Inten    --     10.8307                21.1376                 1.1338

 - Thermochemistry -
 -------------------
 Temperature   298.150 Kelvin.  Pressure   1.00000 Atm.
 Atom     1 has atomic number  6 and mass  12.00000

 Molecular mass:   184.19395 amu.
 Principal axes and moments of inertia in atomic units:
                           1         2         3
     Eigenvalues --  2139.527993187.023154104.13686
           X            0.99974   0.01854  -0.01327
           Y           -0.01849   0.99982   0.00385
           Z            0.01334  -0.00360   0.99990
 This molecule is an asymmetric top.
 Rotational symmetry number  1.
 Warning -- assumption of classical behavior for rotation
           may cause significant error
 Rotational temperatures (Kelvin)      0.04048     0.02718     0.02110
 Rotational constants (GHZ):           0.84352     0.56628     0.43974
 Zero-point vibrational energy     903833.6 (Joules/Mol)
                                  216.02141 (Kcal/Mol)
 Warning -- explicit consideration of  25 degrees of freedom as
           vibrations may cause significant error
 Vibrational temperatures:     47.16    79.58   112.88   125.19   134.61
          (Kelvin)            174.76   196.15   234.78   314.66   332.08
                              342.75   377.47   402.04   410.13   435.26
                              441.97   453.16   503.54   542.40   568.91
                              595.65   665.62   749.55   817.17   830.52
                              965.88  1028.11  1128.09  1180.54  1240.71
                             1284.01  1325.41  1341.51  1357.02  1365.52
                             1385.55  1395.80  1422.76  1475.42  1488.73
                             1520.09  1560.48  1598.82  1627.68  1649.97
                             1659.25  1675.31  1682.18  1712.94  1741.32
                             1764.95  1793.81  1831.57  1908.63  1915.52
                             1941.78  1951.42  1981.55  1994.46  2022.03
                             2038.99  2048.02  2052.08  2070.10  2084.28
                             2111.89  2124.85  2133.51  2162.18  2168.91
                             2175.06  2183.04  2185.22  2191.00  2198.90
                             2206.94  2211.35  2217.46  2226.27  2227.38
                             2479.82  4240.79  4265.25  4305.22  4317.49
                             4382.59  4392.16  4393.49  4396.59  4402.50
                             4404.78  4410.12  4416.22  4467.13  4482.06
                             4484.16  4485.13  4499.40  4515.09  4526.14
                             4530.13  4532.46  4561.89  4651.51  5046.06

 Zero-point correction=                           0.344252 (Hartree/Particle)
 Thermal correction to Energy=                    0.360600
 Thermal correction to Enthalpy=                  0.361544
 Thermal correction to Gibbs Free Energy=         0.300975
 Sum of electronic and zero-point Energies=           -542.792292
 Sum of electronic and thermal Energies=              -542.775944
 Sum of electronic and thermal Enthalpies=            -542.775000
 Sum of electronic and thermal Free Energies=         -542.835569

                     E (Thermal)             CV                S
                      KCal/Mol        Cal/Mol-Kelvin    Cal/Mol-Kelvin
 Total                  226.280             60.979            127.478
 Electronic               0.000              0.000              0.000
 Translational            0.889              2.981             41.539
 Rotational               0.889              2.981             31.704
 Vibrational            224.503             55.018             54.236
 Vibration     1          0.594              1.983              5.654
 Vibration     2          0.596              1.975              4.618
 Vibration     3          0.600              1.964              3.929
 Vibration     4          0.601              1.958              3.726
 Vibration     5          0.603              1.954              3.584
 Vibration     6          0.609              1.931              3.077
 Vibration     7          0.614              1.917              2.855
 Vibration     8          0.623              1.888              2.513
 Vibration     9          0.646              1.813              1.970
 Vibration    10          0.653              1.794              1.873
 Vibration    11          0.656              1.782              1.816
 Vibration    12          0.670              1.742              1.646
 Vibration    13          0.680              1.712              1.537
 Vibration    14          0.683              1.701              1.503
 Vibration    15          0.694              1.669              1.403
 Vibration    16          0.697              1.660              1.377
 Vibration    17          0.702              1.645              1.336
 Vibration    18          0.727              1.575              1.166
 Vibration    19          0.748              1.519              1.051
 Vibration    20          0.762              1.480              0.980
 Vibration    21          0.778              1.440              0.913
 Vibration    22          0.820              1.333              0.758
 Vibration    23          0.876              1.204              0.608
 Vibration    24          0.924              1.101              0.508
 Vibration    25          0.934              1.080              0.491

                           ! Non-Optimized Parameters !
 Normal termination of Gaussian 16 at Wed Dec  9 22:36:28 2020.

 ----------------------------------------------------------------------
 # B3LYP/6-311++G(d,p) empiricaldispersion=gd3bj scf=xqc pop=npa geom=c
 heck
 ----------------------------------------------------------------------

 --------------------------------------
 CID_81817990_JID_3051_Energie_neutraal
 --------------------------------------
 Structure from the checkpoint file:  "JID_3051.chk"
 Charge =  0 Multiplicity = 1

 SCF Done:  E(RB3LYP) =  -543.294110788     A.U. after   14 cycles
 Normal termination of Gaussian 16 at Wed Dec  9 22:41:13 2020.

 ----------------------------------------------------------------------
 # B3LYP/6-311++G(d,p) empiricaldispersion=gd3bj scf=xqc pop=npa geom=c
 heck
 ----------------------------------------------------------------------

 ------------------------------------
 CID_81817990_JID_3051_Energie_kation
 ------------------------------------
 Structure from the checkpoint file:  "JID_3051.chk"
 Charge =  1 Multiplicity = 2

 SCF Done:  E(UB3LYP) =  -543.027057856     A.U. after   22 cycles
 Normal termination of Gaussian 16 at Wed Dec  9 22:51:16 2020.
 Gaussian 16:  ES64L-G16RevA.03 25-Dec-2016

 ----------------------------------------------------------------------
 # B3LYP/6-311++G(d,p) empiricaldispersion=gd3bj scf=xqc pop=npa geom=c
 heck
 ----------------------------------------------------------------------

 -----------------------------------
 CID_81817990_JID_3051_Energie_anion
 -----------------------------------
 Structure from the checkpoint file:  "JID_3051.chk"
 Charge = -1 Multiplicity = 2

                         Standard orientation:
 ---------------------------------------------------------------------
 Center     Atomic      Atomic             Coordinates (Angstroms)
 Number     Number       Type             X           Y           Z
 ---------------------------------------------------------------------
      1          6           0       -1.068219   -2.544636   -0.604511
      2          6           0       -1.475361   -1.106190   -0.941346
      3          6           0       -2.968800   -0.884737   -0.614930
      4          7           0       -0.542248   -0.102219   -0.415660
      5          6           0       -0.661837    1.226951   -1.012011
      6          6           0       -1.519803    2.223522   -0.265920
      7          6           0       -1.049890    3.351462    0.268095
      8          6           0       -0.041791   -0.102191    0.967796
      9          6           0       -1.098885   -0.274932    2.071603
     10          6           0        1.144925   -1.066738    1.196384
     11          6           0        2.246227   -0.977782    0.142326
     12          7           0        2.863126    0.347394    0.109138
     13          6           0        3.940017    0.434776   -0.868832
     14          1           0       -1.198189   -2.775140    0.456943
     15          1           0       -0.026602   -2.734209   -0.876358
     16          1           0       -1.701314   -3.238794   -1.167765
     17          1           0       -1.386281   -1.016079   -2.034129
     18          1           0       -3.169674   -0.966524    0.456605
     19          1           0       -3.309025    0.099231   -0.951365
     20          1           0       -3.579837   -1.635464   -1.130900
     21          1           0        0.341988    1.666193   -1.123578
     22          1           0       -1.050364    1.094716   -2.030106
     23          1           0       -2.572652    1.972903   -0.146525
     24          1           0       -1.686890    4.045675    0.809356
     25          1           0       -0.000433    3.626755    0.175930
     26          1           0        0.361421    0.906806    1.109963
     27          1           0       -1.548781   -1.272644    2.057733
     28          1           0       -0.633728   -0.139126    3.055017
     29          1           0       -1.896532    0.466179    1.968595
     30          1           0        1.578049   -0.827583    2.175786
     31          1           0        0.792628   -2.101658    1.253084
     32          1           0        3.035454   -1.699446    0.392261
     33          1           0        1.839946   -1.273305   -0.841626
     34          1           0        2.149292    1.029512   -0.136710
     35          1           0        3.649822    0.132259   -1.893101
     36          1           0        4.319466    1.461352   -0.908602
     37          1           0        4.766592   -0.214859   -0.556775
 ---------------------------------------------------------------------

 SCF Done:  E(UB3LYP) =  -543.276487703     A.U. after   33 cycles
 SCF Done:  E(UB3LYP) =  -543.276487703     a.u. after    1 cycles

 The electronic state is 2-A.
 Alpha  occ. eigenvalues --  -14.19932 -14.19789 -10.10360 -10.10229 -10.10138
 Alpha  occ. eigenvalues --  -10.08682 -10.08649 -10.07991 -10.07288 -10.06370
 Alpha  occ. eigenvalues --  -10.06303 -10.05843 -10.05484  -0.82535  -0.80338
 Alpha  occ. eigenvalues --   -0.69674  -0.69222  -0.65555  -0.62740  -0.58866
 Alpha  occ. eigenvalues --   -0.56825  -0.55973  -0.53040  -0.49828  -0.47077
 Alpha  occ. eigenvalues --   -0.44286  -0.40071  -0.39201  -0.37851  -0.35858
 Alpha  occ. eigenvalues --   -0.35448  -0.35040  -0.33652  -0.33345  -0.31766
 Alpha  occ. eigenvalues --   -0.31349  -0.30558  -0.29983  -0.29342  -0.28954
 Alpha  occ. eigenvalues --   -0.28126  -0.27331  -0.26525  -0.26092  -0.24778
 Alpha  occ. eigenvalues --   -0.24072  -0.23619  -0.22608  -0.21868  -0.17643
 Alpha  occ. eigenvalues --   -0.13100  -0.10539   0.04594
 Alpha virt. eigenvalues --    0.06329   0.06694   0.07297   0.08267   0.08447
 Alpha virt. eigenvalues --    0.08825   0.08958   0.09353   0.09812   0.10957
 Alpha virt. eigenvalues --    0.11050   0.11482   0.11970   0.12254   0.12653

  Beta  occ. eigenvalues --  -14.19931 -14.19778 -10.10356 -10.10212 -10.10121
  Beta  occ. eigenvalues --  -10.08652 -10.08635 -10.07979 -10.07269 -10.06364
  Beta  occ. eigenvalues --  -10.06290 -10.05816 -10.05455  -0.82521  -0.80320
  Beta  occ. eigenvalues --   -0.69648  -0.69197  -0.65526  -0.62714  -0.58812
  Beta  occ. eigenvalues --   -0.56780  -0.55919  -0.52995  -0.49781  -0.47023
  Beta  occ. eigenvalues --   -0.44249  -0.40039  -0.39169  -0.37817  -0.35817
  Beta  occ. eigenvalues --   -0.35415  -0.35003  -0.33620  -0.33311  -0.31738
  Beta  occ. eigenvalues --   -0.31319  -0.30527  -0.29955  -0.29319  -0.28919
  Beta  occ. eigenvalues --   -0.28094  -0.27297  -0.26497  -0.26068  -0.24742
  Beta  occ. eigenvalues --   -0.24037  -0.23584  -0.22582  -0.21841  -0.17617
  Beta  occ. eigenvalues --   -0.13065  -0.10514
  Beta virt. eigenvalues --    0.06620   0.07081   0.07374   0.07774   0.08484
  Beta virt. eigenvalues --    0.08890   0.09065   0.09468   0.09747   0.10229
  Beta virt. eigenvalues --    0.11215   0.11470   0.11867   0.12341   0.12521

 Mulliken charges and spin densities:
               1          2
     1  C    0.671461  -1.227794
     2  C   -0.938002   0.799419
     3  C    0.970072  -1.469323
     4  N    0.345790   0.020303
     5  C    0.528424  -0.879142
     6  C   -0.638666   0.941362
     7  C    0.546391  -1.155897
     8  C   -0.382540   0.200509
     9  C    0.230451  -0.968806
    10  C   -0.292194   0.115428
    11  C   -0.508057   0.039249
    12  N   -0.152374   0.102261
    13  C    0.513304  -0.865202
    14  H   -0.151575   0.303606
    15  H   -0.243105   0.390315
    16  H   -0.242195   0.397746
    17  H   -0.269289   0.445306
    18  H   -0.095468   0.235346
    19  H   -0.207464   0.338200
    20  H   -0.408083   0.553388
    21  H   -0.206311   0.350646
    22  H   -0.259359   0.409911
    23  H   -0.042105   0.192169
    24  H   -0.166557   0.297119
    25  H   -0.154262   0.273374
    26  H    0.134909  -0.003523
    27  H    0.143995   0.011846
    28  H    0.115769   0.011966
    29  H   -0.025187   0.182970
    30  H    0.111389   0.050817
    31  H    0.139810  -0.027231
    32  H   -0.174074   0.337873
    33  H    0.343696  -0.223845
    34  H    0.419685  -0.218817
    35  H   -0.228456   0.357120
    36  H   -0.308893   0.437407
    37  H   -0.120929   0.243928
 Sum of Mulliken charges =  -1.00000   1.00000

 Dipole moment (field-independent basis, Debye):
    X=              0.5962    Y=              0.0188    Z=              4.1357  Tot=              4.1785
 Quadrupole moment (field-independent basis, Debye-Ang):
   XX=           -158.4150   YY=           -139.4839   ZZ=           -126.8015
   XY=             -6.6360   XZ=             -1.9447   YZ=             -4.2071

 Summary of Natural Population Analysis:

                                       Natural Population
                Natural  -----------------------------------------------
    Atom  No    Charge         Core      Valence    Rydberg      Total
 -----------------------------------------------------------------------
      C    1   -0.28820      0.99964     2.28229    0.00628     3.28820
      C    2   -0.00155      0.99959     1.98784    0.01412     3.00155
      C    3   -0.29330      0.99963     2.28750    0.00617     3.29330
      N    4   -0.29288      0.99969     2.77588    0.01730     3.79288
      C    5   -0.09712      0.99957     2.08370    0.01384     3.09712
      C    6   -0.09050      0.99955     2.08117    0.00979     3.09050
      C    7   -0.19336      0.99955     2.18647    0.00734     3.19336
      C    8   -0.00556      0.99958     1.99434    0.01164     3.00556
      C    9   -0.29129      0.99964     2.28609    0.00556     3.29129
      C   10   -0.19358      0.99960     2.18560    0.00838     3.19358
      C   11   -0.08579      0.99962     2.07477    0.01141     3.08579
      N   12   -0.33978      0.99975     2.82933    0.01071     3.83978
      C   13   -0.17758      0.99967     2.16946    0.00845     3.17758
      H   14    0.09406      0.00000     0.40484    0.00110     0.40594
      H   15    0.10263      0.00000     0.39606    0.00131     0.39737
      H   16    0.10341      0.00000     0.39554    0.00105     0.39659
      H   17    0.09243      0.00000     0.40559    0.00199     0.40757
      H   18    0.09644      0.00000     0.40226    0.00130     0.40356
      H   19    0.09681      0.00000     0.40146    0.00173     0.40319
      H   20    0.10061      0.00000     0.39801    0.00138     0.39939
      H   21    0.08707      0.00000     0.41087    0.00206     0.41293
      H   22    0.10398      0.00000     0.39422    0.00180     0.39602
      H   23    0.09359      0.00000     0.40503    0.00137     0.40641
      H   24    0.09420      0.00000     0.40479    0.00101     0.40580
      H   25    0.09005      0.00000     0.40862    0.00134     0.40995
      H   26    0.09614      0.00000     0.40122    0.00264     0.40386
      H   27    0.09600      0.00000     0.40308    0.00092     0.40400
      H   28    0.09759      0.00000     0.40166    0.00076     0.40241
      H   29    0.10329      0.00000     0.39578    0.00093     0.39671
      H   30    0.09792      0.00000     0.40089    0.00119     0.40208
      H   31    0.09816      0.00000     0.40074    0.00110     0.40184
      H   32    0.08894      0.00000     0.40989    0.00117     0.41106
      H   33    0.08502      0.00000     0.41325    0.00173     0.41498
      H   34    0.16881      0.00000     0.32627    0.00492     0.33119
      H   35    0.08037      0.00000     0.41810    0.00153     0.41963
      H   36    0.09395      0.00000     0.40501    0.00104     0.40605
      H   37    0.08906      0.00000     0.40963    0.00131     0.41094
 =======================================================================
   * Total *    0.00000     12.99507    38.83725    0.16768    52.00000

 Normal termination of Gaussian 16 at Wed Dec  9 23:06:17 2020.
