 Gaussian 16, Revision A.03,

 -----------------------------------------------------------
 # opt freq B3LYP/6-31G(d) empiricaldispersion=gd3bj scf=xqc
 -----------------------------------------------------------

 -------------------------------
 CID_126986004_JID_3673_neutraal
 -------------------------------
 Symbolic Z-matrix:
 Charge =  0 Multiplicity = 1

 SCF Done:  E(RB3LYP) =  -633.598877740     A.U. after   15 cycles
 SCF Done:  E(RB3LYP) =  -633.602148311     A.U. after   12 cycles
 SCF Done:  E(RB3LYP) =  -633.602444399     A.U. after   12 cycles
 SCF Done:  E(RB3LYP) =  -633.602886240     A.U. after   12 cycles
 SCF Done:  E(RB3LYP) =  -633.603032548     A.U. after   11 cycles
 SCF Done:  E(RB3LYP) =  -633.603389743     A.U. after   11 cycles
 SCF Done:  E(RB3LYP) =  -633.603523471     A.U. after   11 cycles
 SCF Done:  E(RB3LYP) =  -633.603552900     A.U. after   10 cycles
 SCF Done:  E(RB3LYP) =  -633.603564345     A.U. after    9 cycles
 SCF Done:  E(RB3LYP) =  -633.603568398     A.U. after    8 cycles
 SCF Done:  E(RB3LYP) =  -633.603569076     A.U. after    8 cycles
 SCF Done:  E(RB3LYP) =  -633.603569368     A.U. after    7 cycles
 SCF Done:  E(RB3LYP) =  -633.603569403     A.U. after    6 cycles
 Optimization completed.
    -- Stationary point found.
 Normal termination of Gaussian 16 at Sun Dec 13 20:01:12 2020.

 --------------------------------------------------------------------
 #N Geom=AllCheck Guess=TCheck SCRF=Check GenChk RB3LYP/6-31G(d) Freq
 --------------------------------------------------------------------

 Structure from the checkpoint file:  "JID_3673.chk"
 -------------------------------
 CID_126986004_JID_3673_neutraal
 -------------------------------
 Charge =  0 Multiplicity = 1

 SCF Done:  E(RB3LYP) =  -633.603569403     A.U. after    1 cycles

  Exact polarizability: 120.007  10.544 109.138   1.877  -2.480  96.405
 Approx polarizability: 148.227  16.592 165.018   1.868  -8.579 145.507

                      1                      2                      3
                      A                      A                      A
 Frequencies --     34.5151                73.0696                95.3314
 Red. masses --      3.9911                 3.5543                 4.2615
 Frc consts  --      0.0028                 0.0112                 0.0228
 IR Inten    --      0.7712                 0.8422                 0.0409

                      4                      5                      6
                      A                      A                      A
 Frequencies --    124.8401               134.8140               168.1074
 Red. masses --      4.1908                 2.8709                 1.7015
 Frc consts  --      0.0385                 0.0307                 0.0283
 IR Inten    --      0.8815                 2.9587                 0.9941

                      7                      8                      9
                      A                      A                      A
 Frequencies --    184.6877               204.0542               227.5466
 Red. masses --      3.0780                 2.7787                 1.4087
 Frc consts  --      0.0619                 0.0682                 0.0430
 IR Inten    --      1.4817                 2.3516                 2.3165

                     10                     11                     12
                      A                      A                      A
 Frequencies --    243.6471               278.3001               286.7224
 Red. masses --      1.7854                 1.6344                 2.7926
 Frc consts  --      0.0624                 0.0746                 0.1353
 IR Inten    --      0.8148                 2.3433                 1.8045

                     13                     14                     15
                      A                      A                      A
 Frequencies --    359.1074               369.1518               405.1524
 Red. masses --      4.0420                 2.3635                 3.5004
 Frc consts  --      0.3071                 0.1898                 0.3385
 IR Inten    --      1.6841                 3.7806                10.2035

                     16                     17                     18
                      A                      A                      A
 Frequencies --    451.5800               478.6088               491.6616
 Red. masses --      3.1294                 2.5549                 2.8830
 Frc consts  --      0.3760                 0.3448                 0.4106
 IR Inten    --      2.9865                 1.9196                 3.9275

                     19                     20                     21
                      A                      A                      A
 Frequencies --    534.1718               569.0075               597.9333
 Red. masses --      3.8045                 2.6492                 2.5681
 Frc consts  --      0.6396                 0.5054                 0.5410
 IR Inten    --     37.6484                61.2061                 1.0563

                     22                     23                     24
                      A                      A                      A
 Frequencies --    693.0046               769.2976               792.2659
 Red. masses --      3.1270                 2.5005                 2.9280
 Frc consts  --      0.8848                 0.8719                 1.0828
 IR Inten    --     46.1824                21.4849               101.8828

                     25                     26                     27
                      A                      A                      A
 Frequencies --    827.9564               840.6257               883.9150
 Red. masses --      1.5524                 2.7146                 2.6054
 Frc consts  --      0.6270                 1.1302                 1.1994
 IR Inten    --      0.7612                 6.1992                13.4543

                     28                     29                     30
                      A                      A                      A
 Frequencies --    924.3418               961.4053              1004.9858
 Red. masses --      2.0490                 2.2763                 3.8964
 Frc consts  --      1.0314                 1.2396                 2.3186
 IR Inten    --      1.5752                 6.0732                48.8288

                     31                     32                     33
                      A                      A                      A
 Frequencies --   1009.7981              1026.5965              1038.6779
 Red. masses --      1.3755                 1.9472                 1.8143
 Frc consts  --      0.8264                 1.2091                 1.1532
 IR Inten    --      7.7391                 6.6633                13.5251

                     34                     35                     36
                      A                      A                      A
 Frequencies --   1058.4389              1086.8109              1121.5759
 Red. masses --      1.7498                 2.5480                 2.2872
 Frc consts  --      1.1550                 1.7732                 1.6952
 IR Inten    --     11.1067                13.5594                36.0878

                     37                     38                     39
                      A                      A                      A
 Frequencies --   1124.1348              1142.0982              1159.5783
 Red. masses --      4.9145                 3.2881                 2.6863
 Frc consts  --      3.6591                 2.5270                 2.1281
 IR Inten    --      5.7109                53.0987                11.1841

                     40                     41                     42
                      A                      A                      A
 Frequencies --   1188.3755              1193.4881              1215.8013
 Red. masses --      1.2829                 2.1924                 1.4334
 Frc consts  --      1.0675                 1.8400                 1.2484
 IR Inten    --      4.0694                23.0187                 7.1095

                     43                     44                     45
                      A                      A                      A
 Frequencies --   1224.9958              1273.7272              1288.3922
 Red. masses --      1.5511                 1.4528                 1.4010
 Frc consts  --      1.3714                 1.3887                 1.3702
 IR Inten    --      5.4341                28.7405                12.4593

                     46                     47                     48
                      A                      A                      A
 Frequencies --   1313.1781              1327.2198              1345.0711
 Red. masses --      1.2782                 1.2349                 1.3347
 Frc consts  --      1.2986                 1.2817                 1.4227
 IR Inten    --      5.2234                 2.9713                18.2569

                     49                     50                     51
                      A                      A                      A
 Frequencies --   1364.0857              1374.6290              1385.4668
 Red. masses --      1.3852                 1.7633                 1.5337
 Frc consts  --      1.5186                 1.9632                 1.7345
 IR Inten    --     14.1990                64.1503                20.9159

                     52                     53                     54
                      A                      A                      A
 Frequencies --   1402.5525              1412.0603              1424.6800
 Red. masses --      1.2444                 1.4489                 1.4857
 Frc consts  --      1.4423                 1.7022                 1.7767
 IR Inten    --     10.3901                 0.4132                 9.5981

                     55                     56                     57
                      A                      A                      A
 Frequencies --   1437.3245              1441.8482              1446.2922
 Red. masses --      1.2665                 1.3165                 1.3216
 Frc consts  --      1.5416                 1.6125                 1.6288
 IR Inten    --      4.9095                10.2893                20.9450

                     58                     59                     60
                      A                      A                      A
 Frequencies --   1486.4467              1494.8872              1506.8627
 Red. masses --      1.1501                 1.0956                 1.0567
 Frc consts  --      1.4972                 1.4425                 1.4137
 IR Inten    --      4.0145                 0.9432                 3.2043

                     61                     62                     63
                      A                      A                      A
 Frequencies --   1513.8026              1522.2347              1525.7631
 Red. masses --      1.0984                 1.0831                 1.0470
 Frc consts  --      1.4830                 1.4787                 1.4360
 IR Inten    --      6.1312                 0.0958                 4.0190

                     64                     65                     66
                      A                      A                      A
 Frequencies --   1531.0616              1533.9801              1547.4076
 Red. masses --      1.0583                 1.1042                 1.0528
 Frc consts  --      1.4616                 1.5308                 1.4852
 IR Inten    --      9.5266                 1.2668                17.3439

                     67                     68                     69
                      A                      A                      A
 Frequencies --   1771.0884              2959.4235              2966.5084
 Red. masses --      8.9402                 1.0726                 1.0729
 Frc consts  --     16.5226                 5.5350                 5.5628
 IR Inten    --    207.5918                20.6878                99.0351

                     70                     71                     72
                      A                      A                      A
 Frequencies --   2993.3996              3041.2299              3051.6711
 Red. masses --      1.0822                 1.0331                 1.0719
 Frc consts  --      5.7131                 5.6300                 5.8813
 IR Inten    --     45.4981                56.1780                 5.1072

                     73                     74                     75
                      A                      A                      A
 Frequencies --   3055.3638              3060.6022              3062.5190
 Red. masses --      1.0713                 1.0567                 1.0499
 Frc consts  --      5.8922                 5.8321                 5.8018
 IR Inten    --     34.7510                17.1528                26.5956

                     76                     77                     78
                      A                      A                      A
 Frequencies --   3104.2968              3106.7390              3107.6019
 Red. masses --      1.0909                 1.0939                 1.1013
 Frc consts  --      6.1937                 6.2206                 6.2663
 IR Inten    --     71.2979                24.0568                11.0504

                     79                     80                     81
                      A                      A                      A
 Frequencies --   3112.3633              3115.5028              3117.8157
 Red. masses --      1.1036                 1.0977                 1.1017
 Frc consts  --      6.2987                 6.2774                 6.3096
 IR Inten    --     46.2435                41.4575                21.9245

                     82                     83                     84
                      A                      A                      A
 Frequencies --   3155.3682              3165.3543              3508.1565
 Red. masses --      1.1048                 1.0977                 1.0767
 Frc consts  --      6.4808                 6.4800                 7.8073
 IR Inten    --     19.1675                18.2411                 9.7076

 - Thermochemistry -
 -------------------
 Temperature   298.150 Kelvin.  Pressure   1.00000 Atm.
 Atom     1 has atomic number  6 and mass  12.00000

 Molecular mass:   187.12084 amu.
 Principal axes and moments of inertia in atomic units:
                           1         2         3
     Eigenvalues --  1427.283363589.717134001.67439
           X            0.99974   0.02296  -0.00121
           Y           -0.02293   0.99956   0.01855
           Z            0.00164  -0.01852   0.99983
 This molecule is an asymmetric top.
 Rotational symmetry number  1.
 Warning -- assumption of classical behavior for rotation
           may cause significant error
 Rotational temperatures (Kelvin)      0.06068     0.02413     0.02164
 Rotational constants (GHZ):           1.26446     0.50275     0.45100
 Zero-point vibrational energy     693559.9 (Joules/Mol)
                                  165.76479 (Kcal/Mol)
 Warning -- explicit consideration of  21 degrees of freedom as
           vibrations may cause significant error
 Vibrational temperatures:     49.66   105.13   137.16   179.62   193.97
          (Kelvin)            241.87   265.72   293.59   327.39   350.55
                              400.41   412.53   516.68   531.13   582.92
                              649.72   688.61   707.39   768.55   818.67
                              860.29   997.08  1106.85  1139.89  1191.24
                             1209.47  1271.76  1329.92  1383.25  1445.95
                             1452.87  1477.04  1494.43  1522.86  1563.68
                             1613.70  1617.38  1643.22  1668.37  1709.81
                             1717.16  1749.27  1762.50  1832.61  1853.71
                             1889.37  1909.57  1935.26  1962.62  1977.78
                             1993.38  2017.96  2031.64  2049.80  2067.99
                             2074.50  2080.89  2138.67  2150.81  2168.04
                             2178.02  2190.16  2195.23  2202.86  2207.06
                             2226.37  2548.20  4257.95  4268.14  4306.83
                             4375.65  4390.67  4395.99  4403.52  4406.28
                             4466.39  4469.90  4471.15  4478.00  4482.51
                             4485.84  4539.87  4554.24  5047.45

 Zero-point correction=                           0.264163 (Hartree/Particle)
 Thermal correction to Energy=                    0.277750
 Thermal correction to Enthalpy=                  0.278694
 Thermal correction to Gibbs Free Energy=         0.223944
 Sum of electronic and zero-point Energies=           -633.339406
 Sum of electronic and thermal Energies=              -633.325820
 Sum of electronic and thermal Enthalpies=            -633.324876
 Sum of electronic and thermal Free Energies=         -633.379625

                     E (Thermal)             CV                S
                      KCal/Mol        Cal/Mol-Kelvin    Cal/Mol-Kelvin
 Total                  174.291             51.015            115.230
 Electronic               0.000              0.000              0.000
 Translational            0.889              2.981             41.586
 Rotational               0.889              2.981             31.395
 Vibrational            172.513             45.054             42.249
 Vibration     1          0.594              1.983              5.551
 Vibration     2          0.599              1.967              4.069
 Vibration     3          0.603              1.953              3.548
 Vibration     4          0.610              1.928              3.024
 Vibration     5          0.613              1.919              2.876
 Vibration     6          0.625              1.882              2.457
 Vibration     7          0.631              1.861              2.280
 Vibration     8          0.640              1.834              2.096
 Vibration     9          0.651              1.799              1.898
 Vibration    10          0.659              1.773              1.776
 Vibration    11          0.679              1.714              1.544
 Vibration    12          0.684              1.698              1.493
 Vibration    13          0.734              1.557              1.126
 Vibration    14          0.741              1.536              1.083
 Vibration    15          0.770              1.459              0.944
 Vibration    16          0.810              1.357              0.791
 Vibration    17          0.835              1.298              0.714
 Vibration    18          0.847              1.269              0.679
 Vibration    19          0.889              1.174              0.578
 Vibration    20          0.925              1.098              0.506
 Vibration    21          0.956              1.036              0.453

 Optimization completed.
    -- Stationary point found.
 Normal termination of Gaussian 16 at Sun Dec 13 20:09:23 2020.

 ----------------------------------------------------------------------
 # B3LYP/6-311++G(d,p) empiricaldispersion=gd3bj scf=xqc pop=npa geom=c
 heck
 ----------------------------------------------------------------------

 ---------------------------------------
 CID_126986004_JID_3673_Energie_neutraal
 ---------------------------------------
 Structure from the checkpoint file:  "JID_3673.chk"
 Charge =  0 Multiplicity = 1

 SCF Done:  E(RB3LYP) =  -633.791774254     A.U. after   15 cycles
 Normal termination of Gaussian 16 at Sun Dec 13 20:13:13 2020.

 ----------------------------------------------------------------------
 # B3LYP/6-311++G(d,p) empiricaldispersion=gd3bj scf=xqc pop=npa geom=c
 heck
 ----------------------------------------------------------------------

 -------------------------------------
 CID_126986004_JID_3673_Energie_kation
 -------------------------------------
 Structure from the checkpoint file:  "JID_3673.chk"
 Charge =  1 Multiplicity = 2

 SCF Done:  E(UB3LYP) =  -633.466902150     A.U. after   27 cycles
 Normal termination of Gaussian 16 at Sun Dec 13 20:23:01 2020.
 Gaussian 16:  ES64L-G16RevA.03 25-Dec-2016

 ----------------------------------------------------------------------
 # B3LYP/6-311++G(d,p) empiricaldispersion=gd3bj scf=xqc pop=npa geom=c
 heck
 ----------------------------------------------------------------------

 ------------------------------------
 CID_126986004_JID_3673_Energie_anion
 ------------------------------------
 Structure from the checkpoint file:  "JID_3673.chk"
 Charge = -1 Multiplicity = 2

                         Standard orientation:
 ---------------------------------------------------------------------
 Center     Atomic      Atomic             Coordinates (Angstroms)
 Number     Number       Type             X           Y           Z
 ---------------------------------------------------------------------
      1          6           0       -1.369451    0.143862    1.987428
      2          6           0       -0.504018    0.878976    0.955673
      3          6           0        0.882022    0.203071    0.756834
      4          6           0        1.907478    1.130602    0.084578
      5          6           0        3.254570    0.421088   -0.056596
      6          8           0        3.140171   -0.796877   -0.780081
      7          6           0        2.255634   -1.702703   -0.138524
      8          6           0        0.843543   -1.129270   -0.009235
      9          6           0       -1.162834    1.196702   -0.384010
     10          8           0       -0.865921    2.197259   -1.022916
     11          7           0       -2.182982    0.396798   -0.888682
     12          8           0       -2.198115   -0.979407   -0.590732
     13          6           0       -3.515445   -1.366224   -0.200890
     14          1           0       -1.482949   -0.915867    1.755789
     15          1           0       -2.368078    0.588036    2.057490
     16          1           0       -0.899750    0.227589    2.973662
     17          1           0       -0.294387    1.880370    1.350961
     18          1           0        1.249850   -0.011239    1.773330
     19          1           0        1.547800    1.428535   -0.905486
     20          1           0        2.033492    2.050487    0.670185
     21          1           0        3.969306    1.036592   -0.610679
     22          1           0        3.680652    0.220679    0.943330
     23          1           0        2.646257   -1.962705    0.862329
     24          1           0        2.257551   -2.611672   -0.747559
     25          1           0        0.193292   -1.857928    0.486379
     26          1           0        0.437519   -0.969384   -1.015179
     27          1           0       -2.326283    0.551263   -1.885565
     28          1           0       -3.446789   -2.435068    0.016315
     29          1           0       -3.842703   -0.819504    0.689419
     30          1           0       -4.231983   -1.202192   -1.015665
 ---------------------------------------------------------------------

 SCF Done:  E(UB3LYP) =  -633.779758091     A.U. after   30 cycles

 The electronic state is 2-A.
 Alpha  occ. eigenvalues --  -19.07598 -19.02994 -19.00237 -14.28438 -10.18110
 Alpha  occ. eigenvalues --  -10.12211 -10.11944 -10.11399 -10.08926 -10.08498
 Alpha  occ. eigenvalues --  -10.06853 -10.06656 -10.06027  -1.00371  -0.94519
 Alpha  occ. eigenvalues --   -0.94457  -0.76516  -0.73056  -0.66953  -0.66237
 Alpha  occ. eigenvalues --   -0.58618  -0.56592  -0.54326  -0.53592  -0.48951
 Alpha  occ. eigenvalues --   -0.46552  -0.43717  -0.40481  -0.38590  -0.38040
 Alpha  occ. eigenvalues --   -0.36836  -0.35929  -0.35815  -0.34573  -0.33751
 Alpha  occ. eigenvalues --   -0.33076  -0.31600  -0.29904  -0.29642  -0.28652
 Alpha  occ. eigenvalues --   -0.27563  -0.26454  -0.25912  -0.24836  -0.24094
 Alpha  occ. eigenvalues --   -0.21882  -0.20905  -0.20747  -0.16981  -0.16327
 Alpha  occ. eigenvalues --   -0.16076   0.04361
 Alpha virt. eigenvalues --    0.06354   0.07668   0.07775   0.08527   0.08864
 Alpha virt. eigenvalues --    0.09023   0.09689   0.10390   0.11066   0.11275
 Alpha virt. eigenvalues --    0.11948   0.12128   0.13104   0.13604   0.14174

  Beta  occ. eigenvalues --  -19.07591 -19.02989 -19.00218 -14.28434 -10.18084
  Beta  occ. eigenvalues --  -10.12200 -10.11932 -10.11326 -10.08920 -10.08485
  Beta  occ. eigenvalues --  -10.06848 -10.06644 -10.05989  -1.00356  -0.94501
  Beta  occ. eigenvalues --   -0.94428  -0.76485  -0.73030  -0.66934  -0.66204
  Beta  occ. eigenvalues --   -0.58494  -0.56530  -0.54297  -0.53541  -0.48912
  Beta  occ. eigenvalues --   -0.46515  -0.43664  -0.40446  -0.38542  -0.38006
  Beta  occ. eigenvalues --   -0.36786  -0.35896  -0.35769  -0.34529  -0.33715
  Beta  occ. eigenvalues --   -0.33039  -0.31577  -0.29856  -0.29571  -0.28605
  Beta  occ. eigenvalues --   -0.27507  -0.26420  -0.25885  -0.24800  -0.24064
  Beta  occ. eigenvalues --   -0.21857  -0.20881  -0.20719  -0.16961  -0.16298
  Beta  occ. eigenvalues --   -0.16032
  Beta virt. eigenvalues --    0.06661   0.07464   0.08098   0.08234   0.08811
  Beta virt. eigenvalues --    0.09368   0.09578   0.10389   0.10731   0.11375
  Beta virt. eigenvalues --    0.11840   0.12393   0.12422   0.13419   0.13710

 Mulliken charges and spin densities:
               1          2
     1  C    1.002979  -1.852670
     2  C   -0.305417   0.988387
     3  C    0.279942  -0.123453
     4  C   -0.398994   0.105427
     5  C   -0.168582  -0.336848
     6  O   -0.141616   0.032507
     7  C    0.110635  -0.866987
     8  C   -0.396350   0.189696
     9  C    0.257601  -0.535682
    10  O   -0.306031   0.022924
    11  N   -0.705844   0.281528
    12  O    0.047608   0.035228
    13  C    1.621459  -1.870425
    14  H   -0.048800   0.227763
    15  H   -0.059450   0.216322
    16  H   -0.523748   0.658693
    17  H    0.027795   0.238195
    18  H   -0.042276   0.245484
    19  H    0.236463  -0.044649
    20  H   -0.047190   0.178257
    21  H    0.106372   0.073909
    22  H   -0.105992   0.224422
    23  H   -0.093259   0.226533
    24  H    0.023257   0.160397
    25  H    0.013084   0.164460
    26  H    0.106647   0.110401
    27  H    0.208720   0.097011
    28  H   -0.614863   0.770704
    29  H   -0.424357   0.581117
    30  H   -0.659793   0.801347
 Sum of Mulliken charges =  -1.00000   1.00000

 Dipole moment (field-independent basis, Debye):
    X=              5.6727    Y=              2.3289    Z=             -2.0513  Tot=              6.4661
 Quadrupole moment (field-independent basis, Debye-Ang):
   XX=           -152.8845   YY=           -124.2136   ZZ=           -119.7921
   XY=             -8.6408   XZ=              0.1878   YZ=              2.1251

 Summary of Natural Population Analysis:

                                       Natural Population
                Natural  -----------------------------------------------
    Atom  No    Charge         Core      Valence    Rydberg      Total
 -----------------------------------------------------------------------
      C    1   -0.28558      0.99965     2.27935    0.00658     3.28558
      C    2   -0.14739      0.99954     2.13570    0.01215     3.14739
      C    3   -0.10384      0.99957     2.09166    0.01261     3.10384
      C    4   -0.20606      0.99961     2.19727    0.00919     3.20606
      C    5   -0.00834      0.99958     1.99591    0.01284     3.00834
      O    6   -0.30088      0.99989     3.29236    0.00863     4.30088
      C    7   -0.00796      0.99958     1.99527    0.01311     3.00796
      C    8   -0.20695      0.99960     2.19783    0.00952     3.20695
      C    9    0.34790      0.99964     1.62819    0.02426     2.65210
      O   10   -0.31402      0.99988     3.30868    0.00546     4.31402
      N   11   -0.17010      0.99963     2.65724    0.01323     3.67010
      O   12   -0.21688      0.99990     3.20595    0.01103     4.21688
      C   13   -0.09636      0.99962     2.08715    0.00960     3.09636
      H   14    0.10564      0.00000     0.39251    0.00186     0.39436
      H   15    0.10234      0.00000     0.39621    0.00145     0.39766
      H   16    0.10152      0.00000     0.39709    0.00138     0.39848
      H   17    0.11067      0.00000     0.38756    0.00177     0.38933
      H   18    0.09756      0.00000     0.39975    0.00269     0.40244
      H   19    0.10675      0.00000     0.39194    0.00131     0.39325
      H   20    0.10143      0.00000     0.39758    0.00099     0.39857
      H   21    0.08870      0.00000     0.41035    0.00095     0.41130
      H   22    0.07523      0.00000     0.42344    0.00133     0.42477
      H   23    0.07559      0.00000     0.42303    0.00138     0.42441
      H   24    0.09043      0.00000     0.40846    0.00111     0.40957
      H   25    0.10875      0.00000     0.38954    0.00171     0.39125
      H   26    0.09928      0.00000     0.39885    0.00187     0.40072
      H   27    0.18473      0.00000     0.31296    0.00231     0.31527
      H   28    0.09569      0.00000     0.40118    0.00313     0.40431
      H   29    0.08754      0.00000     0.40994    0.00253     0.41246
      H   30    0.08460      0.00000     0.41217    0.00322     0.41540
 =======================================================================
   * Total *    0.00000     12.99567    37.82514    0.17919    51.00000

 Normal termination of Gaussian 16 at Sun Dec 13 20:33:57 2020.
