 Gaussian 16, Revision A.03,

 -----------------------------------------------------------
 # opt freq B3LYP/6-31G(d) empiricaldispersion=gd3bj scf=xqc
 -----------------------------------------------------------

 -------------------------------
 CID_152537338_JID_3896_neutraal
 -------------------------------
 Symbolic Z-matrix:
 Charge =  0 Multiplicity = 1

 SCF Done:  E(RB3LYP) =  -1044.36294343     A.U. after   15 cycles
 SCF Done:  E(RB3LYP) =  -1044.37248356     A.U. after   13 cycles
 SCF Done:  E(RB3LYP) =  -1044.37392675     A.U. after   13 cycles
 SCF Done:  E(RB3LYP) =  -1044.37321504     A.U. after   13 cycles
 SCF Done:  E(RB3LYP) =  -1044.37518013     A.U. after   12 cycles
 SCF Done:  E(RB3LYP) =  -1044.37547262     A.U. after   12 cycles
 SCF Done:  E(RB3LYP) =  -1044.37565452     A.U. after   12 cycles
 SCF Done:  E(RB3LYP) =  -1044.37574194     A.U. after   11 cycles
 SCF Done:  E(RB3LYP) =  -1044.37578784     A.U. after   11 cycles
 SCF Done:  E(RB3LYP) =  -1044.37581791     A.U. after   10 cycles
 SCF Done:  E(RB3LYP) =  -1044.37628597     A.U. after   11 cycles
 SCF Done:  E(RB3LYP) =  -1044.37631686     A.U. after   11 cycles
 SCF Done:  E(RB3LYP) =  -1044.37631755     A.U. after    9 cycles
 SCF Done:  E(RB3LYP) =  -1044.37631753     A.U. after    9 cycles
 SCF Done:  E(RB3LYP) =  -1044.37631774     A.U. after    9 cycles
 Optimization completed.
    -- Stationary point found.
 Normal termination of Gaussian 16 at Sun Dec 13 16:05:32 2020.

 --------------------------------------------------------------------
 #N Geom=AllCheck Guess=TCheck SCRF=Check GenChk RB3LYP/6-31G(d) Freq
 --------------------------------------------------------------------

 Structure from the checkpoint file:  "JID_3896.chk"
 -------------------------------
 CID_152537338_JID_3896_neutraal
 -------------------------------
 Charge =  0 Multiplicity = 1

 SCF Done:  E(RB3LYP) =  -1044.37631774     A.U. after    1 cycles

  Exact polarizability: 121.097  -4.638 115.742   3.983  -4.906  76.673
 Approx polarizability: 165.925 -21.882 179.951   9.458 -10.711 127.605

                      1                      2                      3
                      A                      A                      A
 Frequencies --     30.5946                54.0513                87.9970
 Red. masses --      4.5261                 8.8356                 5.4117
 Frc consts  --      0.0025                 0.0152                 0.0247
 IR Inten    --      2.2258                 7.4595                 5.0945

                      4                      5                      6
                      A                      A                      A
 Frequencies --     90.5346                99.9737               139.3230
 Red. masses --      5.8643                 2.1773                 3.1880
 Frc consts  --      0.0283                 0.0128                 0.0365
 IR Inten    --      1.1284                 2.3843                 1.4315

                      7                      8                      9
                      A                      A                      A
 Frequencies --    161.3798               181.0682               215.4845
 Red. masses --      3.8337                 3.2071                 2.1273
 Frc consts  --      0.0588                 0.0620                 0.0582
 IR Inten    --      1.2664                 1.7426                 7.1147

                     10                     11                     12
                      A                      A                      A
 Frequencies --    252.4091               264.7235               287.7429
 Red. masses --      6.8877                 1.4304                 3.3545
 Frc consts  --      0.2585                 0.0591                 0.1636
 IR Inten    --      4.0999                 3.6432                 6.1988

                     13                     14                     15
                      A                      A                      A
 Frequencies --    312.0519               326.3576               386.5649
 Red. masses --      3.6671                 3.4277                 2.5992
 Frc consts  --      0.2104                 0.2151                 0.2288
 IR Inten    --      1.3266                15.9489                20.1478

                     16                     17                     18
                      A                      A                      A
 Frequencies --    389.0891               432.7242               442.5149
 Red. masses --      3.6212                 2.4999                 2.9908
 Frc consts  --      0.3230                 0.2758                 0.3451
 IR Inten    --     16.7645                 6.1375                14.1683

                     19                     20                     21
                      A                      A                      A
 Frequencies --    487.5343               496.8645               567.8595
 Red. masses --      3.2226                 4.6051                 3.3621
 Frc consts  --      0.4513                 0.6698                 0.6388
 IR Inten    --     38.5040                14.3211               149.4103

                     22                     23                     24
                      A                      A                      A
 Frequencies --    603.5374               610.3889               660.4673
 Red. masses --      2.7407                 2.1325                 2.8335
 Frc consts  --      0.5882                 0.4681                 0.7282
 IR Inten    --     21.6923                45.5466                24.4167

                     25                     26                     27
                      A                      A                      A
 Frequencies --    739.7986               757.6624               782.3548
 Red. masses --      3.0655                 1.7324                 1.8017
 Frc consts  --      0.9885                 0.5859                 0.6497
 IR Inten    --     64.0047                83.1029                 2.7111

                     28                     29                     30
                      A                      A                      A
 Frequencies --    806.5849               823.5581               860.2319
 Red. masses --      2.6820                 3.9027                 2.3737
 Frc consts  --      1.0280                 1.5595                 1.0349
 IR Inten    --    100.3076                98.0555                 1.8303

                     31                     32                     33
                      A                      A                      A
 Frequencies --    948.2435               978.7532              1022.3806
 Red. masses --      1.9400                 1.3727                 1.5274
 Frc consts  --      1.0277                 0.7748                 0.9407
 IR Inten    --      5.3373                28.0793                22.5821

                     34                     35                     36
                      A                      A                      A
 Frequencies --   1033.0083              1070.4013              1072.2792
 Red. masses --      1.1721                 1.9458                 1.8583
 Frc consts  --      0.7369                 1.3136                 1.2588
 IR Inten    --     18.5382                17.6527                 6.2599

                     37                     38                     39
                      A                      A                      A
 Frequencies --   1133.2286              1139.7136              1160.0852
 Red. masses --      2.2885                 5.8385                 3.3523
 Frc consts  --      1.7316                 4.4683                 2.6581
 IR Inten    --      3.7550               182.8518                17.9538

                     40                     41                     42
                      A                      A                      A
 Frequencies --   1201.5463              1207.6465              1277.6197
 Red. masses --      2.1138                 1.4266                 1.3712
 Frc consts  --      1.7980                 1.2259                 1.3187
 IR Inten    --     18.8140               142.0964                 6.1190

                     43                     44                     45
                      A                      A                      A
 Frequencies --   1305.5120              1320.1381              1359.9792
 Red. masses --      1.2697                 1.3179                 2.0093
 Frc consts  --      1.2750                 1.3532                 2.1896
 IR Inten    --     19.7248                 1.0104                32.1881

                     46                     47                     48
                      A                      A                      A
 Frequencies --   1369.3483              1378.7775              1403.6517
 Red. masses --      4.0383                 1.9298                 1.3787
 Frc consts  --      4.4615                 2.1615                 1.6005
 IR Inten    --    327.9842                34.1668                 2.7384

                     49                     50                     51
                      A                      A                      A
 Frequencies --   1437.4799              1449.1658              1469.2399
 Red. masses --      1.3921                 1.2349                 1.2990
 Frc consts  --      1.6949                 1.5279                 1.6521
 IR Inten    --      7.7063                 2.2501                24.8099

                     52                     53                     54
                      A                      A                      A
 Frequencies --   1516.8512              1530.0152              1531.9261
 Red. masses --      1.0652                 1.0609                 1.0759
 Frc consts  --      1.4441                 1.4632                 1.4876
 IR Inten    --      1.9007                 9.8170                14.4000

                     55                     56                     57
                      A                      A                      A
 Frequencies --   1557.8459              1702.2305              1784.0675
 Red. masses --      1.1946                 4.4065                 8.5475
 Frc consts  --      1.7081                 7.5228                16.0291
 IR Inten    --      8.3503                33.7207               343.7904

                     58                     59                     60
                      A                      A                      A
 Frequencies --   3055.3225              3061.0507              3079.8844
 Red. masses --      1.0371                 1.0838                 1.0634
 Frc consts  --      5.7040                 5.9834                 5.9431
 IR Inten    --     17.6671                 4.9289                 8.2129

                     61                     62                     63
                      A                      A                      A
 Frequencies --   3111.7972              3132.2547              3134.8518
 Red. masses --      1.1015                 1.1013                 1.1027
 Frc consts  --      6.2842                 6.3661                 6.3848
 IR Inten    --      9.8943                26.7502                19.9413

                     64                     65                     66
                      A                      A                      A
 Frequencies --   3171.9551              3203.1288              3254.6845
 Red. masses --      1.0583                 1.0928                 1.1163
 Frc consts  --      6.2733                 6.6063                 6.9668
 IR Inten    --      4.4633                 1.2056                 9.1565

                     67                     68                     69
                      A                      A                      A
 Frequencies --   3528.4296              3578.1408              3594.2224
 Red. masses --      1.0743                 1.0774                 1.0643
 Frc consts  --      7.8805                 8.1274                 8.1010
 IR Inten    --     14.7771                70.0600                84.5259

 - Thermochemistry -
 -------------------
 Temperature   298.150 Kelvin.  Pressure   1.00000 Atm.
 Atom     1 has atomic number  6 and mass  12.00000

 Molecular mass:   208.05178 amu.
 Principal axes and moments of inertia in atomic units:
                           1         2         3
     Eigenvalues --  1725.868713771.112504969.59411
           X            0.99989   0.01445  -0.00397
           Y           -0.01448   0.99987  -0.00773
           Z            0.00386   0.00779   0.99996
 This molecule is an asymmetric top.
 Rotational symmetry number  1.
 Warning -- assumption of classical behavior for rotation
           may cause significant error
 Rotational temperatures (Kelvin)      0.05019     0.02297     0.01743
 Rotational constants (GHZ):           1.04570     0.47857     0.36316
 Zero-point vibrational energy     518092.4 (Joules/Mol)
                                  123.82705 (Kcal/Mol)
 Warning -- explicit consideration of  23 degrees of freedom as
           vibrations may cause significant error
 Vibrational temperatures:     44.02    77.77   126.61   130.26   143.84
          (Kelvin)            200.45   232.19   260.52   310.03   363.16
                              380.88   414.00   448.97   469.56   556.18
                              559.81   622.59   636.68   701.45   714.88
                              817.02   868.36   878.21   950.27  1064.41
                             1090.11  1125.63  1160.50  1184.92  1237.68
                             1364.31  1408.21  1470.98  1486.27  1540.07
                             1542.77  1630.46  1639.79  1669.10  1728.76
                             1737.53  1838.21  1878.34  1899.38  1956.71
                             1970.19  1983.75  2019.54  2068.21  2085.03
                             2113.91  2182.41  2201.35  2204.10  2241.39
                             2449.13  2566.88  4395.93  4404.17  4431.27
                             4477.18  4506.62  4510.35  4563.74  4608.59
                             4682.77  5076.62  5148.15  5171.28

 Zero-point correction=                           0.197331 (Hartree/Particle)
 Thermal correction to Energy=                    0.211868
 Thermal correction to Enthalpy=                  0.212812
 Thermal correction to Gibbs Free Energy=         0.155219
 Sum of electronic and zero-point Energies=          -1044.178987
 Sum of electronic and thermal Energies=             -1044.164450
 Sum of electronic and thermal Enthalpies=           -1044.163506
 Sum of electronic and thermal Free Energies=        -1044.221098

                     E (Thermal)             CV                S
                      KCal/Mol        Cal/Mol-Kelvin    Cal/Mol-Kelvin
 Total                  132.949             52.827            121.213
 Electronic               0.000              0.000              0.000
 Translational            0.889              2.981             41.902
 Rotational               0.889              2.981             31.848
 Vibrational            131.171             46.866             47.464
 Vibration     1          0.594              1.984              5.790
 Vibration     2          0.596              1.976              4.663
 Vibration     3          0.601              1.958              3.704
 Vibration     4          0.602              1.956              3.648
 Vibration     5          0.604              1.949              3.455
 Vibration     6          0.615              1.914              2.813
 Vibration     7          0.622              1.890              2.534
 Vibration     8          0.630              1.865              2.317
 Vibration     9          0.645              1.817              1.997
 Vibration    10          0.664              1.759              1.714
 Vibration    11          0.671              1.738              1.630
 Vibration    12          0.685              1.696              1.487
 Vibration    13          0.700              1.651              1.351
 Vibration    14          0.710              1.623              1.278
 Vibration    15          0.755              1.499              1.013
 Vibration    16          0.757              1.493              1.004
 Vibration    17          0.794              1.399              0.850
 Vibration    18          0.802              1.377              0.819
 Vibration    19          0.843              1.278              0.690
 Vibration    20          0.852              1.257              0.666
 Vibration    21          0.924              1.101              0.508
 Vibration    22          0.962              1.024              0.444
 Vibration    23          0.969              1.010              0.432

 Optimization completed.
    -- Stationary point found.
 Normal termination of Gaussian 16 at Sun Dec 13 16:11:36 2020.

 ----------------------------------------------------------------------
 # B3LYP/6-311++G(d,p) empiricaldispersion=gd3bj scf=xqc pop=npa geom=c
 heck
 ----------------------------------------------------------------------

 ---------------------------------------
 CID_152537338_JID_3896_Energie_neutraal
 ---------------------------------------
 Structure from the checkpoint file:  "JID_3896.chk"
 Charge =  0 Multiplicity = 1

 SCF Done:  E(RB3LYP) =  -1044.60889418     A.U. after   15 cycles
 Normal termination of Gaussian 16 at Sun Dec 13 16:13:55 2020.

 ----------------------------------------------------------------------
 # B3LYP/6-311++G(d,p) empiricaldispersion=gd3bj scf=xqc pop=npa geom=c
 heck
 ----------------------------------------------------------------------

 -------------------------------------
 CID_152537338_JID_3896_Energie_kation
 -------------------------------------
 Structure from the checkpoint file:  "JID_3896.chk"
 Charge =  1 Multiplicity = 2

 SCF Done:  E(UB3LYP) =  -1044.26497554     A.U. after   30 cycles
 Normal termination of Gaussian 16 at Sun Dec 13 16:20:22 2020.
 Gaussian 16:  ES64L-G16RevA.03 25-Dec-2016

 ----------------------------------------------------------------------
 # B3LYP/6-311++G(d,p) empiricaldispersion=gd3bj scf=xqc pop=npa geom=c
 heck
 ----------------------------------------------------------------------

 ------------------------------------
 CID_152537338_JID_3896_Energie_anion
 ------------------------------------
 Structure from the checkpoint file:  "JID_3896.chk"
 Charge = -1 Multiplicity = 2

                         Standard orientation:
 ---------------------------------------------------------------------
 Center     Atomic      Atomic             Coordinates (Angstroms)
 Number     Number       Type             X           Y           Z
 ---------------------------------------------------------------------
      1          6           0        0.020385    3.046230    0.024755
      2          6           0       -1.032340    1.954270    0.238599
      3          6           0       -0.584664    0.573622   -0.238220
      4          7           0        0.392180   -0.044053    0.654914
      5          7           0        1.203237   -1.019811    0.008133
      6          6           0        2.582804   -1.025147    0.054050
      7          8           0        3.210696   -2.069165   -0.042398
      8          6           0        3.293150    0.286715    0.163649
      9          6           0        3.007186    1.361427   -0.575817
     10         16           0       -2.012601   -0.595671   -0.211916
     11          8           0       -3.179187   -0.011788   -0.855862
     12          8           0       -1.505603   -1.914418   -0.594862
     13          8           0       -2.317622   -0.591589    1.399146
     14          1           0        0.941457    2.860521    0.587934
     15          1           0       -0.374304    4.012251    0.354037
     16          1           0        0.288331    3.137654   -1.033587
     17          1           0       -1.308601    1.885029    1.296455
     18          1           0       -1.946333    2.209586   -0.305332
     19          1           0       -0.250127    0.583681   -1.283566
     20          1           0        1.005695    0.662277    1.053750
     21          1           0        0.778695   -1.941442    0.025250
     22          1           0        4.175543    0.260649    0.797441
     23          1           0        3.626299    2.253487   -0.548093
     24          1           0        2.168533    1.373602   -1.266061
     25          1           0       -1.456910   -0.806521    1.820810
 ---------------------------------------------------------------------

 SCF Done:  E(UB3LYP) =  -1044.61570804     A.U. after   33 cycles
 SCF Done:  E(UB3LYP) =  -1044.61570804     a.u. after    1 cycles

 The electronic state is 2-A.
 Alpha  occ. eigenvalues --  -88.98325 -19.08761 -19.04179 -19.03836 -18.95253
 Alpha  occ. eigenvalues --  -14.26483 -14.23733 -10.15533 -10.13155 -10.09354
 Alpha  occ. eigenvalues --  -10.06806 -10.03485 -10.03044  -8.04569  -6.00962
 Alpha  occ. eigenvalues --   -6.00767  -6.00536  -1.06159  -0.95610  -0.93402
 Alpha  occ. eigenvalues --   -0.91982  -0.87955  -0.75201  -0.67613  -0.64522
 Alpha  occ. eigenvalues --   -0.62654  -0.55647  -0.52845  -0.50807  -0.46685
 Alpha  occ. eigenvalues --   -0.45648  -0.43949  -0.41102  -0.40075  -0.38399
 Alpha  occ. eigenvalues --   -0.35516  -0.34742  -0.34056  -0.33128  -0.32559
 Alpha  occ. eigenvalues --   -0.30289  -0.28733  -0.28560  -0.28480  -0.27199
 Alpha  occ. eigenvalues --   -0.26766  -0.25948  -0.24998  -0.23653  -0.23389
 Alpha  occ. eigenvalues --   -0.22310  -0.20511  -0.15680  -0.12933  -0.12646
 Alpha  occ. eigenvalues --    0.04373
 Alpha virt. eigenvalues --    0.06365   0.07767   0.09210   0.09362   0.10927
 Alpha virt. eigenvalues --    0.11231   0.11993   0.12164   0.12588   0.13415
 Alpha virt. eigenvalues --    0.13990   0.14628   0.15174   0.15647   0.16005

  Beta  occ. eigenvalues --  -88.98314 -19.08753 -19.04172 -19.03831 -18.95020
  Beta  occ. eigenvalues --  -14.26474 -14.23698 -10.15524 -10.12969 -10.09346
  Beta  occ. eigenvalues --  -10.06738 -10.03314 -10.02702  -8.04555  -6.00952
  Beta  occ. eigenvalues --   -6.00758  -6.00519  -1.06133  -0.95589  -0.93378
  Beta  occ. eigenvalues --   -0.91724  -0.87712  -0.75105  -0.67503  -0.63889
  Beta  occ. eigenvalues --   -0.62585  -0.55585  -0.52654  -0.50319  -0.46448
  Beta  occ. eigenvalues --   -0.45384  -0.43893  -0.41053  -0.39969  -0.38336
  Beta  occ. eigenvalues --   -0.35452  -0.34685  -0.33829  -0.32917  -0.32313
  Beta  occ. eigenvalues --   -0.30205  -0.28623  -0.28321  -0.28075  -0.27094
  Beta  occ. eigenvalues --   -0.26557  -0.25868  -0.24793  -0.23544  -0.23044
  Beta  occ. eigenvalues --   -0.22297  -0.20296  -0.14229  -0.12452  -0.11903
  Beta virt. eigenvalues --    0.06860   0.08117   0.09266   0.09349   0.09924
  Beta virt. eigenvalues --    0.11070   0.11653   0.11942   0.12314   0.12773
  Beta virt. eigenvalues --    0.13502   0.14032   0.14739   0.15239   0.15721

 Mulliken charges and spin densities:
               1          2
     1  C    0.799183  -1.367412
     2  C   -0.846667   0.719244
     3  C   -0.297618  -0.497162
     4  N   -0.110311   0.012180
     5  N   -0.169340   0.007614
     6  C   -0.226581   0.137361
     7  O   -0.383598   0.080002
     8  C    0.073137   0.070305
     9  C   -0.329530   0.241197
    10  S    0.269567  -0.014765
    11  O   -0.169877   0.000897
    12  O   -0.205581   0.005667
    13  O   -0.178984   0.006134
    14  H   -0.057411   0.214815
    15  H   -0.976272   1.153004
    16  H    0.121443   0.018590
    17  H    0.091241   0.088029
    18  H    0.122749   0.055082
    19  H    0.309282  -0.009965
    20  H    0.346522  -0.032768
    21  H    0.295641   0.003093
    22  H    0.136283   0.012836
    23  H   -0.028963   0.124166
    24  H    0.145120  -0.059214
    25  H    0.270565   0.031070
 Sum of Mulliken charges =  -1.00000   1.00000

 Dipole moment (field-independent basis, Debye):
    X=             -3.7279    Y=             -1.2619    Z=              1.1016  Tot=              4.0869
 Quadrupole moment (field-independent basis, Debye-Ang):
   XX=           -146.9692   YY=           -141.6417   ZZ=            -96.2344
   XY=              9.5245   XZ=              0.8343   YZ=             -7.5619

 Summary of Natural Population Analysis:

                                       Natural Population
                Natural  -----------------------------------------------
    Atom  No    Charge         Core      Valence    Rydberg      Total
 -----------------------------------------------------------------------
      C    1   -0.28658      0.99966     2.28060    0.00632     3.28658
      C    2   -0.21381      0.99960     2.20301    0.01120     3.21381
      C    3   -0.09173      0.99956     2.07294    0.01923     3.09173
      N    4   -0.27240      0.99970     2.75840    0.01429     3.77240
      N    5   -0.24467      0.99966     2.73046    0.01456     3.74467
      C    6    0.34572      0.99965     1.63335    0.02128     2.65428
      O    7   -0.29890      0.99988     3.29289    0.00613     4.29890
      C    8   -0.13179      0.99953     2.11995    0.01231     3.13179
      C    9   -0.12121      0.99958     2.11249    0.00914     3.12121
      S   10    1.11355      4.99936     1.78406    0.10303     6.88645
      O   11   -0.45035      0.99990     3.44431    0.00614     4.45035
      O   12   -0.45627      0.99990     3.45083    0.00553     4.45627
      O   13   -0.44038      0.99991     3.43413    0.00634     4.44038
      H   14    0.10506      0.00000     0.39349    0.00145     0.39494
      H   15    0.10698      0.00000     0.38929    0.00372     0.39302
      H   16    0.09800      0.00000     0.40110    0.00090     0.40200
      H   17    0.10438      0.00000     0.39420    0.00142     0.39562
      H   18    0.11282      0.00000     0.38599    0.00119     0.38718
      H   19    0.11091      0.00000     0.38752    0.00157     0.38909
      H   20    0.19905      0.00000     0.29828    0.00268     0.30095
      H   21    0.19663      0.00000     0.30187    0.00150     0.30337
      H   22    0.09613      0.00000     0.40255    0.00132     0.40387
      H   23    0.08750      0.00000     0.41145    0.00105     0.41250
      H   24    0.08109      0.00000     0.41774    0.00117     0.41891
      H   25    0.25026      0.00000     0.24602    0.00372     0.24974
 =======================================================================
   * Total *    0.00000     16.99590    37.74693    0.25717    55.00000

 Normal termination of Gaussian 16 at Sun Dec 13 16:27:24 2020.
