 Gaussian 16, Revision A.03,

 -----------------------------------------------------------
 # opt freq B3LYP/6-31G(d) empiricaldispersion=gd3bj scf=xqc
 -----------------------------------------------------------

 -------------------------------
 CID_150451140_JID_4784_neutraal
 -------------------------------
 Symbolic Z-matrix:
 Charge =  0 Multiplicity = 1

 SCF Done:  E(RB3LYP) =  -1348.79864701     A.U. after   15 cycles
 SCF Done:  E(RB3LYP) =  -1348.80066934     A.U. after   13 cycles
 SCF Done:  E(RB3LYP) =  -1348.80246798     A.U. after   14 cycles
 SCF Done:  E(RB3LYP) =  -1348.80325419     A.U. after   13 cycles
 SCF Done:  E(RB3LYP) =  -1348.80380062     A.U. after   12 cycles
 SCF Done:  E(RB3LYP) =  -1348.80416056     A.U. after   13 cycles
 SCF Done:  E(RB3LYP) =  -1348.80427137     A.U. after   13 cycles
 SCF Done:  E(RB3LYP) =  -1348.80431289     A.U. after   12 cycles
 SCF Done:  E(RB3LYP) =  -1348.80432563     A.U. after   11 cycles
 SCF Done:  E(RB3LYP) =  -1348.80433549     A.U. after   11 cycles
 SCF Done:  E(RB3LYP) =  -1348.80585462     A.U. after    9 cycles
 SCF Done:  E(RB3LYP) =  -1348.80585477     A.U. after    8 cycles
 SCF Done:  E(RB3LYP) =  -1348.80585487     A.U. after    8 cycles
 SCF Done:  E(RB3LYP) =  -1348.80585504     A.U. after    9 cycles
 SCF Done:  E(RB3LYP) =  -1348.80585517     A.U. after    8 cycles
 SCF Done:  E(RB3LYP) =  -1348.80585525     A.U. after    8 cycles
 Optimization completed.
    -- Stationary point found.
 Normal termination of Gaussian 16 at Thu Dec 10 10:50:19 2020.

 --------------------------------------------------------------------
 #N Geom=AllCheck Guess=TCheck SCRF=Check GenChk RB3LYP/6-31G(d) Freq
 --------------------------------------------------------------------

 Structure from the checkpoint file:  "JID_4784.chk"
 -------------------------------
 CID_150451140_JID_4784_neutraal
 -------------------------------
 Charge =  0 Multiplicity = 1

 SCF Done:  E(RB3LYP) =  -1348.80585525     A.U. after    1 cycles

  Exact polarizability: 234.013   9.778 148.277  -3.181   0.364  59.079
 Approx polarizability: 356.453  21.199 265.088  -3.075   2.958  95.480

                      1                      2                      3
                      A                      A                      A
 Frequencies --     25.5913                57.9571               107.9163
 Red. masses --     11.7057                10.6657                 2.3783
 Frc consts  --      0.0045                 0.0211                 0.0163
 IR Inten    --      3.0601                 0.1139                 6.1926

                      4                      5                      6
                      A                      A                      A
 Frequencies --    134.6301               151.0949               153.1220
 Red. masses --      2.6162                 2.8938                 3.3481
 Frc consts  --      0.0279                 0.0389                 0.0463
 IR Inten    --      7.2415                 5.1641                 7.6071

                      7                      8                      9
                      A                      A                      A
 Frequencies --    196.9840               259.6237               271.8407
 Red. masses --      1.2031                 9.4035                 4.8807
 Frc consts  --      0.0275                 0.3734                 0.2125
 IR Inten    --     21.8845                 1.0986                 6.7976

                     10                     11                     12
                      A                      A                      A
 Frequencies --    296.5006               311.4437               348.8279
 Red. masses --      7.8351                13.3490                 5.9454
 Frc consts  --      0.4058                 0.7629                 0.4262
 IR Inten    --      6.5786                 0.1154                11.0017

                     13                     14                     15
                      A                      A                      A
 Frequencies --    361.7116               395.4622               433.4921
 Red. masses --      7.6407                 1.2382                 7.0703
 Frc consts  --      0.5890                 0.1141                 0.7828
 IR Inten    --      6.6804                62.8946                 5.2180

                     16                     17                     18
                      A                      A                      A
 Frequencies --    464.0290               488.9382               542.1924
 Red. masses --      4.2255                 6.6758                 5.1181
 Frc consts  --      0.5361                 0.9403                 0.8865
 IR Inten    --      0.8786                 4.4991                 2.3992

                     19                     20                     21
                      A                      A                      A
 Frequencies --    588.7171               631.8274               638.5716
 Red. masses --      1.7568                 3.3463                 2.1979
 Frc consts  --      0.3587                 0.7871                 0.5281
 IR Inten    --     29.4514                 5.9652                69.4063

                     22                     23                     24
                      A                      A                      A
 Frequencies --    645.4903               710.4124               738.6102
 Red. masses --      4.9009                 5.3107                 5.1272
 Frc consts  --      1.2031                 1.5791                 1.6480
 IR Inten    --     35.6890                23.2669                18.2940

                     25                     26                     27
                      A                      A                      A
 Frequencies --    753.1332               794.1324               819.8471
 Red. masses --      4.8635                 4.5906                 1.4915
 Frc consts  --      1.6253                 1.7057                 0.5907
 IR Inten    --     21.5212                13.3430                26.1078

                     28                     29                     30
                      A                      A                      A
 Frequencies --    855.8011               911.3602               935.0531
 Red. masses --      1.4745                 3.0768                 1.5581
 Frc consts  --      0.6363                 1.5057                 0.8027
 IR Inten    --     29.1867                19.7589                48.1128

                     31                     32                     33
                      A                      A                      A
 Frequencies --    947.5490               950.6566               978.7438
 Red. masses --      1.2971                 1.3341                 4.2157
 Frc consts  --      0.6861                 0.7103                 2.3793
 IR Inten    --      0.2058                28.0362                10.9631

                     34                     35                     36
                      A                      A                      A
 Frequencies --   1008.4230              1126.8794              1146.1387
 Red. masses --      4.1748                 1.7406                 2.2877
 Frc consts  --      2.5013                 1.3023                 1.7706
 IR Inten    --      3.7206                92.4070                95.6694

                     37                     38                     39
                      A                      A                      A
 Frequencies --   1190.4517              1214.9649              1229.6758
 Red. masses --      2.6703                 1.4884                 1.7445
 Frc consts  --      2.2296                 1.2945                 1.5542
 IR Inten    --    189.8609                44.0229                27.0472

                     40                     41                     42
                      A                      A                      A
 Frequencies --   1283.5352              1337.7070              1361.9061
 Red. masses --      2.4457                 3.2637                 5.6191
 Frc consts  --      2.3740                 3.4409                 6.1406
 IR Inten    --     26.4246                30.6719                33.6936

                     43                     44                     45
                      A                      A                      A
 Frequencies --   1397.1787              1437.9726              1455.1540
 Red. masses --      3.9725                 4.5476                 2.4911
 Frc consts  --      4.5690                 5.5403                 3.1078
 IR Inten    --    170.3363                19.4021                55.1806

                     46                     47                     48
                      A                      A                      A
 Frequencies --   1496.3954              1542.6316              1620.9793
 Red. masses --      4.7642                 4.5675                 5.1793
 Frc consts  --      6.2854                 6.4040                 8.0181
 IR Inten    --     53.9547                 1.3952                54.4667

                     49                     50                     51
                      A                      A                      A
 Frequencies --   1656.5942              1799.8807              2625.0044
 Red. masses --      6.9809                 9.2061                 1.0391
 Frc consts  --     11.2874                17.5716                 4.2187
 IR Inten    --      9.2172               294.1760                45.7052

                     52                     53                     54
                      A                      A                      A
 Frequencies --   2740.1991              3193.6265              3209.2250
 Red. masses --      1.0370                 1.0873                 1.0955
 Frc consts  --      4.5876                 6.5338                 6.6476
 IR Inten    --     35.6543                 2.6559                11.4321

                     55                     56                     57
                      A                      A                      A
 Frequencies --   3331.7642              3666.9442              3685.3933
 Red. masses --      1.0963                 1.0805                 1.0640
 Frc consts  --      7.1705                 8.5601                 8.5142
 IR Inten    --      4.4234                84.1941                85.2960

 - Thermochemistry -
 -------------------
 Temperature   298.150 Kelvin.  Pressure   1.00000 Atm.
 Atom     1 has atomic number  6 and mass  12.00000

 Molecular mass:   224.99182 amu.
 Principal axes and moments of inertia in atomic units:
                           1         2         3
     Eigenvalues --  1666.339015445.659417082.47737
           X            0.99998  -0.00612  -0.00325
           Y            0.00611   0.99998  -0.00201
           Z            0.00326   0.00199   0.99999
 This molecule is an asymmetric top.
 Rotational symmetry number  1.
 Warning -- assumption of classical behavior for rotation
           may cause significant error
 Rotational temperatures (Kelvin)      0.05198     0.01591     0.01223
 Rotational constants (GHZ):           1.08306     0.33141     0.25482
 Zero-point vibrational energy     374789.4 (Joules/Mol)
                                   89.57681 (Kcal/Mol)
 Warning -- explicit consideration of  19 degrees of freedom as
           vibrations may cause significant error
 Vibrational temperatures:     36.82    83.39   155.27   193.70   217.39
          (Kelvin)            220.31   283.42   373.54   391.12   426.60
                              448.10   501.89   520.42   568.98   623.70
                              667.63   703.47   780.09   847.03   909.06
                              918.76   928.72  1022.12  1062.70  1083.59
                             1142.58  1179.58  1231.31  1311.24  1345.33
                             1363.31  1367.78  1408.19  1450.90  1621.33
                             1649.04  1712.79  1748.06  1769.23  1846.72
                             1924.66  1959.48  2010.23  2068.92  2093.64
                             2152.98  2219.50  2332.23  2383.47  2589.63
                             3776.80  3942.54  4594.92  4617.36  4793.67
                             5275.91  5302.46

 Zero-point correction=                           0.142750 (Hartree/Particle)
 Thermal correction to Energy=                    0.155789
 Thermal correction to Enthalpy=                  0.156733
 Thermal correction to Gibbs Free Energy=         0.101998
 Sum of electronic and zero-point Energies=          -1348.663106
 Sum of electronic and thermal Energies=             -1348.650066
 Sum of electronic and thermal Enthalpies=           -1348.649122
 Sum of electronic and thermal Free Energies=        -1348.703857

                     E (Thermal)             CV                S
                      KCal/Mol        Cal/Mol-Kelvin    Cal/Mol-Kelvin
 Total                   97.759             48.675            115.199
 Electronic               0.000              0.000              0.000
 Translational            0.889              2.981             42.135
 Rotational               0.889              2.981             32.530
 Vibrational             95.982             42.713             40.534
 Vibration     1          0.593              1.985              6.145
 Vibration     2          0.596              1.974              4.526
 Vibration     3          0.606              1.943              3.306
 Vibration     4          0.613              1.919              2.879
 Vibration     5          0.619              1.901              2.658
 Vibration     6          0.619              1.899              2.633
 Vibration     7          0.636              1.844              2.161
 Vibration     8          0.668              1.746              1.664
 Vibration     9          0.675              1.725              1.584
 Vibration    10          0.690              1.680              1.437
 Vibration    11          0.700              1.652              1.355
 Vibration    12          0.726              1.578              1.171
 Vibration    13          0.736              1.551              1.115
 Vibration    14          0.762              1.480              0.979
 Vibration    15          0.794              1.397              0.847
 Vibration    16          0.822              1.330              0.754
 Vibration    17          0.845              1.275              0.686
 Vibration    18          0.897              1.157              0.561
 Vibration    19          0.946              1.056              0.469

 Optimization completed.
    -- Stationary point found.
 Normal termination of Gaussian 16 at Thu Dec 10 10:55:52 2020.

 ----------------------------------------------------------------------
 # B3LYP/6-311++G(d,p) empiricaldispersion=gd3bj scf=xqc pop=npa geom=c
 heck
 ----------------------------------------------------------------------

 ---------------------------------------
 CID_150451140_JID_4784_Energie_neutraal
 ---------------------------------------
 Structure from the checkpoint file:  "JID_4784.chk"
 Charge =  0 Multiplicity = 1

 SCF Done:  E(RB3LYP) =  -1349.02304324     A.U. after   16 cycles
 Normal termination of Gaussian 16 at Thu Dec 10 10:58:28 2020.

 ----------------------------------------------------------------------
 # B3LYP/6-311++G(d,p) empiricaldispersion=gd3bj scf=xqc pop=npa geom=c
 heck
 ----------------------------------------------------------------------

 -------------------------------------
 CID_150451140_JID_4784_Energie_kation
 -------------------------------------
 Structure from the checkpoint file:  "JID_4784.chk"
 Charge =  1 Multiplicity = 2

 SCF Done:  E(UB3LYP) =  -1348.73898209     A.U. after   27 cycles
 Normal termination of Gaussian 16 at Thu Dec 10 11:05:07 2020.
 Gaussian 16:  ES64L-G16RevA.03 25-Dec-2016

 ----------------------------------------------------------------------
 # B3LYP/6-311++G(d,p) empiricaldispersion=gd3bj scf=xqc pop=npa geom=c
 heck
 ----------------------------------------------------------------------

 ------------------------------------
 CID_150451140_JID_4784_Energie_anion
 ------------------------------------
 Structure from the checkpoint file:  "JID_4784.chk"
 Charge = -1 Multiplicity = 2

                         Standard orientation:
 ---------------------------------------------------------------------
 Center     Atomic      Atomic             Coordinates (Angstroms)
 Number     Number       Type             X           Y           Z
 ---------------------------------------------------------------------
      1          6           0       -0.053382   -2.374771   -0.017867
      2          6           0       -1.403437   -2.083508   -0.006210
      3          6           0       -1.899790   -0.754637    0.003177
      4          6           0       -1.003897    0.336711    0.006339
      5          6           0        0.396067    0.047166    0.010601
      6          6           0        0.839323   -1.303531   -0.010880
      7          7           0        2.214551   -1.297379   -0.025936
      8          6           0        2.658848    0.014093   -0.010392
      9          6           0        1.574509    0.862542    0.015652
     10         16           0        4.383522    0.389968    0.062734
     11          6           0       -1.356521    1.774250    0.014914
     12          8           0       -0.577234    2.681249    0.239614
     13          8           0       -2.656685    2.070016   -0.284077
     14         16           0       -3.684025   -0.735987    0.063895
     15          1           0        0.291997   -3.404434   -0.031699
     16          1           0       -2.119372   -2.899478   -0.007046
     17          1           0        2.818081   -2.104155    0.013947
     18          1           0        1.615629    1.937442    0.041687
     19          1           0        4.644069    0.337611   -1.265684
     20          1           0       -2.709547    3.042747   -0.228159
     21          1           0       -3.873628    0.588227   -0.043865
 ---------------------------------------------------------------------

 SCF Done:  E(UB3LYP) =  -1349.04119496     A.U. after   23 cycles

 The electronic state is 2-A.
 Alpha  occ. eigenvalues --  -88.74153 -88.71334 -19.02921 -18.94958 -14.22741
 Alpha  occ. eigenvalues --  -10.13831 -10.08896 -10.06897 -10.06505 -10.03501
 Alpha  occ. eigenvalues --  -10.03338 -10.03323 -10.02853 -10.02518  -7.82763
 Alpha  occ. eigenvalues --   -7.80091  -5.79134  -5.78776  -5.78180  -5.76448
 Alpha  occ. eigenvalues --   -5.76068  -5.75546  -0.96454  -0.86562  -0.85411
 Alpha  occ. eigenvalues --   -0.71756  -0.66699  -0.65098  -0.63084  -0.59372
 Alpha  occ. eigenvalues --   -0.55515  -0.51143  -0.47453  -0.45289  -0.44142
 Alpha  occ. eigenvalues --   -0.40522  -0.36636  -0.35526  -0.33341  -0.32927
 Alpha  occ. eigenvalues --   -0.31545  -0.30242  -0.30028  -0.28325  -0.28093
 Alpha  occ. eigenvalues --   -0.26231  -0.24453  -0.23874  -0.21880  -0.21583
 Alpha  occ. eigenvalues --   -0.20386  -0.18813  -0.15303  -0.14517  -0.14198
 Alpha  occ. eigenvalues --   -0.13197  -0.08666  -0.07724   0.03716
 Alpha virt. eigenvalues --    0.07531   0.09009   0.09223   0.10611   0.11355
 Alpha virt. eigenvalues --    0.11566   0.12669   0.13170   0.13241   0.14394
 Alpha virt. eigenvalues --    0.15423   0.15445   0.15866   0.16387   0.16699

  Beta  occ. eigenvalues --  -88.74150 -88.71327 -19.02846 -18.94692 -14.22713
  Beta  occ. eigenvalues --  -10.13584 -10.08654 -10.06987 -10.06309 -10.03359
  Beta  occ. eigenvalues --  -10.03325 -10.03204 -10.02553 -10.02491  -7.82758
  Beta  occ. eigenvalues --   -7.80085  -5.79129  -5.78783  -5.78175  -5.76448
  Beta  occ. eigenvalues --   -5.76068  -5.75516  -0.96171  -0.86153  -0.85273
  Beta  occ. eigenvalues --   -0.71386  -0.66414  -0.64884  -0.62704  -0.58992
  Beta  occ. eigenvalues --   -0.55401  -0.50600  -0.47283  -0.45007  -0.44014
  Beta  occ. eigenvalues --   -0.40306  -0.36340  -0.35262  -0.33110  -0.32622
  Beta  occ. eigenvalues --   -0.30867  -0.30016  -0.29296  -0.28108  -0.27794
  Beta  occ. eigenvalues --   -0.26065  -0.24244  -0.23676  -0.21404  -0.21080
  Beta  occ. eigenvalues --   -0.20171  -0.17773  -0.14524  -0.14155  -0.13689
  Beta  occ. eigenvalues --   -0.12859  -0.07629  -0.06756
  Beta virt. eigenvalues --    0.07552   0.08910   0.09209   0.09484   0.10594
  Beta virt. eigenvalues --    0.11475   0.11779   0.12711   0.13163   0.13609
  Beta virt. eigenvalues --    0.14452   0.15454   0.15726   0.15889   0.16621

 Mulliken charges and spin densities:
               1          2
     1  C   -0.450027   0.295600
     2  C   -0.196868  -0.037204
     3  C   -0.181887   0.119137
     4  C    0.224968   0.156871
     5  C    1.148546   0.110653
     6  C   -0.960448  -0.100627
     7  N    0.047521   0.016473
     8  C   -0.364614   0.082389
     9  C    0.467287   0.016534
    10  S   -0.573880  -0.057176
    11  C    0.340035   0.131649
    12  O   -0.398928   0.097398
    13  O   -0.266583   0.011321
    14  S   -0.801244   0.021898
    15  H    0.095043  -0.020378
    16  H    0.121007  -0.000676
    17  H    0.256146   0.003150
    18  H    0.202051   0.007539
    19  H   -0.088888   0.145375
    20  H    0.279091   0.000329
    21  H    0.101672  -0.000255
 Sum of Mulliken charges =  -1.00000   1.00000

 Dipole moment (field-independent basis, Debye):
    X=              0.7320    Y=             -1.7462    Z=             -0.7544  Tot=              2.0382
 Quadrupole moment (field-independent basis, Debye-Ang):
   XX=           -134.5381   YY=           -109.6562   ZZ=           -106.3751
   XY=            -12.8051   XZ=             -1.6773   YZ=             -1.5263

 Summary of Natural Population Analysis:

                                       Natural Population
                Natural  -----------------------------------------------
    Atom  No    Charge         Core      Valence    Rydberg      Total
 -----------------------------------------------------------------------
      C    1   -0.04092      0.99952     2.03290    0.00849     3.04092
      C    2   -0.13174      0.99957     2.12136    0.01082     3.13174
      C    3   -0.02864      0.99931     2.01905    0.01029     3.02864
      C    4   -0.06469      0.99934     2.05510    0.01026     3.06469
      C    5   -0.00251      0.99949     1.99421    0.00881     3.00251
      C    6    0.05564      0.99948     1.93428    0.01060     2.94436
      N    7   -0.27901      0.99962     2.77021    0.00918     3.77901
      C    8    0.03558      0.99944     1.95093    0.01405     2.96442
      C    9   -0.14237      0.99944     2.13315    0.00977     3.14237
      S   10   -0.01562      4.99956     2.99787    0.01818     8.01562
      C   11    0.42980      0.99966     1.54684    0.02370     2.57020
      O   12   -0.30730      0.99987     3.29934    0.00809     4.30730
      O   13   -0.36423      0.99987     3.35568    0.00868     4.36423
      S   14   -0.01500      4.99955     2.99893    0.01653     8.01500
      H   15    0.08801      0.00000     0.41052    0.00147     0.41199
      H   16    0.09209      0.00000     0.40598    0.00193     0.40791
      H   17    0.19432      0.00000     0.30334    0.00234     0.30568
      H   18    0.12021      0.00000     0.37884    0.00095     0.37979
      H   19    0.06159      0.00000     0.43449    0.00393     0.43841
      H   20    0.23488      0.00000     0.26213    0.00300     0.26512
      H   21    0.07997      0.00000     0.41695    0.00309     0.42003
 =======================================================================
   * Total *    0.00003     21.99372    35.82210    0.18414    57.99997

 Normal termination of Gaussian 16 at Thu Dec 10 11:11:13 2020.
