 Gaussian 16, Revision A.03,

 -----------------------------------------------------------
 # opt freq B3LYP/6-31G(d) empiricaldispersion=gd3bj scf=xqc
 -----------------------------------------------------------

 -------------------------------
 CID_131330342_JID_4941_neutraal
 -------------------------------
 Symbolic Z-matrix:
 Charge =  0 Multiplicity = 1

 SCF Done:  E(RB3LYP) =  -627.207501447     A.U. after   15 cycles
 SCF Done:  E(RB3LYP) =  -627.213952887     A.U. after   13 cycles
 SCF Done:  E(RB3LYP) =  -627.214905510     A.U. after   12 cycles
 SCF Done:  E(RB3LYP) =  -627.215310766     A.U. after   12 cycles
 SCF Done:  E(RB3LYP) =  -627.215550615     A.U. after   12 cycles
 SCF Done:  E(RB3LYP) =  -627.215708343     A.U. after   11 cycles
 SCF Done:  E(RB3LYP) =  -627.215892855     A.U. after   12 cycles
 SCF Done:  E(RB3LYP) =  -627.215941726     A.U. after   11 cycles
 SCF Done:  E(RB3LYP) =  -627.215975811     A.U. after   11 cycles
 SCF Done:  E(RB3LYP) =  -627.216018268     A.U. after   11 cycles
 SCF Done:  E(RB3LYP) =  -627.216055206     A.U. after    9 cycles
 SCF Done:  E(RB3LYP) =  -627.216055290     A.U. after    9 cycles
 SCF Done:  E(RB3LYP) =  -627.216055481     A.U. after    8 cycles
 SCF Done:  E(RB3LYP) =  -627.216055802     A.U. after    9 cycles
 SCF Done:  E(RB3LYP) =  -627.216055832     A.U. after    7 cycles
 Optimization completed.
    -- Stationary point found.
 Normal termination of Gaussian 16 at Thu Dec 10 10:59:43 2020.

 --------------------------------------------------------------------
 #N Geom=AllCheck Guess=TCheck SCRF=Check GenChk RB3LYP/6-31G(d) Freq
 --------------------------------------------------------------------

 Structure from the checkpoint file:  "JID_4941.chk"
 -------------------------------
 CID_131330342_JID_4941_neutraal
 -------------------------------
 Charge =  0 Multiplicity = 1

 SCF Done:  E(RB3LYP) =  -627.216055832     A.U. after    1 cycles

  Exact polarizability: 170.582   8.410 133.663  -3.974   4.159  67.739
 Approx polarizability: 247.648  35.756 233.609  -7.678  10.523 101.679

                      1                      2                      3
                      A                      A                      A
 Frequencies --     28.6801                41.3364                84.4802
 Red. masses --      2.6496                 1.9832                 4.9897
 Frc consts  --      0.0013                 0.0020                 0.0210
 IR Inten    --      0.4521                 0.4220                 8.3714

                      4                      5                      6
                      A                      A                      A
 Frequencies --    102.7800               135.5772               166.7924
 Red. masses --      4.0809                 7.7174                 4.6705
 Frc consts  --      0.0254                 0.0836                 0.0766
 IR Inten    --      0.0437                 6.5725                 1.1732

                      7                      8                      9
                      A                      A                      A
 Frequencies --    218.7090               229.5911               264.1476
 Red. masses --      1.1518                 3.7345                 6.2423
 Frc consts  --      0.0325                 0.1160                 0.2566
 IR Inten    --      0.6088                 1.1269                 3.0814

                     10                     11                     12
                      A                      A                      A
 Frequencies --    285.2719               320.6586               333.9681
 Red. masses --      3.5566                 2.0722                 3.2256
 Frc consts  --      0.1705                 0.1255                 0.2120
 IR Inten    --      1.6381                 5.7384                23.2571

                     13                     14                     15
                      A                      A                      A
 Frequencies --    371.4573               425.6094               466.1955
 Red. masses --      1.4183                 7.7626                 1.1857
 Frc consts  --      0.1153                 0.8285                 0.1518
 IR Inten    --    209.2550                 1.9794                69.2152

                     16                     17                     18
                      A                      A                      A
 Frequencies --    491.9641               496.5514               549.6449
 Red. masses --      4.7669                 6.1254                 6.8412
 Frc consts  --      0.6798                 0.8898                 1.2177
 IR Inten    --      4.5306                 0.1648                 4.2119

                     19                     20                     21
                      A                      A                      A
 Frequencies --    588.9003               648.1159               672.4692
 Red. masses --      5.2999                 4.8730                 7.7539
 Frc consts  --      1.0829                 1.2060                 2.0659
 IR Inten    --      2.6373                 0.6955                 2.6673

                     22                     23                     24
                      A                      A                      A
 Frequencies --    701.8255               731.2454               735.7350
 Red. masses --      7.1735                 6.1041                 4.4592
 Frc consts  --      2.0818                 1.9231                 1.4222
 IR Inten    --      4.2840                10.8151                 3.0087

                     25                     26                     27
                      A                      A                      A
 Frequencies --    770.0988               815.8022               848.4597
 Red. masses --      7.1909                 1.3012                 1.9481
 Frc consts  --      2.5126                 0.5102                 0.8263
 IR Inten    --     10.5047                 0.3550                 0.5252

                     28                     29                     30
                      A                      A                      A
 Frequencies --    856.9086               962.4205               969.4393
 Red. masses --      1.8942                 2.7499                 2.4404
 Frc consts  --      0.8195                 1.5007                 1.3513
 IR Inten    --      2.8844                15.3136                 7.7615

                     31                     32                     33
                      A                      A                      A
 Frequencies --   1022.7616              1066.7281              1085.8096
 Red. masses --      4.9834                 3.3637                 1.5993
 Frc consts  --      3.0713                 2.2552                 1.1109
 IR Inten    --     59.0084                59.1785                 0.4121

                     34                     35                     36
                      A                      A                      A
 Frequencies --   1095.1560              1123.2343              1146.2546
 Red. masses --      1.9791                 2.5243                 2.8946
 Frc consts  --      1.3985                 1.8764                 2.2408
 IR Inten    --     18.6405                38.1912                53.6306

                     37                     38                     39
                      A                      A                      A
 Frequencies --   1175.7022              1224.9879              1260.9798
 Red. masses --      1.7388                 1.2077                 1.3810
 Frc consts  --      1.4161                 1.0678                 1.2938
 IR Inten    --      2.0257                 1.8230                 6.7261

                     40                     41                     42
                      A                      A                      A
 Frequencies --   1266.2822              1288.5394              1313.3193
 Red. masses --      2.0743                 1.5453                 1.7734
 Frc consts  --      1.9597                 1.5116                 1.8022
 IR Inten    --     14.0295                 5.4702                57.0455

                     43                     44                     45
                      A                      A                      A
 Frequencies --   1357.7953              1378.4708              1389.5430
 Red. masses --      1.5218                 1.6073                 4.1896
 Frc consts  --      1.6530                 1.7994                 4.7661
 IR Inten    --     17.9894                51.5192                41.1965

                     46                     47                     48
                      A                      A                      A
 Frequencies --   1422.2017              1444.9920              1480.4478
 Red. masses --      1.8035                 2.1866                 3.2946
 Frc consts  --      2.1493                 2.6900                 4.2544
 IR Inten    --      9.1198                 5.6233               161.5533

                     49                     50                     51
                      A                      A                      A
 Frequencies --   1500.9508              1513.9146              1527.4499
 Red. masses --      4.7713                 1.0986                 1.0538
 Frc consts  --      6.3331                 1.4835                 1.4486
 IR Inten    --    102.7321                 2.2310                 6.8668

                     52                     53                     54
                      A                      A                      A
 Frequencies --   1528.2450              1538.5301              1553.4695
 Red. masses --      1.1206                 1.1010                 1.1283
 Frc consts  --      1.5420                 1.5355                 1.6042
 IR Inten    --     28.1223                 5.8684                 2.4788

                     55                     56                     57
                      A                      A                      A
 Frequencies --   1626.8408              1660.6640              1693.8721
 Red. masses --      6.4876                 4.8805                 1.4260
 Frc consts  --     10.1164                 7.9302                 2.4106
 IR Inten    --    164.3569               225.6814               276.2930

                     58                     59                     60
                      A                      A                      A
 Frequencies --   2322.9986              3032.8565              3056.0055
 Red. masses --     12.6569                 1.0648                 1.0342
 Frc consts  --     40.2418                 5.7708                 5.6905
 IR Inten    --     82.7843                34.6982                26.5056

                     61                     62                     63
                      A                      A                      A
 Frequencies --   3070.5113              3073.7524              3086.6131
 Red. masses --      1.0967                 1.0603                 1.0642
 Frc consts  --      6.0919                 5.9023                 5.9734
 IR Inten    --      9.8610                13.3472                70.2518

                     64                     65                     66
                      A                      A                      A
 Frequencies --   3115.1953              3129.3026              3138.2933
 Red. masses --      1.1036                 1.1025                 1.1050
 Frc consts  --      6.3103                 6.3609                 6.4119
 IR Inten    --      0.8580                35.6053                25.9604

                     67                     68                     69
                      A                      A                      A
 Frequencies --   3139.3537              3581.3784              3696.0630
 Red. masses --      1.1088                 1.0475                 1.1013
 Frc consts  --      6.4383                 7.9159                 8.8642
 IR Inten    --     29.9235                49.5989                31.2525

 - Thermochemistry -
 -------------------
 Temperature   298.150 Kelvin.  Pressure   1.00000 Atm.
 Atom     1 has atomic number  6 and mass  12.00000

 Molecular mass:   189.09021 amu.
 Principal axes and moments of inertia in atomic units:
                           1         2         3
     Eigenvalues --  1622.347083178.808034601.08445
           X            0.99755  -0.06982   0.00328
           Y            0.06983   0.99756  -0.00143
           Z           -0.00318   0.00165   0.99999
 This molecule is an asymmetric top.
 Rotational symmetry number  1.
 Warning -- assumption of classical behavior for rotation
           may cause significant error
 Rotational temperatures (Kelvin)      0.05339     0.02725     0.01882
 Rotational constants (GHZ):           1.11243     0.56774     0.39224
 Zero-point vibrational energy     529014.4 (Joules/Mol)
                                  126.43748 (Kcal/Mol)
 Warning -- explicit consideration of  19 degrees of freedom as
           vibrations may cause significant error
 Vibrational temperatures:     41.26    59.47   121.55   147.88   195.07
          (Kelvin)            239.98   314.67   330.33   380.05   410.44
                              461.36   480.51   534.44   612.36   670.75
                              707.83   714.43   790.82   847.30   932.49
                              967.53  1009.77  1052.10  1058.56  1108.00
                             1173.76  1220.74  1232.90  1384.71  1394.81
                             1471.53  1534.78  1562.24  1575.69  1616.08
                             1649.20  1691.57  1762.48  1814.27  1821.90
                             1853.92  1889.57  1953.56  1983.31  1999.24
                             2046.23  2079.02  2130.03  2159.53  2178.19
                             2197.66  2198.80  2213.60  2235.10  2340.66
                             2389.33  2437.10  3342.28  4363.60  4396.91
                             4417.78  4422.44  4440.95  4482.07  4502.37
                             4515.30  4516.83  5152.80  5317.81

 Zero-point correction=                           0.201491 (Hartree/Particle)
 Thermal correction to Energy=                    0.214511
 Thermal correction to Enthalpy=                  0.215456
 Thermal correction to Gibbs Free Energy=         0.160959
 Sum of electronic and zero-point Energies=           -627.014565
 Sum of electronic and thermal Energies=              -627.001545
 Sum of electronic and thermal Enthalpies=            -627.000600
 Sum of electronic and thermal Free Energies=         -627.055097

                     E (Thermal)             CV                S
                      KCal/Mol        Cal/Mol-Kelvin    Cal/Mol-Kelvin
 Total                  134.608             48.321            114.698
 Electronic               0.000              0.000              0.000
 Translational            0.889              2.981             41.617
 Rotational               0.889              2.981             31.540
 Vibrational            132.830             42.360             41.541
 Vibration     1          0.593              1.984              5.919
 Vibration     2          0.594              1.981              5.194
 Vibration     3          0.601              1.960              3.784
 Vibration     4          0.605              1.947              3.401
 Vibration     5          0.613              1.918              2.865
 Vibration     6          0.624              1.883              2.471
 Vibration     7          0.646              1.813              1.970
 Vibration     8          0.652              1.796              1.882
 Vibration     9          0.671              1.739              1.634
 Vibration    10          0.683              1.701              1.502
 Vibration    11          0.706              1.634              1.307
 Vibration    12          0.715              1.608              1.241
 Vibration    13          0.743              1.531              1.074
 Vibration    14          0.787              1.415              0.873
 Vibration    15          0.824              1.325              0.748
 Vibration    16          0.848              1.268              0.679
 Vibration    17          0.852              1.258              0.667
 Vibration    18          0.905              1.140              0.545
 Vibration    19          0.946              1.055              0.469

 Optimization completed.
    -- Stationary point found.
 Normal termination of Gaussian 16 at Thu Dec 10 11:06:31 2020.

 ----------------------------------------------------------------------
 # B3LYP/6-311++G(d,p) empiricaldispersion=gd3bj scf=xqc pop=npa geom=c
 heck
 ----------------------------------------------------------------------

 ---------------------------------------
 CID_131330342_JID_4941_Energie_neutraal
 ---------------------------------------
 Structure from the checkpoint file:  "JID_4941.chk"
 Charge =  0 Multiplicity = 1

 SCF Done:  E(RB3LYP) =  -627.388645464     A.U. after   16 cycles
 Normal termination of Gaussian 16 at Thu Dec 10 11:09:09 2020.

 ----------------------------------------------------------------------
 # B3LYP/6-311++G(d,p) empiricaldispersion=gd3bj scf=xqc pop=npa geom=c
 heck
 ----------------------------------------------------------------------

 -------------------------------------
 CID_131330342_JID_4941_Energie_kation
 -------------------------------------
 Structure from the checkpoint file:  "JID_4941.chk"
 Charge =  1 Multiplicity = 2

 SCF Done:  E(UB3LYP) =  -627.082419227     A.U. after   27 cycles
 Normal termination of Gaussian 16 at Thu Dec 10 11:14:45 2020.
 Gaussian 16:  ES64L-G16RevA.03 25-Dec-2016

 ----------------------------------------------------------------------
 # B3LYP/6-311++G(d,p) empiricaldispersion=gd3bj scf=xqc pop=npa geom=c
 heck
 ----------------------------------------------------------------------

 ------------------------------------
 CID_131330342_JID_4941_Energie_anion
 ------------------------------------
 Structure from the checkpoint file:  "JID_4941.chk"
 Charge = -1 Multiplicity = 2

                         Standard orientation:
 ---------------------------------------------------------------------
 Center     Atomic      Atomic             Coordinates (Angstroms)
 Number     Number       Type             X           Y           Z
 ---------------------------------------------------------------------
      1          6           0        2.872582   -1.968066    0.886615
      2          6           0        2.307158   -1.550588   -0.481984
      3          6           0        1.006275   -0.804383   -0.331949
      4          6           0        0.990944    0.596610   -0.173878
      5          6           0       -0.246856    1.285862    0.025038
      6          6           0       -1.389186    0.493981    0.045952
      7          6           0       -2.844472    0.816089    0.244629
      8          6           0       -3.489236   -0.582253    0.021366
      9          8           0       -2.414126   -1.551043   -0.077905
     10          6           0       -1.237897   -0.882409   -0.120081
     11          7           0       -0.108786   -1.552140   -0.304205
     12          7           0       -0.288364    2.647592    0.143281
     13          6           0        2.190888    1.359326   -0.174330
     14          7           0        3.134523    2.044078   -0.150264
     15          1           0        3.104673   -1.089776    1.498435
     16          1           0        3.793168   -2.547419    0.760990
     17          1           0        2.147069   -2.584073    1.427492
     18          1           0        3.040374   -0.931950   -1.010132
     19          1           0        2.111407   -2.440101   -1.087759
     20          1           0       -3.055192    1.201480    1.251579
     21          1           0       -3.226541    1.552242   -0.472607
     22          1           0       -4.135290   -0.894400    0.844475
     23          1           0       -4.057485   -0.626449   -0.912478
     24          1           0       -1.112650    3.069101    0.544191
     25          1           0        0.580672    3.137959    0.309097
 ---------------------------------------------------------------------

 SCF Done:  E(UB3LYP) =  -627.385227586     A.U. after   33 cycles
 SCF Done:  E(UB3LYP) =  -627.385227586     a.u. after    1 cycles

 The electronic state is 2-A.
 Alpha  occ. eigenvalues --  -19.05202 -14.23005 -14.19858 -14.19471 -10.14979
 Alpha  occ. eigenvalues --  -10.13638 -10.13129 -10.11178 -10.10017 -10.09007
 Alpha  occ. eigenvalues --  -10.08240 -10.07346 -10.06918 -10.06790  -0.98040
 Alpha  occ. eigenvalues --   -0.84848  -0.82516  -0.79565  -0.70722  -0.69885
 Alpha  occ. eigenvalues --   -0.66691  -0.63595  -0.56270  -0.55550  -0.50760
 Alpha  occ. eigenvalues --   -0.49495  -0.45679  -0.43547  -0.41660  -0.39691
 Alpha  occ. eigenvalues --   -0.38360  -0.37134  -0.33807  -0.33293  -0.31744
 Alpha  occ. eigenvalues --   -0.31182  -0.30394  -0.28672  -0.28273  -0.26861
 Alpha  occ. eigenvalues --   -0.26396  -0.25667  -0.25196  -0.25124  -0.23836
 Alpha  occ. eigenvalues --   -0.23251  -0.20560  -0.16433  -0.13021  -0.12228
 Alpha  occ. eigenvalues --    0.04170
 Alpha virt. eigenvalues --    0.06076   0.07513   0.07623   0.08754   0.09465
 Alpha virt. eigenvalues --    0.09842   0.10127   0.10950   0.11213   0.11931
 Alpha virt. eigenvalues --    0.12456   0.12719   0.13661   0.13847   0.15075

  Beta  occ. eigenvalues --  -19.05181 -14.22947 -14.19767 -14.19515 -10.14870
  Beta  occ. eigenvalues --  -10.13635 -10.13108 -10.10996 -10.09998 -10.08972
  Beta  occ. eigenvalues --  -10.08183 -10.07358 -10.06896 -10.06765  -0.97967
  Beta  occ. eigenvalues --   -0.84748  -0.82419  -0.79429  -0.70645  -0.69733
  Beta  occ. eigenvalues --   -0.66597  -0.63504  -0.56172  -0.55384  -0.50659
  Beta  occ. eigenvalues --   -0.49384  -0.45603  -0.43442  -0.41557  -0.39583
  Beta  occ. eigenvalues --   -0.38287  -0.37049  -0.33647  -0.33260  -0.31574
  Beta  occ. eigenvalues --   -0.31061  -0.30261  -0.28607  -0.28152  -0.26630
  Beta  occ. eigenvalues --   -0.26269  -0.25553  -0.25149  -0.25071  -0.23608
  Beta  occ. eigenvalues --   -0.23191  -0.20285  -0.16440  -0.12843  -0.11806
  Beta virt. eigenvalues --    0.06885   0.07270   0.08023   0.08511   0.09188
  Beta virt. eigenvalues --    0.09648   0.10076   0.10627   0.10877   0.11425
  Beta virt. eigenvalues --    0.12492   0.12725   0.12885   0.13768   0.14109

 Mulliken charges and spin densities:
               1          2
     1  C   -0.391632  -0.200597
     2  C   -0.404835   0.012545
     3  C   -0.530818   0.297300
     4  C    2.787634  -0.359494
     5  C   -0.369544  -0.285547
     6  C   -1.866916   2.517612
     7  C    2.608473  -3.246528
     8  C    0.623622  -0.776750
     9  O   -0.114985   0.036806
    10  C   -0.132580  -0.250222
    11  N   -0.134464   0.000524
    12  N   -0.236158  -0.008294
    13  C   -1.581911   0.187607
    14  N   -0.242493   0.028715
    15  H    0.102793   0.047876
    16  H    0.007865   0.112678
    17  H    0.126252   0.029887
    18  H    0.132941   0.035275
    19  H    0.135495   0.040863
    20  H   -0.482642   0.655932
    21  H   -0.454398   0.637364
    22  H   -0.015251   0.175440
    23  H   -0.121657   0.296111
    24  H   -0.583590   0.859500
    25  H    0.138799   0.155395
 Sum of Mulliken charges =  -1.00000   1.00000

 Dipole moment (field-independent basis, Debye):
    X=              2.2861    Y=             -5.2747    Z=             -0.4596  Tot=              5.7672
 Quadrupole moment (field-independent basis, Debye-Ang):
   XX=           -142.8688   YY=           -133.1867   ZZ=           -102.7521
   XY=              4.5082   XZ=              1.2225   YZ=             -2.7497

 Summary of Natural Population Analysis:

                                       Natural Population
                Natural  -----------------------------------------------
    Atom  No    Charge         Core      Valence    Rydberg      Total
 -----------------------------------------------------------------------
      C    1   -0.27825      0.99966     2.27466    0.00393     3.27825
      C    2   -0.20772      0.99961     2.20020    0.00791     3.20772
      C    3    0.17539      0.99953     1.80906    0.01602     2.82461
      C    4   -0.14624      0.99935     2.13836    0.00854     3.14624
      C    5    0.13211      0.99945     1.85595    0.01249     2.86789
      C    6   -0.09196      0.99942     2.08188    0.01065     3.09196
      C    7   -0.20742      0.99963     2.19941    0.00838     3.20742
      C    8   -0.00448      0.99960     1.99302    0.01186     3.00448
      O    9   -0.26647      0.99986     3.25884    0.00777     4.26647
      C   10    0.30174      0.99938     1.68011    0.01877     2.69826
      N   11   -0.27825      0.99963     2.76836    0.01026     3.77825
      N   12   -0.38159      0.99969     2.87264    0.00926     3.88159
      C   13    0.15109      0.99964     1.83112    0.01815     2.84891
      N   14   -0.18880      0.99979     2.67777    0.01124     3.68880
      H   15    0.09937      0.00000     0.39949    0.00114     0.40063
      H   16    0.09405      0.00000     0.40485    0.00110     0.40595
      H   17    0.09958      0.00000     0.39917    0.00124     0.40042
      H   18    0.10336      0.00000     0.39550    0.00114     0.39664
      H   19    0.10555      0.00000     0.39305    0.00140     0.39445
      H   20    0.10568      0.00000     0.39235    0.00197     0.39432
      H   21    0.11181      0.00000     0.38343    0.00476     0.38819
      H   22    0.08800      0.00000     0.41067    0.00133     0.41200
      H   23    0.08682      0.00000     0.41169    0.00149     0.41318
      H   24    0.19978      0.00000     0.29265    0.00756     0.30022
      H   25    0.19686      0.00000     0.30144    0.00170     0.30314
 =======================================================================
   * Total *   -0.00000     13.99423    35.82569    0.18008    50.00000

 Normal termination of Gaussian 16 at Thu Dec 10 11:21:42 2020.
