 Gaussian 16, Revision A.03,

 -----------------------------------------------------------
 # opt freq B3LYP/6-31G(d) empiricaldispersion=gd3bj scf=xqc
 -----------------------------------------------------------

 ------------------------------
 CID_88019017_JID_5973_neutraal
 ------------------------------
 Symbolic Z-matrix:
 Charge =  0 Multiplicity = 1

 SCF Done:  E(RB3LYP) =  -639.052260705     A.U. after   12 cycles
 SCF Done:  E(RB3LYP) =  -639.057957620     A.U. after   11 cycles
 SCF Done:  E(RB3LYP) =  -639.058893288     A.U. after   11 cycles
 SCF Done:  E(RB3LYP) =  -639.059414934     A.U. after   10 cycles
 SCF Done:  E(RB3LYP) =  -639.060158214     A.U. after   11 cycles
 SCF Done:  E(RB3LYP) =  -639.056640041     A.U. after   13 cycles
 SCF Done:  E(RB3LYP) =  -639.060688216     A.U. after   10 cycles
 SCF Done:  E(RB3LYP) =  -639.060771315     A.U. after   10 cycles
 SCF Done:  E(RB3LYP) =  -639.060977042     A.U. after   10 cycles
 SCF Done:  E(RB3LYP) =  -639.060995226     A.U. after   10 cycles
 SCF Done:  E(RB3LYP) =  -639.061014327     A.U. after    8 cycles
 SCF Done:  E(RB3LYP) =  -639.061019266     A.U. after    8 cycles
 SCF Done:  E(RB3LYP) =  -639.061020896     A.U. after    8 cycles
 SCF Done:  E(RB3LYP) =  -639.061021482     A.U. after    7 cycles
 SCF Done:  E(RB3LYP) =  -639.061021810     A.U. after    7 cycles
 SCF Done:  E(RB3LYP) =  -639.061021878     A.U. after    6 cycles
 Optimization completed.
    -- Stationary point found.
 Normal termination of Gaussian 16 at Thu Dec 10 17:51:50 2020.

 --------------------------------------------------------------------
 #N Geom=AllCheck Guess=TCheck SCRF=Check GenChk RB3LYP/6-31G(d) Freq
 --------------------------------------------------------------------

 Structure from the checkpoint file:  "JID_5973.chk"
 ------------------------------
 CID_88019017_JID_5973_neutraal
 ------------------------------
 Charge =  0 Multiplicity = 1

 SCF Done:  E(RB3LYP) =  -639.061021878     A.U. after    1 cycles

  Exact polarizability: 170.651  -1.712 141.818   3.152   0.275 134.120
 Approx polarizability: 205.596   0.394 200.592   1.415   1.995 200.118

                      1                      2                      3
                      A                      A                      A
 Frequencies --     24.6719                31.3291                62.3963
 Red. masses --      3.3678                 3.2586                 3.3530
 Frc consts  --      0.0012                 0.0019                 0.0077
 IR Inten    --      0.8449                 0.1151                 0.3750

                      4                      5                      6
                      A                      A                      A
 Frequencies --     97.5104               106.8101               118.7271
 Red. masses --      2.2002                 2.7445                 1.9746
 Frc consts  --      0.0123                 0.0184                 0.0164
 IR Inten    --      0.0980                 0.4434                 0.0747

                      7                      8                      9
                      A                      A                      A
 Frequencies --    124.7479               133.2086               172.9023
 Red. masses --      2.0138                 1.9732                 2.5091
 Frc consts  --      0.0185                 0.0206                 0.0442
 IR Inten    --      1.0127                 0.4444                 1.7717

                     10                     11                     12
                      A                      A                      A
 Frequencies --    186.5758               214.5881               226.6678
 Red. masses --      2.0961                 1.8830                 1.4302
 Frc consts  --      0.0430                 0.0511                 0.0433
 IR Inten    --      0.1189                 0.3049                 0.6549

                     13                     14                     15
                      A                      A                      A
 Frequencies --    233.4083               236.7331               250.7443
 Red. masses --      1.1030                 1.7349                 1.7725
 Frc consts  --      0.0354                 0.0573                 0.0657
 IR Inten    --      0.8973                 1.5243                 0.4496

                     16                     17                     18
                      A                      A                      A
 Frequencies --    272.6292               283.1755               304.8411
 Red. masses --      1.9686                 1.1228                 1.9173
 Frc consts  --      0.0862                 0.0530                 0.1050
 IR Inten    --      3.0797                62.3699                10.5541

                     19                     20                     21
                      A                      A                      A
 Frequencies --    321.6812               327.6128               339.6695
 Red. masses --      1.7890                 1.8914                 1.3157
 Frc consts  --      0.1091                 0.1196                 0.0894
 IR Inten    --      9.4919                 5.0414                24.8653

                     22                     23                     24
                      A                      A                      A
 Frequencies --    354.4902               379.8261               394.5517
 Red. masses --      2.5947                 2.3748                 2.0433
 Frc consts  --      0.1921                 0.2019                 0.1874
 IR Inten    --      0.5356                 2.6516                 6.6803

                     25                     26                     27
                      A                      A                      A
 Frequencies --    408.3549               442.3513               455.3235
 Red. masses --      2.8164                 2.9304                 2.8216
 Frc consts  --      0.2767                 0.3378                 0.3447
 IR Inten    --      5.1928                 2.5203                 8.5777

                     28                     29                     30
                      A                      A                      A
 Frequencies --    490.2939               504.2194               560.5438
 Red. masses --      2.6221                 2.3063                 2.6645
 Frc consts  --      0.3714                 0.3455                 0.4933
 IR Inten    --      1.1789                 2.8832                 3.9473

                     31                     32                     33
                      A                      A                      A
 Frequencies --    616.2256               695.6167               735.1006
 Red. masses --      2.5827                 2.0049                 2.8990
 Frc consts  --      0.5778                 0.5716                 0.9230
 IR Inten    --     10.2339                22.9778                 3.8257

                     34                     35                     36
                      A                      A                      A
 Frequencies --    768.3734               784.8773               789.4527
 Red. masses --      1.5961                 1.2587                 1.3722
 Frc consts  --      0.5552                 0.4568                 0.5039
 IR Inten    --     66.5945                 3.3472                11.5388

                     37                     38                     39
                      A                      A                      A
 Frequencies --    799.8939               816.5063               887.0426
 Red. masses --      1.2322                 1.2254                 1.8788
 Frc consts  --      0.4645                 0.4813                 0.8710
 IR Inten    --      2.5005                 6.8905                23.3229

                     40                     41                     42
                      A                      A                      A
 Frequencies --    908.5228               920.3842               924.7791
 Red. masses --      1.8069                 1.9669                 1.7054
 Frc consts  --      0.8787                 0.9817                 0.8593
 IR Inten    --     46.3087                17.1303                74.4931

                     43                     44                     45
                      A                      A                      A
 Frequencies --    932.0809               969.4777               986.9908
 Red. masses --      1.8231                 1.4276                 1.7473
 Frc consts  --      0.9332                 0.7906                 1.0029
 IR Inten    --     25.7468                69.6612                38.5081

                     46                     47                     48
                      A                      A                      A
 Frequencies --   1004.4497              1012.1420              1022.0072
 Red. masses --      1.9417                 1.6668                 1.7780
 Frc consts  --      1.1542                 1.0060                 1.0942
 IR Inten    --      5.2984                11.5010                27.8284

                     49                     50                     51
                      A                      A                      A
 Frequencies --   1046.9237              1058.5224              1064.2234
 Red. masses --      2.1264                 1.9324                 2.6819
 Frc consts  --      1.3732                 1.2757                 1.7896
 IR Inten    --      1.3942                 4.6646                 0.3224

                     52                     53                     54
                      A                      A                      A
 Frequencies --   1067.2871              1086.1981              1092.5758
 Red. masses --      2.0199                 1.5884                 1.5869
 Frc consts  --      1.3556                 1.1042                 1.1161
 IR Inten    --      4.1731                 2.0013                49.6398

                     55                     56                     57
                      A                      A                      A
 Frequencies --   1099.4429              1123.7479              1152.1835
 Red. masses --      1.5812                 1.5399                 1.7005
 Frc consts  --      1.1261                 1.1457                 1.3301
 IR Inten    --      0.6986                14.5093                 2.9946

                     58                     59                     60
                      A                      A                      A
 Frequencies --   1169.6039              1182.9402              1206.8607
 Red. masses --      2.3334                 2.6789                 2.5595
 Frc consts  --      1.8807                 2.2087                 2.1964
 IR Inten    --     56.8727                36.7691                 9.8825

                     61                     62                     63
                      A                      A                      A
 Frequencies --   1229.4424              1236.9261              1277.3403
 Red. masses --      2.2481                 2.6468                 1.2990
 Frc consts  --      2.0021                 2.3860                 1.2487
 IR Inten    --     17.2147                 4.0180                 0.8925

                     64                     65                     66
                      A                      A                      A
 Frequencies --   1287.4615              1314.8694              1319.2759
 Red. masses --      1.3423                 1.2803                 1.2023
 Frc consts  --      1.3109                 1.3042                 1.2329
 IR Inten    --      1.7429                 5.6993                 0.9086

                     67                     68                     69
                      A                      A                      A
 Frequencies --   1329.1277              1358.8202              1370.7231
 Red. masses --      1.2066                 1.2469                 1.4190
 Frc consts  --      1.2559                 1.3565                 1.5709
 IR Inten    --      7.7006                 6.6753                14.5451

                     70                     71                     72
                      A                      A                      A
 Frequencies --   1376.0393              1385.0607              1392.8049
 Red. masses --      1.3309                 1.5039                 1.4404
 Frc consts  --      1.4848                 1.6998                 1.6463
 IR Inten    --      2.9048                 1.0773                 1.2917

                     73                     74                     75
                      A                      A                      A
 Frequencies --   1397.3177              1411.3972              1417.2889
 Red. masses --      1.4398                 1.5221                 1.5439
 Frc consts  --      1.6564                 1.7865                 1.8272
 IR Inten    --      0.3891                 0.9911                 0.3029

                     76                     77                     78
                      A                      A                      A
 Frequencies --   1428.9098              1433.2608              1437.4677
 Red. masses --      1.4280                 1.3036                 1.2577
 Frc consts  --      1.7178                 1.5778                 1.5312
 IR Inten    --      4.2042                 1.0848                 2.6653

                     79                     80                     81
                      A                      A                      A
 Frequencies --   1444.9261              1446.0151              1501.0203
 Red. masses --      1.2515                 1.2458                 1.0838
 Frc consts  --      1.5394                 1.5348                 1.4388
 IR Inten    --     10.4409                 3.6806                 3.1367

                     82                     83                     84
                      A                      A                      A
 Frequencies --   1511.9785              1516.2125              1519.3345
 Red. masses --      1.1162                 1.0676                 1.0772
 Frc consts  --      1.5034                 1.4461                 1.4651
 IR Inten    --      9.0719                 3.9570                 3.1939

                     85                     86                     87
                      A                      A                      A
 Frequencies --   1519.5516              1524.4914              1528.9455
 Red. masses --      1.0995                 1.0680                 1.0617
 Frc consts  --      1.4958                 1.4624                 1.4624
 IR Inten    --      2.5323                 1.8685                 4.6079

                     88                     89                     90
                      A                      A                      A
 Frequencies --   1530.2755              1534.2500              1534.5788
 Red. masses --      1.0787                 1.0625                 1.0496
 Frc consts  --      1.4883                 1.4736                 1.4563
 IR Inten    --     13.8043                 8.0343                 0.7537

                     91                     92                     93
                      A                      A                      A
 Frequencies --   1535.7931              1538.8885              1542.2337
 Red. masses --      1.0501                 1.0488                 1.0690
 Frc consts  --      1.4594                 1.4634                 1.4980
 IR Inten    --      3.7978                 2.1223                 4.8626

                     94                     95                     96
                      A                      A                      A
 Frequencies --   1546.7993              1549.5148              1695.9186
 Red. masses --      1.0695                 1.0670                 1.0903
 Frc consts  --      1.5076                 1.5094                 1.8476
 IR Inten    --     16.8260                 1.6960                37.0165

                     97                     98                     99
                      A                      A                      A
 Frequencies --   1701.9327              2952.0609              3015.9960
 Red. masses --      1.0878                 1.0705                 1.0691
 Frc consts  --      1.8565                 5.4968                 5.7298
 IR Inten    --     20.5388                60.8001                27.6335

                    100                    101                    102
                      A                      A                      A
 Frequencies --   3020.0119              3025.6915              3031.1572
 Red. masses --      1.0705                 1.0608                 1.0595
 Frc consts  --      5.7524                 5.7217                 5.7357
 IR Inten    --     35.9541                38.8117                29.8686

                    103                    104                    105
                      A                      A                      A
 Frequencies --   3048.3060              3053.3600              3054.1276
 Red. masses --      1.0611                 1.0389                 1.0458
 Frc consts  --      5.8093                 5.7065                 5.7476
 IR Inten    --      9.4405                33.0331                35.3544

                    106                    107                    108
                      A                      A                      A
 Frequencies --   3054.5815              3055.4346              3057.9540
 Red. masses --      1.0382                 1.0959                 1.0389
 Frc consts  --      5.7074                 6.0279                 5.7240
 IR Inten    --     17.7902                43.3051                33.4806

                    109                    110                    111
                      A                      A                      A
 Frequencies --   3064.2463              3075.0951              3079.5291
 Red. masses --      1.0987                 1.0894                 1.0904
 Frc consts  --      6.0781                 6.0695                 6.0925
 IR Inten    --     34.9439                19.1776                28.8608

                    112                    113                    114
                      A                      A                      A
 Frequencies --   3085.5360              3110.0516              3111.2834
 Red. masses --      1.0921                 1.1004                 1.1017
 Frc consts  --      6.1260                 6.2709                 6.2834
 IR Inten    --     15.2873                31.7008                54.1219

                    115                    116                    117
                      A                      A                      A
 Frequencies --   3113.7255              3116.8325              3119.4179
 Red. masses --      1.1019                 1.1010                 1.0996
 Frc consts  --      6.2942                 6.3018                 6.3041
 IR Inten    --     52.4251                47.7677                32.6803

                    118                    119                    120
                      A                      A                      A
 Frequencies --   3123.3772              3125.5754              3143.2178
 Red. masses --      1.1018                 1.1010                 1.1010
 Frc consts  --      6.3331                 6.3373                 6.4089
 IR Inten    --     41.4841                37.7130                16.9611

                    121                    122                    123
                      A                      A                      A
 Frequencies --   3145.4958              3428.5538              3451.6137
 Red. masses --      1.1012                 1.0493                 1.0521
 Frc consts  --      6.4195                 7.2672                 7.3854
 IR Inten    --     22.0938                 7.2024                 6.4674

                    124                    125                    126
                      A                      A                      A
 Frequencies --   3512.8614              3535.8970              3548.6428
 Red. masses --      1.0909                 1.0734                 1.0885
 Frc consts  --      7.9316                 7.9069                 8.0762
 IR Inten    --      6.0624                 0.2248                 0.3808

 - Thermochemistry -
 -------------------
 Temperature   298.150 Kelvin.  Pressure   1.00000 Atm.
 Atom     1 has atomic number  6 and mass  12.00000

 Molecular mass:   215.23615 amu.
 Principal axes and moments of inertia in atomic units:
                           1         2         3
     Eigenvalues --  1888.425706739.637437097.35288
           X            0.99997   0.00033   0.00805
           Y           -0.00027   0.99997  -0.00814
           Z           -0.00805   0.00814   0.99993
 This molecule is an asymmetric top.
 Rotational symmetry number  1.
 Warning -- assumption of classical behavior for rotation
           may cause significant error
 Rotational temperatures (Kelvin)      0.04587     0.01285     0.01220
 Rotational constants (GHZ):           0.95569     0.26778     0.25428
 Zero-point vibrational energy    1087829.2 (Joules/Mol)
                                  259.99743 (Kcal/Mol)
 Warning -- explicit consideration of  31 degrees of freedom as
           vibrations may cause significant error
 Vibrational temperatures:     35.50    45.08    89.77   140.30   153.68
          (Kelvin)            170.82   179.48   191.66   248.77   268.44
                              308.74   326.12   335.82   340.61   360.77
                              392.25   407.43   438.60   462.83   471.36
                              488.71   510.03   546.49   567.67   587.53
                              636.44   655.11   705.42   725.46   806.50
                              886.61  1000.84  1057.65  1105.52  1129.26
                             1135.85  1150.87  1174.77  1276.26  1307.16
                             1324.23  1330.55  1341.06  1394.86  1420.06
                             1445.18  1456.25  1470.44  1506.29  1522.98
                             1531.18  1535.59  1562.80  1571.97  1581.85
                             1616.82  1657.74  1682.80  1701.99  1736.40
                             1768.89  1779.66  1837.81  1852.37  1891.80
                             1898.14  1912.32  1955.04  1972.16  1979.81
                             1992.79  2003.94  2010.43  2030.69  2039.16
                             2055.88  2062.14  2068.20  2078.93  2080.49
                             2159.63  2175.40  2181.49  2185.98  2186.30
                             2193.40  2199.81  2201.73  2207.44  2207.92
                             2209.66  2214.12  2218.93  2225.50  2229.41
                             2440.05  2448.70  4247.36  4339.35  4345.12
                             4353.30  4361.16  4385.83  4393.10  4394.21
                             4394.86  4396.09  4399.71  4408.77  4424.38
                             4430.76  4439.40  4474.67  4476.44  4479.96
                             4484.43  4488.15  4493.84  4497.01  4522.39
                             4525.67  4932.92  4966.10  5054.22  5087.37
                             5105.71

 Zero-point correction=                           0.414332 (Hartree/Particle)
 Thermal correction to Energy=                    0.433686
 Thermal correction to Enthalpy=                  0.434631
 Thermal correction to Gibbs Free Energy=         0.367436
 Sum of electronic and zero-point Energies=           -638.646690
 Sum of electronic and thermal Energies=              -638.627336
 Sum of electronic and thermal Enthalpies=            -638.626391
 Sum of electronic and thermal Free Energies=         -638.693586

                     E (Thermal)             CV                S
                      KCal/Mol        Cal/Mol-Kelvin    Cal/Mol-Kelvin
 Total                  272.142             73.601            141.422
 Electronic               0.000              0.000              0.000
 Translational            0.889              2.981             42.003
 Rotational               0.889              2.981             32.868
 Vibrational            270.365             67.639             66.551
 Vibration     1          0.593              1.985              6.217
 Vibration     2          0.594              1.983              5.743
 Vibration     3          0.597              1.972              4.380
 Vibration     4          0.603              1.951              3.503
 Vibration     5          0.606              1.944              3.326
 Vibration     6          0.609              1.934              3.121
 Vibration     7          0.610              1.928              3.025
 Vibration     8          0.613              1.920              2.899
 Vibration     9          0.626              1.876              2.404
 Vibration    10          0.632              1.858              2.262
 Vibration    11          0.645              1.819              2.004
 Vibration    12          0.650              1.800              1.905
 Vibration    13          0.654              1.790              1.853
 Vibration    14          0.656              1.784              1.827
 Vibration    15          0.663              1.762              1.725
 Vibration    16          0.676              1.724              1.579
 Vibration    17          0.682              1.705              1.514
 Vibration    18          0.696              1.665              1.390
 Vibration    19          0.707              1.632              1.302
 Vibration    20          0.711              1.620              1.272
 Vibration    21          0.720              1.596              1.214
 Vibration    22          0.730              1.566              1.146
 Vibration    23          0.750              1.513              1.040
 Vibration    24          0.762              1.482              0.983
 Vibration    25          0.773              1.452              0.932
 Vibration    26          0.802              1.378              0.819
 Vibration    27          0.814              1.349              0.780
 Vibration    28          0.846              1.272              0.683
 Vibration    29          0.859              1.241              0.648
 Vibration    30          0.916              1.117              0.523
 Vibration    31          0.976              0.998              0.423

                           ! Non-Optimized Parameters !
 Normal termination of Gaussian 16 at Thu Dec 10 18:07:16 2020.

 ----------------------------------------------------------------------
 # B3LYP/6-311++G(d,p) empiricaldispersion=gd3bj scf=xqc pop=npa geom=c
 heck
 ----------------------------------------------------------------------

 --------------------------------------
 CID_88019017_JID_5973_Energie_neutraal
 --------------------------------------
 Structure from the checkpoint file:  "JID_5973.chk"
 Charge =  0 Multiplicity = 1

 SCF Done:  E(RB3LYP) =  -639.259371096     A.U. after   14 cycles
 Normal termination of Gaussian 16 at Thu Dec 10 18:14:26 2020.

 ----------------------------------------------------------------------
 # B3LYP/6-311++G(d,p) empiricaldispersion=gd3bj scf=xqc pop=npa geom=c
 heck
 ----------------------------------------------------------------------

 ------------------------------------
 CID_88019017_JID_5973_Energie_kation
 ------------------------------------
 Structure from the checkpoint file:  "JID_5973.chk"
 Charge =  1 Multiplicity = 2

 SCF Done:  E(UB3LYP) =  -638.969212761     A.U. after   24 cycles
 Normal termination of Gaussian 16 at Thu Dec 10 18:30:11 2020.
 Gaussian 16:  ES64L-G16RevA.03 25-Dec-2016

 ----------------------------------------------------------------------
 # B3LYP/6-311++G(d,p) empiricaldispersion=gd3bj scf=xqc pop=npa geom=c
 heck
 ----------------------------------------------------------------------

 -----------------------------------
 CID_88019017_JID_5973_Energie_anion
 -----------------------------------
 Structure from the checkpoint file:  "JID_5973.chk"
 Charge = -1 Multiplicity = 2

                         Standard orientation:
 ---------------------------------------------------------------------
 Center     Atomic      Atomic             Coordinates (Angstroms)
 Number     Number       Type             X           Y           Z
 ---------------------------------------------------------------------
      1          6           0       -4.210197    1.458396    0.394519
      2          6           0       -2.739070    1.173601    0.087621
      3          6           0       -2.284834   -0.274198    0.386054
      4          6           0       -3.165473   -1.321344   -0.324425
      5          6           0       -3.290077   -1.186598   -1.844814
      6          6           0       -0.806676   -0.446242   -0.052763
      7          7           0        0.083912    0.409872    0.728382
      8          6           0        1.462478   -0.033518    0.916767
      9          6           0        2.410065   -0.074062   -0.313326
     10          6           0        2.300419    1.230579   -1.142583
     11          6           0        2.607462    2.546716   -0.417118
     12          6           0        3.864830   -0.274422    0.167975
     13          6           0        4.116597   -1.551347    0.976588
     14          7           0        2.061375   -1.250251   -1.139273
     15          7           0       -2.425562   -0.491986    1.836145
     16          1           0       -4.880193    0.927733   -0.291164
     17          1           0       -4.426896    2.528662    0.302792
     18          1           0       -4.445097    1.139172    1.413550
     19          1           0       -2.517549    1.413281   -0.961439
     20          1           0       -2.118724    1.845000    0.695908
     21          1           0       -2.762831   -2.317180   -0.086021
     22          1           0       -4.161403   -1.282045    0.130337
     23          1           0       -2.320876   -1.271217   -2.348118
     24          1           0       -3.935749   -1.975917   -2.245102
     25          1           0       -3.730051   -0.225370   -2.130998
     26          1           0       -0.508555   -1.485766    0.128919
     27          1           0       -0.722845   -0.274415   -1.140519
     28          1           0        0.060951    1.361323    0.374920
     29          1           0        1.909136    0.623866    1.673011
     30          1           0        1.426731   -1.038529    1.346931
     31          1           0        2.972301    1.133935   -2.006845
     32          1           0        1.285052    1.281124   -1.559920
     33          1           0        3.640419    2.581624   -0.056803
     34          1           0        2.466521    3.398581   -1.091468
     35          1           0        1.953959    2.703079    0.448910
     36          1           0        4.512802   -0.276921   -0.721542
     37          1           0        4.168595    0.596987    0.759591
     38          1           0        3.746540   -2.428332    0.439033
     39          1           0        5.188301   -1.680910    1.164111
     40          1           0        3.616097   -1.519186    1.950153
     41          1           0        1.151683   -1.106326   -1.573009
     42          1           0        2.726129   -1.316027   -1.911519
     43          1           0       -2.286862   -1.483829    2.034934
     44          1           0       -1.638810   -0.011214    2.277610
 ---------------------------------------------------------------------

 SCF Done:  E(UB3LYP) =  -639.247228481     A.U. after   26 cycles

 The electronic state is 2-A.
 Alpha  occ. eigenvalues --  -14.20413 -14.19172 -14.19060 -10.10752 -10.10483
 Alpha  occ. eigenvalues --  -10.09443 -10.09308 -10.07460 -10.06947 -10.06877
 Alpha  occ. eigenvalues --  -10.06796 -10.06620 -10.06341 -10.06226 -10.06174
 Alpha  occ. eigenvalues --   -0.82630  -0.79886  -0.77735  -0.69003  -0.68329
 Alpha  occ. eigenvalues --   -0.65635  -0.65591  -0.62327  -0.58222  -0.55273
 Alpha  occ. eigenvalues --   -0.53355  -0.53132  -0.51848  -0.44940  -0.44398
 Alpha  occ. eigenvalues --   -0.41446  -0.39789  -0.39139  -0.37430  -0.36600
 Alpha  occ. eigenvalues --   -0.36215  -0.35402  -0.34337  -0.33100  -0.32094
 Alpha  occ. eigenvalues --   -0.31712  -0.31466  -0.30699  -0.29781  -0.29748
 Alpha  occ. eigenvalues --   -0.28912  -0.27658  -0.27606  -0.26964  -0.26432
 Alpha  occ. eigenvalues --   -0.25387  -0.25303  -0.24760  -0.24400  -0.23418
 Alpha  occ. eigenvalues --   -0.22989  -0.22001  -0.21875  -0.15333  -0.14641
 Alpha  occ. eigenvalues --   -0.12885   0.04139
 Alpha virt. eigenvalues --    0.06097   0.06688   0.06983   0.07730   0.07969
 Alpha virt. eigenvalues --    0.08306   0.09136   0.09558   0.10036   0.10137
 Alpha virt. eigenvalues --    0.10592   0.10984   0.11039   0.12460   0.12539

  Beta  occ. eigenvalues --  -14.20402 -14.19167 -14.19037 -10.10751 -10.10483
  Beta  occ. eigenvalues --  -10.09426 -10.09297 -10.07451 -10.06926 -10.06862
  Beta  occ. eigenvalues --  -10.06768 -10.06591 -10.06310 -10.06215 -10.06161
  Beta  occ. eigenvalues --   -0.82613  -0.79865  -0.77711  -0.68980  -0.68291
  Beta  occ. eigenvalues --   -0.65596  -0.65567  -0.62297  -0.58183  -0.55224
  Beta  occ. eigenvalues --   -0.53313  -0.53078  -0.51774  -0.44886  -0.44362
  Beta  occ. eigenvalues --   -0.41419  -0.39765  -0.39119  -0.37410  -0.36563
  Beta  occ. eigenvalues --   -0.36190  -0.35369  -0.34309  -0.33075  -0.32071
  Beta  occ. eigenvalues --   -0.31682  -0.31445  -0.30678  -0.29750  -0.29722
  Beta  occ. eigenvalues --   -0.28873  -0.27624  -0.27559  -0.26929  -0.26402
  Beta  occ. eigenvalues --   -0.25362  -0.25268  -0.24733  -0.24376  -0.23384
  Beta  occ. eigenvalues --   -0.22971  -0.21968  -0.21857  -0.15320  -0.14619
  Beta  occ. eigenvalues --   -0.12856
  Beta virt. eigenvalues --    0.06114   0.06660   0.07183   0.07483   0.07895
  Beta virt. eigenvalues --    0.08387   0.08707   0.09579   0.09807   0.10208
  Beta virt. eigenvalues --    0.10340   0.10879   0.11185   0.11223   0.12632

 Mulliken charges and spin densities:
               1          2
     1  C   -0.008612  -0.606125
     2  C   -0.216593   0.023873
     3  C    0.754538  -0.126856
     4  C   -0.374172   0.076680
     5  C    0.219517  -0.857140
     6  C   -1.749708   0.404827
     7  N    0.067631   0.010824
     8  C    0.525830  -1.308472
     9  C    1.081315  -0.705733
    10  C   -1.170427   1.034864
    11  C    1.039475  -1.584611
    12  C   -0.399918   0.063732
    13  C    0.323915  -0.947057
    14  N   -0.329373   0.081535
    15  N   -0.286887   0.066873
    16  H    0.114788   0.002445
    17  H   -0.032803   0.168463
    18  H    0.120816   0.071589
    19  H   -0.237621   0.399111
    20  H    0.080398   0.035864
    21  H    0.023712   0.089309
    22  H    0.098909   0.079206
    23  H   -0.404803   0.558597
    24  H   -0.222262   0.364966
    25  H   -0.015791   0.160410
    26  H    0.146215   0.053974
    27  H    0.889987  -0.706741
    28  H    0.465084  -0.232490
    29  H    0.022817   0.184476
    30  H    0.229546  -0.062030
    31  H   -0.431835   0.596379
    32  H   -0.580576   0.739915
    33  H   -0.139243   0.281649
    34  H   -0.323556   0.485651
    35  H   -0.380156   0.513144
    36  H   -0.204421   0.363196
    37  H    0.039194   0.072692
    38  H    0.124726   0.042604
    39  H   -0.152379   0.295138
    40  H    0.009041   0.122484
    41  H   -0.050280   0.290240
    42  H   -0.014770   0.253954
    43  H    0.119151   0.102302
    44  H    0.229582   0.046290
 Sum of Mulliken charges =  -1.00000   1.00000

 Dipole moment (field-independent basis, Debye):
    X=             -2.4970    Y=             -1.8557    Z=              3.9949  Tot=              5.0634
 Quadrupole moment (field-independent basis, Debye-Ang):
   XX=           -182.5767   YY=           -146.8528   ZZ=           -146.7095
   XY=             -3.3236   XZ=              3.8069   YZ=             -0.1531

 Summary of Natural Population Analysis:

                                       Natural Population
                Natural  -----------------------------------------------
    Atom  No    Charge         Core      Valence    Rydberg      Total
 -----------------------------------------------------------------------
      C    1   -0.28815      0.99966     2.28394    0.00455     3.28815
      C    2   -0.19739      0.99959     2.18721    0.01059     3.19739
      C    3    0.05647      0.99956     1.93018    0.01379     2.94353
      C    4   -0.19477      0.99959     2.18463    0.01055     3.19477
      C    5   -0.28792      0.99966     2.28292    0.00535     3.28792
      C    6   -0.09697      0.99956     2.08460    0.01281     3.09697
      N    7   -0.35100      0.99974     2.84010    0.01115     3.85100
      C    8   -0.08669      0.99956     2.07525    0.01188     3.08669
      C    9    0.04895      0.99955     1.93671    0.01479     2.95105
      C   10   -0.19959      0.99959     2.18848    0.01152     3.19959
      C   11   -0.28817      0.99966     2.28252    0.00599     3.28817
      C   12   -0.19232      0.99959     2.18280    0.00993     3.19232
      C   13   -0.28692      0.99966     2.28261    0.00465     3.28692
      N   14   -0.42968      0.99976     2.91885    0.01107     3.92968
      N   15   -0.42919      0.99975     2.92032    0.00911     3.92919
      H   16    0.09349      0.00000     0.40556    0.00094     0.40651
      H   17    0.09639      0.00000     0.40282    0.00079     0.40361
      H   18    0.10604      0.00000     0.39270    0.00126     0.39396
      H   19    0.09902      0.00000     0.39971    0.00127     0.40098
      H   20    0.09838      0.00000     0.40020    0.00142     0.40162
      H   21    0.09427      0.00000     0.40468    0.00105     0.40573
      H   22    0.10154      0.00000     0.39734    0.00112     0.39846
      H   23    0.09975      0.00000     0.39888    0.00137     0.40025
      H   24    0.09874      0.00000     0.40048    0.00078     0.40126
      H   25    0.09807      0.00000     0.40093    0.00100     0.40193
      H   26    0.09675      0.00000     0.40173    0.00152     0.40325
      H   27    0.08444      0.00000     0.41353    0.00203     0.41556
      H   28    0.17677      0.00000     0.31937    0.00386     0.32323
      H   29    0.09584      0.00000     0.40308    0.00109     0.40416
      H   30    0.09896      0.00000     0.39947    0.00157     0.40104
      H   31    0.09972      0.00000     0.39831    0.00197     0.40028
      H   32    0.09689      0.00000     0.40113    0.00198     0.40311
      H   33    0.09748      0.00000     0.40130    0.00122     0.40252
      H   34    0.10274      0.00000     0.39620    0.00107     0.39726
      H   35    0.09353      0.00000     0.40533    0.00115     0.40647
      H   36    0.09632      0.00000     0.40234    0.00134     0.40368
      H   37    0.09867      0.00000     0.40006    0.00128     0.40133
      H   38    0.10572      0.00000     0.39300    0.00128     0.39428
      H   39    0.09583      0.00000     0.40336    0.00081     0.40417
      H   40    0.09418      0.00000     0.40484    0.00098     0.40582
      H   41    0.17697      0.00000     0.32071    0.00232     0.32303
      H   42    0.17413      0.00000     0.32380    0.00207     0.32587
      H   43    0.16954      0.00000     0.32878    0.00168     0.33046
      H   44    0.18315      0.00000     0.31486    0.00199     0.31685
 =======================================================================
   * Total *   -0.00000     14.99446    45.81561    0.18993    61.00000

 Normal termination of Gaussian 16 at Thu Dec 10 18:47:19 2020.
