 Gaussian 16, Revision A.03,

 -----------------------------------------------------------
 # opt freq B3LYP/6-31G(d) empiricaldispersion=gd3bj scf=xqc
 -----------------------------------------------------------

 ----------------------------
 CID_494467_JID_3607_neutraal
 ----------------------------
 Symbolic Z-matrix:
 Charge =  0 Multiplicity = 1

 SCF Done:  E(RB3LYP) =  -631.247791717     A.U. after   15 cycles
 SCF Done:  E(RB3LYP) =  -631.251416952     A.U. after   12 cycles
 SCF Done:  E(RB3LYP) =  -631.251978366     A.U. after   12 cycles
 SCF Done:  E(RB3LYP) =  -631.252328365     A.U. after   13 cycles
 SCF Done:  E(RB3LYP) =  -631.252537201     A.U. after   12 cycles
 SCF Done:  E(RB3LYP) =  -631.252739964     A.U. after   12 cycles
 SCF Done:  E(RB3LYP) =  -631.253226374     A.U. after   12 cycles
 SCF Done:  E(RB3LYP) =  -631.253486064     A.U. after   13 cycles
 SCF Done:  E(RB3LYP) =  -631.253729626     A.U. after   12 cycles
 SCF Done:  E(RB3LYP) =  -631.254101362     A.U. after   14 cycles
 SCF Done:  E(RB3LYP) =  -631.254453563     A.U. after    8 cycles
 SCF Done:  E(RB3LYP) =  -631.254453863     A.U. after    8 cycles
 SCF Done:  E(RB3LYP) =  -631.254454037     A.U. after    8 cycles
 SCF Done:  E(RB3LYP) =  -631.254454256     A.U. after    8 cycles
 SCF Done:  E(RB3LYP) =  -631.254454309     A.U. after    7 cycles
 Optimization completed.
    -- Stationary point found.
 Normal termination of Gaussian 16 at Wed Dec  9 23:51:48 2020.

 --------------------------------------------------------------------
 #N Geom=AllCheck Guess=TCheck SCRF=Check GenChk RB3LYP/6-31G(d) Freq
 --------------------------------------------------------------------

 Structure from the checkpoint file:  "JID_3607.chk"
 ----------------------------
 CID_494467_JID_3607_neutraal
 ----------------------------
 Charge =  0 Multiplicity = 1

 SCF Done:  E(RB3LYP) =  -631.254454309     A.U. after    1 cycles

  Exact polarizability: 127.167  -5.374 103.378   0.570   0.134  81.999
 Approx polarizability: 179.732 -11.320 150.714   8.669  -0.624 121.285

                      1                      2                      3
                      A                      A                      A
 Frequencies --     21.3354                34.7008                61.5111
 Red. masses --      5.0936                 5.3203                 4.3721
 Frc consts  --      0.0014                 0.0038                 0.0097
 IR Inten    --      0.6716                 2.6692                 1.4783

                      4                      5                      6
                      A                      A                      A
 Frequencies --     75.6134               119.9459               133.7024
 Red. masses --      4.1611                 2.3900                 1.3474
 Frc consts  --      0.0140                 0.0203                 0.0142
 IR Inten    --      1.7883                 1.5832                 0.2958

                      7                      8                      9
                      A                      A                      A
 Frequencies --    144.7154               165.5768               214.3514
 Red. masses --      3.6971                 1.0368                 3.7433
 Frc consts  --      0.0456                 0.0167                 0.1013
 IR Inten    --      0.3799                 0.0998                 6.1683

                     10                     11                     12
                      A                      A                      A
 Frequencies --    243.3939               285.7577               323.9703
 Red. masses --      3.6529                 3.9645                 3.3230
 Frc consts  --      0.1275                 0.1907                 0.2055
 IR Inten    --      3.1835                 3.6807                 4.8646

                     13                     14                     15
                      A                      A                      A
 Frequencies --    383.3740               434.9655               452.1464
 Red. masses --      3.4821                 3.9079                 4.5663
 Frc consts  --      0.3015                 0.4356                 0.5500
 IR Inten    --      2.2860                 9.1417                 9.0942

                     16                     17                     18
                      A                      A                      A
 Frequencies --    491.2115               556.3426               563.6276
 Red. masses --      3.1109                 3.0991                 2.1871
 Frc consts  --      0.4423                 0.5652                 0.4094
 IR Inten    --      6.1068                17.0768                 5.5930

                     19                     20                     21
                      A                      A                      A
 Frequencies --    662.8762               709.2580               745.3315
 Red. masses --      3.3141                 1.6128                 1.9862
 Frc consts  --      0.8580                 0.4780                 0.6501
 IR Inten    --     14.8329                61.9631                48.5598

                     22                     23                     24
                      A                      A                      A
 Frequencies --    767.0187               793.2092               814.1621
 Red. masses --      5.2091                 4.3569                 2.1837
 Frc consts  --      1.8056                 1.6151                 0.8528
 IR Inten    --      7.6995                 7.2095                17.6129

                     25                     26                     27
                      A                      A                      A
 Frequencies --    826.5752               852.3112               906.2690
 Red. masses --      3.5684                 3.7139                 2.8204
 Frc consts  --      1.4364                 1.5896                 1.3648
 IR Inten    --      2.9071                 4.6259                29.3280

                     28                     29                     30
                      A                      A                      A
 Frequencies --    951.4328               974.7662               982.4839
 Red. masses --      2.0922                 1.6087                 2.1294
 Frc consts  --      1.1158                 0.9006                 1.2110
 IR Inten    --     14.7123                 3.0550                 1.8433

                     31                     32                     33
                      A                      A                      A
 Frequencies --   1029.3332              1049.3747              1052.3137
 Red. masses --      2.4591                 1.7896                 2.5974
 Frc consts  --      1.5351                 1.1611                 1.6946
 IR Inten    --     10.1415                15.8285                 6.2551

                     34                     35                     36
                      A                      A                      A
 Frequencies --   1064.2566              1078.6844              1139.1182
 Red. masses --      1.7585                 2.6156                 1.9738
 Frc consts  --      1.1735                 1.7931                 1.5090
 IR Inten    --      3.5626                37.8402                66.0937

                     37                     38                     39
                      A                      A                      A
 Frequencies --   1144.0472              1186.9677              1217.8922
 Red. masses --      1.2325                 1.2732                 1.8960
 Frc consts  --      0.9504                 1.0569                 1.6570
 IR Inten    --     35.7614                 1.1158                26.4822

                     40                     41                     42
                      A                      A                      A
 Frequencies --   1222.9521              1251.4067              1291.5575
 Red. masses --      1.5147                 1.7145                 2.3713
 Frc consts  --      1.3348                 1.5819                 2.3306
 IR Inten    --     14.6745                14.0704               147.1079

                     43                     44                     45
                      A                      A                      A
 Frequencies --   1312.1341              1323.0542              1344.7067
 Red. masses --      1.6535                 1.3187                 1.3522
 Frc consts  --      1.6773                 1.3601                 1.4406
 IR Inten    --     18.9235                14.0119                15.2782

                     46                     47                     48
                      A                      A                      A
 Frequencies --   1357.6377              1370.6923              1390.8933
 Red. masses --      1.2431                 2.1852                 1.6699
 Frc consts  --      1.3500                 2.4189                 1.9034
 IR Inten    --     28.7585               162.6994                 2.0078

                     49                     50                     51
                      A                      A                      A
 Frequencies --   1426.5814              1491.8017              1503.8854
 Red. masses --      1.6160                 1.2098                 1.0866
 Frc consts  --      1.9377                 1.5863                 1.4479
 IR Inten    --    119.3104                15.0714                 4.8383

                     52                     53                     54
                      A                      A                      A
 Frequencies --   1508.4645              1510.9597              1512.8120
 Red. masses --      1.2571                 1.1690                 1.0547
 Frc consts  --      1.6853                 1.5724                 1.4221
 IR Inten    --     44.9283                22.4189                10.8491

                     55                     56                     57
                      A                      A                      A
 Frequencies --   1519.2777              1524.6893              1700.0863
 Red. masses --      1.1160                 1.0486                 6.4068
 Frc consts  --      1.5177                 1.4362                10.9102
 IR Inten    --     36.3773                10.9624                 2.7461

                     58                     59                     60
                      A                      A                      A
 Frequencies --   1791.3579              1831.6425              3056.2851
 Red. masses --      7.9286                11.0638                 1.0398
 Frc consts  --     14.9904                21.8694                 5.7224
 IR Inten    --    394.4793               250.7033                 5.9466

                     61                     62                     63
                      A                      A                      A
 Frequencies --   3079.1721              3080.6427              3101.8700
 Red. masses --      1.0660                 1.0293                 1.0840
 Frc consts  --      5.9551                 5.7554                 6.1453
 IR Inten    --     11.6430                29.5065                16.0815

                     64                     65                     66
                      A                      A                      A
 Frequencies --   3111.4606              3116.2780              3138.3855
 Red. masses --      1.0835                 1.1004                 1.1033
 Frc consts  --      6.1805                 6.2958                 6.4026
 IR Inten    --     25.4122                12.0934                16.4849

                     67                     68                     69
                      A                      A                      A
 Frequencies --   3158.2914              3178.1647              3189.9373
 Red. masses --      1.1077                 1.1000                 1.1079
 Frc consts  --      6.5101                 6.5461                 6.6423
 IR Inten    --     17.4423                 9.8699                 9.1596

                     70                     71                     72
                      A                      A                      A
 Frequencies --   3207.5405              3231.0215              3580.0920
 Red. masses --      1.0858                 1.1039                 1.0751
 Frc consts  --      6.5819                 6.7896                 8.1185
 IR Inten    --      3.4995                14.8583                54.7382

 - Thermochemistry -
 -------------------
 Temperature   298.150 Kelvin.  Pressure   1.00000 Atm.
 Atom     1 has atomic number  6 and mass  12.00000

 Molecular mass:   183.08954 amu.
 Principal axes and moments of inertia in atomic units:
                           1         2         3
     Eigenvalues --  1476.763593251.033624124.01538
           X            0.99940   0.03076  -0.01562
           Y           -0.03093   0.99946  -0.01117
           Z            0.01527   0.01165   0.99982
 This molecule is an asymmetric top.
 Rotational symmetry number  1.
 Warning -- assumption of classical behavior for rotation
           may cause significant error
 Rotational temperatures (Kelvin)      0.05865     0.02664     0.02100
 Rotational constants (GHZ):           1.22209     0.55513     0.43762
 Zero-point vibrational energy     568642.8 (Joules/Mol)
                                  135.90890 (Kcal/Mol)
 Warning -- explicit consideration of  18 degrees of freedom as
           vibrations may cause significant error
 Vibrational temperatures:     30.70    49.93    88.50   108.79   172.58
          (Kelvin)            192.37   208.21   238.23   308.40   350.19
                              411.14   466.12   551.59   625.82   650.54
                              706.74   800.45   810.93   953.73  1020.46
                             1072.37  1103.57  1141.25  1171.40  1189.26
                             1226.29  1303.92  1368.90  1402.47  1413.58
                             1480.98  1509.82  1514.04  1531.23  1551.99
                             1638.94  1646.03  1707.78  1752.28  1759.56
                             1800.50  1858.26  1887.87  1903.58  1934.73
                             1953.34  1972.12  2001.19  2052.53  2146.37
                             2163.76  2170.34  2173.93  2176.60  2185.90
                             2193.69  2446.04  2577.36  2635.33  4397.31
                             4430.24  4432.36  4462.90  4476.70  4483.63
                             4515.44  4544.08  4572.67  4589.61  4614.94
                             4648.72  5150.95

 Zero-point correction=                           0.216585 (Hartree/Particle)
 Thermal correction to Energy=                    0.229993
 Thermal correction to Enthalpy=                  0.230937
 Thermal correction to Gibbs Free Energy=         0.174502
 Sum of electronic and zero-point Energies=           -631.037870
 Sum of electronic and thermal Energies=              -631.024462
 Sum of electronic and thermal Enthalpies=            -631.023517
 Sum of electronic and thermal Free Energies=         -631.079952

                     E (Thermal)             CV                S
                      KCal/Mol        Cal/Mol-Kelvin    Cal/Mol-Kelvin
 Total                  144.323             48.020            118.777
 Electronic               0.000              0.000              0.000
 Translational            0.889              2.981             41.521
 Rotational               0.889              2.981             31.360
 Vibrational            142.545             42.058             45.896
 Vibration     1          0.593              1.985              6.506
 Vibration     2          0.594              1.983              5.541
 Vibration     3          0.597              1.973              4.408
 Vibration     4          0.599              1.965              4.002
 Vibration     5          0.609              1.933              3.101
 Vibration     6          0.613              1.920              2.892
 Vibration     7          0.616              1.908              2.741
 Vibration     8          0.624              1.885              2.485
 Vibration     9          0.644              1.819              2.006
 Vibration    10          0.659              1.774              1.778
 Vibration    11          0.684              1.700              1.499
 Vibration    12          0.709              1.627              1.290
 Vibration    13          0.753              1.506              1.026
 Vibration    14          0.796              1.394              0.843
 Vibration    15          0.811              1.356              0.789
 Vibration    16          0.847              1.270              0.680
 Vibration    17          0.912              1.126              0.531
 Vibration    18          0.919              1.110              0.517

 Optimization completed.
    -- Stationary point found.
 Normal termination of Gaussian 16 at Wed Dec  9 23:58:10 2020.

 ----------------------------------------------------------------------
 # B3LYP/6-311++G(d,p) empiricaldispersion=gd3bj scf=xqc pop=npa geom=c
 heck
 ----------------------------------------------------------------------

 ------------------------------------
 CID_494467_JID_3607_Energie_neutraal
 ------------------------------------
 Structure from the checkpoint file:  "JID_3607.chk"
 Charge =  0 Multiplicity = 1

 SCF Done:  E(RB3LYP) =  -631.443564729     A.U. after   15 cycles
 Normal termination of Gaussian 16 at Thu Dec 10 00:00:30 2020.

 ----------------------------------------------------------------------
 # B3LYP/6-311++G(d,p) empiricaldispersion=gd3bj scf=xqc pop=npa geom=c
 heck
 ----------------------------------------------------------------------

 ----------------------------------
 CID_494467_JID_3607_Energie_kation
 ----------------------------------
 Structure from the checkpoint file:  "JID_3607.chk"
 Charge =  1 Multiplicity = 2

 SCF Done:  E(UB3LYP) =  -631.121397153     A.U. after   25 cycles
 Normal termination of Gaussian 16 at Thu Dec 10 00:05:41 2020.
 Gaussian 16:  ES64L-G16RevA.03 25-Dec-2016

 ----------------------------------------------------------------------
 # B3LYP/6-311++G(d,p) empiricaldispersion=gd3bj scf=xqc pop=npa geom=c
 heck
 ----------------------------------------------------------------------

 ---------------------------------
 CID_494467_JID_3607_Energie_anion
 ---------------------------------
 Structure from the checkpoint file:  "JID_3607.chk"
 Charge = -1 Multiplicity = 2

                         Standard orientation:
 ---------------------------------------------------------------------
 Center     Atomic      Atomic             Coordinates (Angstroms)
 Number     Number       Type             X           Y           Z
 ---------------------------------------------------------------------
      1          6           0       -3.603620   -0.142706    0.678840
      2          6           0       -2.570860    0.706502   -0.046867
      3          8           0       -2.743266    1.900657   -0.256530
      4          7           0       -1.437943    0.069013   -0.490117
      5          6           0       -0.923087   -1.225030   -0.056293
      6          6           0        0.100760   -1.146292    1.114229
      7          6           0        1.508180   -1.209749    0.457901
      8          6           0        1.206670   -1.806634   -0.905474
      9          6           0       -0.100034   -1.839311   -1.168902
     10          6           0        2.201267    0.141518    0.330731
     11          8           0        3.339943    0.375500    0.666619
     12          8           0        1.383625    1.070521   -0.220246
     13          6           0        1.939988    2.389943   -0.357718
     14          1           0       -4.475500    0.482925    0.871375
     15          1           0       -3.213534   -0.513303    1.634144
     16          1           0       -3.905564   -1.011240    0.083024
     17          1           0       -0.727426    0.707370   -0.832129
     18          1           0       -1.779062   -1.848482    0.212815
     19          1           0       -0.053499   -0.253773    1.725107
     20          1           0       -0.016222   -2.022947    1.759032
     21          1           0        2.199049   -1.832561    1.033071
     22          1           0        1.996861   -2.132547   -1.574741
     23          1           0       -0.552039   -2.184014   -2.093381
     24          1           0        2.280261    2.760716    0.611783
     25          1           0        2.784174    2.374233   -1.051550
     26          1           0        1.130092    3.007675   -0.745145
 ---------------------------------------------------------------------

 SCF Done:  E(UB3LYP) =  -631.432813901     A.U. after   33 cycles
 SCF Done:  E(UB3LYP) =  -631.432813901     a.u. after    1 cycles

 The electronic state is 2-A.
 Alpha  occ. eigenvalues --  -19.08683 -19.02820 -18.98678 -14.22861 -10.21467
 Alpha  occ. eigenvalues --  -10.17316 -10.14363 -10.12010 -10.10179 -10.08666
 Alpha  occ. eigenvalues --  -10.08035 -10.07986 -10.07224  -1.02544  -0.93817
 Alpha  occ. eigenvalues --   -0.93663  -0.82782  -0.75386  -0.66631  -0.63952
 Alpha  occ. eigenvalues --   -0.62515  -0.61733  -0.52596  -0.48879  -0.47619
 Alpha  occ. eigenvalues --   -0.46011  -0.42661  -0.41136  -0.40302  -0.38868
 Alpha  occ. eigenvalues --   -0.38678  -0.36663  -0.34905  -0.33967  -0.32411
 Alpha  occ. eigenvalues --   -0.31242  -0.30196  -0.30002  -0.29114  -0.27925
 Alpha  occ. eigenvalues --   -0.27419  -0.27164  -0.26072  -0.25605  -0.22951
 Alpha  occ. eigenvalues --   -0.20245  -0.17109  -0.15990  -0.14904   0.04291
 Alpha virt. eigenvalues --    0.06440   0.07007   0.07349   0.07674   0.09052
 Alpha virt. eigenvalues --    0.09518   0.09855   0.10405   0.10608   0.10897
 Alpha virt. eigenvalues --    0.11438   0.12051   0.12558   0.13206   0.13378

  Beta  occ. eigenvalues --  -19.08673 -19.02805 -18.98675 -14.22856 -10.21453
  Beta  occ. eigenvalues --  -10.17314 -10.14348 -10.11994 -10.10169 -10.08653
  Beta  occ. eigenvalues --  -10.08012 -10.07947 -10.07178  -1.02522  -0.93797
  Beta  occ. eigenvalues --   -0.93654  -0.82764  -0.75351  -0.66595  -0.63895
  Beta  occ. eigenvalues --   -0.62455  -0.61691  -0.52541  -0.48842  -0.47575
  Beta  occ. eigenvalues --   -0.45966  -0.42599  -0.41101  -0.40262  -0.38822
  Beta  occ. eigenvalues --   -0.38642  -0.36630  -0.34872  -0.33939  -0.32362
  Beta  occ. eigenvalues --   -0.31212  -0.30164  -0.29965  -0.29063  -0.27895
  Beta  occ. eigenvalues --   -0.27380  -0.27120  -0.26028  -0.25569  -0.22910
  Beta  occ. eigenvalues --   -0.20221  -0.17076  -0.15977  -0.14888
  Beta virt. eigenvalues --    0.06419   0.07064   0.07372   0.08159   0.08580
  Beta virt. eigenvalues --    0.09662   0.10065   0.10249   0.10673   0.10898
  Beta virt. eigenvalues --    0.11115   0.11857   0.12302   0.13003   0.13652

 Mulliken charges and spin densities:
               1          2
     1  C    1.032966  -1.494865
     2  C   -0.157316   0.282127
     3  O   -0.364964   0.007478
     4  N    0.053658  -0.028569
     5  C   -0.587970   0.335105
     6  C    2.001361  -2.673476
     7  C   -0.647886   0.954563
     8  C    0.832015  -1.005147
     9  C   -0.355955   0.102888
    10  C    0.024080  -0.309126
    11  O   -0.267662   0.016826
    12  O   -0.115809   0.007346
    13  C    0.176258  -0.420346
    14  H    0.179052  -0.000165
    15  H   -0.387200   0.557836
    16  H   -0.444171   0.618813
    17  H    0.247876   0.079450
    18  H   -0.133272   0.357149
    19  H    0.206632  -0.026247
    20  H   -0.900427   1.111542
    21  H   -0.176141   0.447040
    22  H   -0.520068   0.705186
    23  H   -0.730362   0.917904
    24  H   -0.009163   0.180745
    25  H   -0.018674   0.193067
    26  H    0.063143   0.082875
 Sum of Mulliken charges =  -1.00000   1.00000

 Dipole moment (field-independent basis, Debye):
    X=              2.8487    Y=              5.0434    Z=             -0.9467  Tot=              5.8691
 Quadrupole moment (field-independent basis, Debye-Ang):
   XX=           -139.5462   YY=           -127.7271   ZZ=           -115.8545
   XY=              2.8227   XZ=             -0.4886   YZ=              1.9604

 Summary of Natural Population Analysis:

                                       Natural Population
                Natural  -----------------------------------------------
    Atom  No    Charge         Core      Valence    Rydberg      Total
 -----------------------------------------------------------------------
      C    1   -0.33560      0.99963     2.33103    0.00495     3.33560
      C    2    0.34613      0.99969     1.63219    0.02199     2.65387
      O    3   -0.32747      0.99988     3.32137    0.00623     4.32747
      N    4   -0.32402      0.99965     2.81388    0.01049     3.82402
      C    5   -0.03095      0.99957     2.01603    0.01535     3.03095
      C    6   -0.18595      0.99962     2.17659    0.00974     3.18595
      C    7   -0.16956      0.99954     2.15657    0.01344     3.16956
      C    8   -0.08365      0.99950     2.07372    0.01044     3.08365
      C    9   -0.08323      0.99949     2.07236    0.01138     3.08323
      C   10    0.42015      0.99965     1.55542    0.02477     2.57985
      O   11   -0.30270      0.99987     3.29687    0.00596     4.30270
      O   12   -0.28628      0.99986     3.27806    0.00836     4.28628
      C   13   -0.10402      0.99960     2.09642    0.00800     3.10402
      H   14    0.11081      0.00000     0.38837    0.00082     0.38919
      H   15    0.11201      0.00000     0.38655    0.00144     0.38799
      H   16    0.11084      0.00000     0.38767    0.00150     0.38916
      H   17    0.19987      0.00000     0.29689    0.00325     0.30013
      H   18    0.11096      0.00000     0.38484    0.00420     0.38904
      H   19    0.10538      0.00000     0.39278    0.00184     0.39462
      H   20    0.11213      0.00000     0.38434    0.00353     0.38787
      H   21    0.11688      0.00000     0.38179    0.00133     0.38312
      H   22    0.10455      0.00000     0.39389    0.00155     0.39545
      H   23    0.10657      0.00000     0.39137    0.00205     0.39343
      H   24    0.09223      0.00000     0.40643    0.00133     0.40777
      H   25    0.09034      0.00000     0.40828    0.00138     0.40966
      H   26    0.09458      0.00000     0.40439    0.00103     0.40542
 =======================================================================
   * Total *    0.00000     12.99554    35.82812    0.17634    49.00000

 Normal termination of Gaussian 16 at Thu Dec 10 00:12:35 2020.
