 Gaussian 16, Revision A.03,

 -----------------------------------------------------------
 # opt freq B3LYP/6-31G(d) empiricaldispersion=gd3bj scf=xqc
 -----------------------------------------------------------

 -----------------------------
 CID_139560111_JID_73_neutraal
 -----------------------------
 Symbolic Z-matrix:
 Charge =  0 Multiplicity = 1

 SCF Done:  E(RB3LYP) =  -895.551803020     A.U. after   14 cycles
 SCF Done:  E(RB3LYP) =  -895.555899439     A.U. after   12 cycles
 SCF Done:  E(RB3LYP) =  -895.556414892     A.U. after   11 cycles
 SCF Done:  E(RB3LYP) =  -895.556511271     A.U. after   11 cycles
 SCF Done:  E(RB3LYP) =  -895.556537369     A.U. after   11 cycles
 SCF Done:  E(RB3LYP) =  -895.556548898     A.U. after   10 cycles
 SCF Done:  E(RB3LYP) =  -895.556554287     A.U. after    9 cycles
 SCF Done:  E(RB3LYP) =  -895.556555097     A.U. after    8 cycles
 SCF Done:  E(RB3LYP) =  -895.556555496     A.U. after    8 cycles
 SCF Done:  E(RB3LYP) =  -895.556555668     A.U. after    8 cycles
 Optimization completed.
    -- Stationary point found.
 Normal termination of Gaussian 16 at Tue Dec  8 10:15:37 2020.

 --------------------------------------------------------------------
 #N Geom=AllCheck Guess=TCheck SCRF=Check GenChk RB3LYP/6-31G(d) Freq
 --------------------------------------------------------------------

 Structure from the checkpoint file:  "JID_73.chk"
 -----------------------------
 CID_139560111_JID_73_neutraal
 -----------------------------
 Charge =  0 Multiplicity = 1

 SCF Done:  E(RB3LYP) =  -895.556555668     A.U. after    1 cycles

  Exact polarizability:  89.729  -1.182  78.454   1.914  -1.724  66.080
 Approx polarizability: 111.432   0.651 117.502  -0.201  -4.470 108.321

                      1                      2                      3
                      A                      A                      A
 Frequencies --     34.4718                72.8338                91.9191
 Red. masses --      4.8152                 2.6080                 4.6724
 Frc consts  --      0.0034                 0.0082                 0.0233
 IR Inten    --      0.6550                 0.9096                 2.0694

                      4                      5                      6
                      A                      A                      A
 Frequencies --    108.9387               166.8221               200.5738
 Red. masses --      3.1630                 2.7440                 4.2296
 Frc consts  --      0.0221                 0.0450                 0.1003
 IR Inten    --      0.4407                 9.0423                 5.2071

                      7                      8                      9
                      A                      A                      A
 Frequencies --    222.0942               277.7576               301.8682
 Red. masses --      1.5218                 2.4532                 3.5459
 Frc consts  --      0.0442                 0.1115                 0.1904
 IR Inten    --      3.3952                 0.7394                 1.0973

                     10                     11                     12
                      A                      A                      A
 Frequencies --    385.5629               410.2944               457.3836
 Red. masses --      4.5078                 4.3775                 6.9238
 Frc consts  --      0.3948                 0.4342                 0.8534
 IR Inten    --      9.5965                17.0693                12.1263

                     13                     14                     15
                      A                      A                      A
 Frequencies --    509.8776               563.0115               631.6564
 Red. masses --      7.2689                 2.7707                 6.9202
 Frc consts  --      1.1134                 0.5175                 1.6268
 IR Inten    --     18.4206                16.8706                29.1165

                     16                     17                     18
                      A                      A                      A
 Frequencies --    698.2644               774.2833               804.9765
 Red. masses --      4.6695                 3.2079                 1.5409
 Frc consts  --      1.3414                 1.1331                 0.5883
 IR Inten    --     21.5115               121.2089               115.9697

                     19                     20                     21
                      A                      A                      A
 Frequencies --    886.9796               915.7693               980.3562
 Red. masses --      3.0208                 1.1753                 5.1215
 Frc consts  --      1.4002                 0.5807                 2.9001
 IR Inten    --     65.7544                 0.2726                68.9647

                     22                     23                     24
                      A                      A                      A
 Frequencies --    994.6433              1019.6978              1058.1539
 Red. masses --      1.7796                10.2485                 3.4734
 Frc consts  --      1.0373                 6.2785                 2.2914
 IR Inten    --      2.2090                71.4295                 1.7348

                     25                     26                     27
                      A                      A                      A
 Frequencies --   1080.8388              1095.9543              1122.8566
 Red. masses --      1.4521                 2.0226                 5.7953
 Frc consts  --      0.9994                 1.4314                 4.3050
 IR Inten    --     21.7225                 2.5729               141.1287

                     28                     29                     30
                      A                      A                      A
 Frequencies --   1148.5963              1156.3331              1161.6379
 Red. masses --      1.4480                 1.6001                 2.9746
 Frc consts  --      1.1255                 1.2605                 2.3649
 IR Inten    --      2.0980                42.9243               129.7930

                     31                     32                     33
                      A                      A                      A
 Frequencies --   1205.4988              1282.8739              1289.1226
 Red. masses --      1.3169                 1.2655                 1.3095
 Frc consts  --      1.1276                 1.2271                 1.2822
 IR Inten    --     10.7391                12.9515                 2.0543

                     34                     35                     36
                      A                      A                      A
 Frequencies --   1318.2549              1323.5122              1353.9077
 Red. masses --      2.0614                 1.5294                 2.2337
 Frc consts  --      2.1107                 1.5784                 2.4124
 IR Inten    --     79.7229                21.5800                86.1250

                     37                     38                     39
                      A                      A                      A
 Frequencies --   1367.2589              1420.8455              1440.6420
 Red. masses --      1.3040                 1.3385                 1.2235
 Frc consts  --      1.4363                 1.5921                 1.4961
 IR Inten    --      4.3081                24.3003                 2.7158

                     40                     41                     42
                      A                      A                      A
 Frequencies --   1486.6965              1521.4811              1536.2285
 Red. masses --      1.0911                 1.0365                 1.0836
 Frc consts  --      1.4209                 1.4136                 1.5067
 IR Inten    --      5.4545                 8.2390                 0.3999

                     43                     44                     45
                      A                      A                      A
 Frequencies --   1536.7980              1564.4856              3066.4975
 Red. masses --      1.0477                 1.1202                 1.0536
 Frc consts  --      1.4579                 1.6155                 5.8371
 IR Inten    --      8.2461                 4.8457                72.4403

                     46                     47                     48
                      A                      A                      A
 Frequencies --   3075.3465              3075.6241              3093.7461
 Red. masses --      1.0358                 1.0577                 1.0605
 Frc consts  --      5.7720                 5.8952                 5.9803
 IR Inten    --     16.4600                 1.4107                 2.9299

                     49                     50                     51
                      A                      A                      A
 Frequencies --   3118.0138              3124.4072              3142.2977
 Red. masses --      1.1070                 1.1116                 1.0955
 Frc consts  --      6.3407                 6.3932                 6.3731
 IR Inten    --     20.7084                 6.9640                48.7821

                     52                     53                     54
                      A                      A                      A
 Frequencies --   3146.1556              3147.3396              3167.6406
 Red. masses --      1.1037                 1.1031                 1.1050
 Frc consts  --      6.4366                 6.4380                 6.5328
 IR Inten    --      6.0313                 5.3455                 7.9204

 - Thermochemistry -
 -------------------
 Temperature   298.150 Kelvin.  Pressure   1.00000 Atm.
 Atom     1 has atomic number  6 and mass  12.00000

 Molecular mass:   166.02998 amu.
 Principal axes and moments of inertia in atomic units:
                           1         2         3
     Eigenvalues --   821.559352236.496982516.85167
           X            0.99964  -0.02677   0.00286
           Y            0.02680   0.99959  -0.01031
           Z           -0.00259   0.01038   0.99994
 This molecule is an asymmetric top.
 Rotational symmetry number  1.
 Warning -- assumption of classical behavior for rotation
           may cause significant error
 Rotational temperatures (Kelvin)      0.10543     0.03873     0.03441
 Rotational constants (GHZ):           2.19673     0.80695     0.71706
 Zero-point vibrational energy     419524.9 (Joules/Mol)
                                  100.26885 (Kcal/Mol)
 Warning -- explicit consideration of  14 degrees of freedom as
           vibrations may cause significant error
 Vibrational temperatures:     49.60   104.79   132.25   156.74   240.02
          (Kelvin)            288.58   319.54   399.63   434.32   554.74
                              590.32   658.07   733.60   810.05   908.81
                             1004.65  1114.02  1158.18  1276.17  1317.59
                             1410.51  1431.07  1467.12  1522.45  1555.09
                             1576.83  1615.54  1652.57  1663.71  1671.34
                             1734.44  1845.77  1854.76  1896.67  1904.24
                             1947.97  1967.18  2044.28  2072.76  2139.02
                             2189.07  2210.29  2211.11  2250.95  4412.01
                             4424.74  4425.14  4451.21  4486.13  4495.33
                             4521.07  4526.62  4528.32  4557.53

 Zero-point correction=                           0.159789 (Hartree/Particle)
 Thermal correction to Energy=                    0.170508
 Thermal correction to Enthalpy=                  0.171452
 Thermal correction to Gibbs Free Energy=         0.122310
 Sum of electronic and zero-point Energies=           -895.396767
 Sum of electronic and thermal Energies=              -895.386047
 Sum of electronic and thermal Enthalpies=            -895.385103
 Sum of electronic and thermal Free Energies=         -895.434246

                     E (Thermal)             CV                S
                      KCal/Mol        Cal/Mol-Kelvin    Cal/Mol-Kelvin
 Total                  106.996             38.053            103.429
 Electronic               0.000              0.000              0.000
 Translational            0.889              2.981             41.229
 Rotational               0.889              2.981             29.915
 Vibrational            105.218             32.091             32.284
 Vibration     1          0.594              1.983              5.554
 Vibration     2          0.599              1.967              4.075
 Vibration     3          0.602              1.955              3.619
 Vibration     4          0.606              1.942              3.288
 Vibration     5          0.624              1.883              2.471
 Vibration     6          0.638              1.839              2.128
 Vibration     7          0.648              1.807              1.942
 Vibration     8          0.679              1.715              1.547
 Vibration     9          0.694              1.670              1.407
 Vibration    10          0.754              1.501              1.017
 Vibration    11          0.774              1.448              0.926
 Vibration    12          0.816              1.345              0.774
 Vibration    13          0.865              1.228              0.634
 Vibration    14          0.919              1.111              0.518

                           ! Non-Optimized Parameters !
 Normal termination of Gaussian 16 at Tue Dec  8 10:18:49 2020.

 ----------------------------------------------------------------------
 # B3LYP/6-311++G(d,p) empiricaldispersion=gd3bj scf=xqc pop=npa geom=c
 heck
 ----------------------------------------------------------------------

 -------------------------------------
 CID_139560111_JID_73_Energie_neutraal
 -------------------------------------
 Structure from the checkpoint file:  "JID_73.chk"
 Charge =  0 Multiplicity = 1

 SCF Done:  E(RB3LYP) =  -895.731792806     A.U. after   14 cycles
 Normal termination of Gaussian 16 at Tue Dec  8 10:19:46 2020.

 ----------------------------------------------------------------------
 # B3LYP/6-311++G(d,p) empiricaldispersion=gd3bj scf=xqc pop=npa geom=c
 heck
 ----------------------------------------------------------------------

 -----------------------------------
 CID_139560111_JID_73_Energie_kation
 -----------------------------------
 Structure from the checkpoint file:  "JID_73.chk"
 Charge =  1 Multiplicity = 2

 SCF Done:  E(UB3LYP) =  -895.380848519     A.U. after   23 cycles
 Normal termination of Gaussian 16 at Tue Dec  8 10:22:02 2020.
 Gaussian 16:  ES64L-G16RevA.03 25-Dec-2016

 ----------------------------------------------------------------------
 # B3LYP/6-311++G(d,p) empiricaldispersion=gd3bj scf=xqc pop=npa geom=c
 heck
 ----------------------------------------------------------------------

 ----------------------------------
 CID_139560111_JID_73_Energie_anion
 ----------------------------------
 Structure from the checkpoint file:  "JID_73.chk"
 Charge = -1 Multiplicity = 2

                         Standard orientation:
 ---------------------------------------------------------------------
 Center     Atomic      Atomic             Coordinates (Angstroms)
 Number     Number       Type             X           Y           Z
 ---------------------------------------------------------------------
      1          6           0        2.675543   -1.529948   -0.027181
      2          6           0        2.496301   -0.044109   -0.313806
      3         16           0        0.867930    0.569039    0.163544
      4          8           0        0.518674    0.094980    1.503804
      5          8           0        0.771099    1.992869   -0.150285
      6          8           0        0.015128   -0.285637   -0.960602
      7          6           0       -1.414480   -0.383929   -0.841865
      8          6           0       -2.053288   -1.272034    0.237952
      9          8           0       -3.069008   -0.261419    0.453623
     10          6           0       -2.283723    0.736890   -0.239635
     11          1           0        2.509939   -1.741345    1.032158
     12          1           0        3.695441   -1.828855   -0.288255
     13          1           0        1.975978   -2.126888   -0.617357
     14          1           0        3.185460    0.578940    0.265120
     15          1           0        2.609060    0.207772   -1.371251
     16          1           0       -1.731335   -0.654221   -1.849825
     17          1           0       -2.482130   -2.226467   -0.085665
     18          1           0       -1.417009   -1.413556    1.117177
     19          1           0       -1.759412    1.401856    0.454223
     20          1           0       -2.882139    1.330571   -0.938137
 ---------------------------------------------------------------------

 SCF Done:  E(UB3LYP) =  -895.720808543     A.U. after   28 cycles

 The electronic state is 2-A.
 Alpha  occ. eigenvalues --  -88.97929 -19.07789 -19.03415 -19.03043 -19.03011
 Alpha  occ. eigenvalues --  -10.15234 -10.13247 -10.12552 -10.11660 -10.07098
 Alpha  occ. eigenvalues --   -8.04094  -6.00500  -6.00281  -6.00092  -1.05052
 Alpha  occ. eigenvalues --   -0.96491  -0.94370  -0.92216  -0.71380  -0.65912
 Alpha  occ. eigenvalues --   -0.60854  -0.58560  -0.53753  -0.47303  -0.43533
 Alpha  occ. eigenvalues --   -0.43293  -0.40943  -0.38235  -0.37339  -0.36442
 Alpha  occ. eigenvalues --   -0.34883  -0.32614  -0.31895  -0.31555  -0.30027
 Alpha  occ. eigenvalues --   -0.29016  -0.27355  -0.26177  -0.24320  -0.22920
 Alpha  occ. eigenvalues --   -0.22605  -0.21981  -0.19781  -0.16641   0.04469
 Alpha virt. eigenvalues --    0.06649   0.08246   0.08966   0.09433   0.10051
 Alpha virt. eigenvalues --    0.10393   0.11448   0.12727   0.13039   0.13372
 Alpha virt. eigenvalues --    0.14151   0.15001   0.15588   0.16357   0.17075

  Beta  occ. eigenvalues --  -88.97925 -19.07766 -19.03411 -19.03025 -19.03003
  Beta  occ. eigenvalues --  -10.15205 -10.13240 -10.12535 -10.11617 -10.07037
  Beta  occ. eigenvalues --   -8.04089  -6.00496  -6.00278  -6.00088  -1.05013
  Beta  occ. eigenvalues --   -0.96466  -0.94335  -0.92179  -0.71321  -0.65853
  Beta  occ. eigenvalues --   -0.60819  -0.58484  -0.53668  -0.47237  -0.43493
  Beta  occ. eigenvalues --   -0.43231  -0.40898  -0.38210  -0.37305  -0.36409
  Beta  occ. eigenvalues --   -0.34859  -0.32565  -0.31845  -0.31481  -0.29994
  Beta  occ. eigenvalues --   -0.28938  -0.27303  -0.26143  -0.24298  -0.22892
  Beta  occ. eigenvalues --   -0.22578  -0.21943  -0.19755  -0.16623
  Beta virt. eigenvalues --    0.07246   0.07974   0.08883   0.09419   0.10115
  Beta virt. eigenvalues --    0.10753   0.11083   0.11878   0.12860   0.13125
  Beta virt. eigenvalues --    0.14108   0.14499   0.15210   0.15618   0.16476

 Mulliken charges and spin densities:
               1          2
     1  C    1.505935  -1.906946
     2  C   -0.697858   0.251950
     3  S    1.302151  -1.231653
     4  O   -0.188118   0.002701
     5  O   -0.241421   0.080860
     6  O   -0.029248  -0.012866
     7  C   -0.971337   0.748155
     8  C    0.723832  -0.982753
     9  O   -0.220110   0.012841
    10  C    0.831345  -0.966355
    11  H   -0.142079   0.307232
    12  H   -0.981712   1.160415
    13  H   -0.293392   0.463800
    14  H   -0.257219   0.475031
    15  H   -0.427606   0.694660
    16  H   -0.942647   1.185727
    17  H   -0.313513   0.475317
    18  H    0.136692   0.070007
    19  H    0.246103  -0.028386
    20  H   -0.039797   0.200262
 Sum of Mulliken charges =  -1.00000   1.00000

 Dipole moment (field-independent basis, Debye):
    X=             -4.0356    Y=              3.2015    Z=              3.1236  Tot=              6.0243
 Quadrupole moment (field-independent basis, Debye-Ang):
   XX=           -134.3990   YY=           -102.7255   ZZ=           -103.3964
   XY=              4.4771   XZ=              1.7830   YZ=             -6.2096

 Summary of Natural Population Analysis:

                                       Natural Population
                Natural  -----------------------------------------------
    Atom  No    Charge         Core      Valence    Rydberg      Total
 -----------------------------------------------------------------------
      C    1   -0.29543      0.99965     2.28864    0.00714     3.29543
      C    2   -0.28254      0.99959     2.27134    0.01161     3.28254
      S    3    1.12054      4.99930     1.78078    0.09938     6.87946
      O    4   -0.45739      0.99990     3.45179    0.00569     4.45739
      O    5   -0.45409      0.99990     3.44866    0.00553     4.45409
      O    6   -0.37020      0.99990     3.35930    0.01101     4.37020
      C    7    0.04085      0.99952     1.94330    0.01634     2.95915
      C    8   -0.01682      0.99961     2.00457    0.01264     3.01682
      O    9   -0.30115      0.99991     3.29317    0.00806     4.30115
      C   10   -0.01940      0.99961     2.00702    0.01277     3.01940
      H   11    0.10627      0.00000     0.39241    0.00132     0.39373
      H   12    0.11191      0.00000     0.38306    0.00503     0.38809
      H   13    0.10948      0.00000     0.38824    0.00228     0.39052
      H   14    0.11707      0.00000     0.38138    0.00156     0.38293
      H   15    0.12262      0.00000     0.37485    0.00253     0.37738
      H   16    0.10504      0.00000     0.39095    0.00401     0.39496
      H   17    0.08796      0.00000     0.41022    0.00182     0.41204
      H   18    0.09505      0.00000     0.40328    0.00167     0.40495
      H   19    0.09218      0.00000     0.40620    0.00162     0.40782
      H   20    0.08808      0.00000     0.41063    0.00129     0.41192
 =======================================================================
   * Total *   -0.00000     13.99690    29.78979    0.21331    44.00000

 Normal termination of Gaussian 16 at Tue Dec  8 10:24:50 2020.
