 Gaussian 16, Revision A.03,

 -----------------------------------------------------------
 # opt freq B3LYP/6-31G(d) empiricaldispersion=gd3bj scf=xqc
 -----------------------------------------------------------

 -------------------------------
 CID_129237854_JID_8402_neutraal
 -------------------------------
 Symbolic Z-matrix:
 Charge =  0 Multiplicity = 1

 SCF Done:  E(RB3LYP) =  -782.941687710     A.U. after   15 cycles
 SCF Done:  E(RB3LYP) =  -782.963018346     A.U. after   12 cycles
 SCF Done:  E(RB3LYP) =  -782.966820111     A.U. after   12 cycles
 SCF Done:  E(RB3LYP) =  -782.970825741     A.U. after   12 cycles
 SCF Done:  E(RB3LYP) =  -782.974700102     A.U. after   12 cycles
 SCF Done:  E(RB3LYP) =  -782.977634689     A.U. after   13 cycles
 SCF Done:  E(RB3LYP) =  -782.978987759     A.U. after   12 cycles
 SCF Done:  E(RB3LYP) =  -782.980058100     A.U. after   12 cycles
 SCF Done:  E(RB3LYP) =  -782.980572789     A.U. after   12 cycles
 SCF Done:  E(RB3LYP) =  -782.980970697     A.U. after   11 cycles
 SCF Done:  E(RB3LYP) =  -782.981206207     A.U. after    9 cycles
 SCF Done:  E(RB3LYP) =  -782.981207911     A.U. after    9 cycles
 SCF Done:  E(RB3LYP) =  -782.981208248     A.U. after    8 cycles
 SCF Done:  E(RB3LYP) =  -782.981208338     A.U. after    7 cycles
 SCF Done:  E(RB3LYP) =  -782.981208367     A.U. after    6 cycles
 Optimization completed.
    -- Stationary point found.
 Normal termination of Gaussian 16 at Sun Dec 13 16:17:24 2020.

 --------------------------------------------------------------------
 #N Geom=AllCheck Guess=TCheck SCRF=Check GenChk RB3LYP/6-31G(d) Freq
 --------------------------------------------------------------------

 Structure from the checkpoint file:  "JID_8402.chk"
 -------------------------------
 CID_129237854_JID_8402_neutraal
 -------------------------------
 Charge =  0 Multiplicity = 1

 SCF Done:  E(RB3LYP) =  -782.981208367     A.U. after    2 cycles

  Exact polarizability: 295.096  24.718 206.786  -8.950  -4.357 109.405
 Approx polarizability: 427.659  45.113 297.157 -20.204  -9.426 161.703

                      1                      2                      3
                      A                      A                      A
 Frequencies --     33.1930                39.0040                54.4801
 Red. masses --      3.2734                 3.3851                 2.9324
 Frc consts  --      0.0021                 0.0030                 0.0051
 IR Inten    --      0.5862                 1.6072                 1.5096

                      4                      5                      6
                      A                      A                      A
 Frequencies --     70.9871                78.1067                94.3647
 Red. masses --      3.5864                 3.1731                 1.2903
 Frc consts  --      0.0106                 0.0114                 0.0068
 IR Inten    --      0.7798                 0.4448                 0.0889

                      7                      8                      9
                      A                      A                      A
 Frequencies --    115.3830               119.8181               140.8517
 Red. masses --      3.4677                 2.3916                 3.3106
 Frc consts  --      0.0272                 0.0202                 0.0387
 IR Inten    --      0.4369                 4.0636                 0.3965

                     10                     11                     12
                      A                      A                      A
 Frequencies --    163.1162               170.8921               187.5765
 Red. masses --      3.0098                 2.6950                 2.6523
 Frc consts  --      0.0472                 0.0464                 0.0550
 IR Inten    --      2.9980                 0.7936                 3.6493

                     13                     14                     15
                      A                      A                      A
 Frequencies --    205.1330               221.4104               247.8287
 Red. masses --      2.2404                 1.2187                 2.3473
 Frc consts  --      0.0555                 0.0352                 0.0849
 IR Inten    --      5.0593                 2.8547                 7.7300

                     16                     17                     18
                      A                      A                      A
 Frequencies --    259.5127               281.1499               293.5756
 Red. masses --      1.4276                 1.2748                 2.3032
 Frc consts  --      0.0566                 0.0594                 0.1170
 IR Inten    --      0.1906                37.3204                 3.6247

                     19                     20                     21
                      A                      A                      A
 Frequencies --    305.2373               332.6460               345.7057
 Red. masses --      1.4088                 2.5515                 3.2051
 Frc consts  --      0.0773                 0.1663                 0.2257
 IR Inten    --     27.8002                20.0706                 6.0371

                     22                     23                     24
                      A                      A                      A
 Frequencies --    372.2513               379.7910               405.9560
 Red. masses --      2.6575                 2.7239                 3.2162
 Frc consts  --      0.2170                 0.2315                 0.3123
 IR Inten    --      3.8905                 1.4491                79.5192

                     25                     26                     27
                      A                      A                      A
 Frequencies --    425.3433               451.3149               465.1170
 Red. masses --      3.0026                 2.7519                 2.7790
 Frc consts  --      0.3201                 0.3303                 0.3542
 IR Inten    --      4.1482                 8.3625                38.1477

                     28                     29                     30
                      A                      A                      A
 Frequencies --    485.6954               501.5302               520.6496
 Red. masses --      2.8162                 2.3807                 2.8841
 Frc consts  --      0.3914                 0.3528                 0.4606
 IR Inten    --    144.7596                71.9950                 4.6169

                     31                     32                     33
                      A                      A                      A
 Frequencies --    538.7365               577.7184               609.7817
 Red. masses --      2.9783                 2.9734                 2.8059
 Frc consts  --      0.5093                 0.5847                 0.6147
 IR Inten    --    123.9352                58.8838                 9.7479

                     34                     35                     36
                      A                      A                      A
 Frequencies --    658.0499               676.9208               690.4587
 Red. masses --      2.9670                 1.7620                 2.2284
 Frc consts  --      0.7570                 0.4757                 0.6259
 IR Inten    --     28.7105                 9.1936                28.7472

                     37                     38                     39
                      A                      A                      A
 Frequencies --    691.6357               724.5980               778.2413
 Red. masses --      2.5277                 1.4992                 1.6970
 Frc consts  --      0.7124                 0.4638                 0.6055
 IR Inten    --      1.2984                 5.9921                47.4409

                     40                     41                     42
                      A                      A                      A
 Frequencies --    789.8217               810.1828               829.1641
 Red. masses --      2.2832                 1.5162                 2.2274
 Frc consts  --      0.8392                 0.5864                 0.9023
 IR Inten    --     16.5428                29.2839                53.3754

                     43                     44                     45
                      A                      A                      A
 Frequencies --    851.3964               870.1107               889.8927
 Red. masses --      1.5455                 2.0616                 1.4475
 Frc consts  --      0.6601                 0.9196                 0.6754
 IR Inten    --      8.0122                38.3507                55.0687

                     46                     47                     48
                      A                      A                      A
 Frequencies --    895.7678               900.9609               929.7601
 Red. masses --      1.3757                 2.0485                 1.9343
 Frc consts  --      0.6504                 0.9797                 0.9852
 IR Inten    --     49.9674               143.2028                 4.7185

                     49                     50                     51
                      A                      A                      A
 Frequencies --    995.4956               995.9716              1003.0466
 Red. masses --      1.7369                 1.7809                 1.1380
 Frc consts  --      1.0142                 1.0408                 0.6746
 IR Inten    --      4.3611                23.4454                15.2134

                     52                     53                     54
                      A                      A                      A
 Frequencies --   1014.0293              1034.6894              1053.9977
 Red. masses --      2.1188                 1.7638                 2.1021
 Frc consts  --      1.2836                 1.1126                 1.3759
 IR Inten    --      5.1794                35.4133                56.2198

                     55                     56                     57
                      A                      A                      A
 Frequencies --   1073.9993              1093.3898              1114.9672
 Red. masses --      1.4499                 2.1979                 1.7858
 Frc consts  --      0.9854                 1.5481                 1.3080
 IR Inten    --     17.7743                22.3194                 7.2296

                     58                     59                     60
                      A                      A                      A
 Frequencies --   1147.7052              1157.6353              1176.2258
 Red. masses --      2.2385                 1.3749                 2.4591
 Frc consts  --      1.7373                 1.0856                 2.0045
 IR Inten    --      6.9895                29.9452                45.5850

                     61                     62                     63
                      A                      A                      A
 Frequencies --   1190.9429              1211.9142              1216.9645
 Red. masses --      2.0917                 2.9361                 2.1489
 Frc consts  --      1.7480                 2.5407                 1.8751
 IR Inten    --     26.3729                 7.1384               119.6278

                     64                     65                     66
                      A                      A                      A
 Frequencies --   1248.4030              1265.6283              1283.6210
 Red. masses --      2.1482                 1.5851                 1.5626
 Frc consts  --      1.9726                 1.4959                 1.5170
 IR Inten    --     36.3854                35.9897               111.8580

                     67                     68                     69
                      A                      A                      A
 Frequencies --   1300.2857              1316.3625              1352.5680
 Red. masses --      2.0992                 2.3722                 1.9401
 Frc consts  --      2.0911                 2.4219                 2.0912
 IR Inten    --     48.3080                35.2654                72.7035

                     70                     71                     72
                      A                      A                      A
 Frequencies --   1368.9124              1383.3695              1392.2493
 Red. masses --      1.3627                 1.4402                 1.6915
 Frc consts  --      1.5046                 1.6238                 1.9318
 IR Inten    --     60.2368                66.8935               117.8278

                     73                     74                     75
                      A                      A                      A
 Frequencies --   1411.1402              1422.3245              1437.1455
 Red. masses --      1.8622                 1.3025                 1.5307
 Frc consts  --      2.1848                 1.5524                 1.8627
 IR Inten    --    132.7901                43.6867               185.6918

                     76                     77                     78
                      A                      A                      A
 Frequencies --   1445.7012              1454.9158              1459.7426
 Red. masses --      1.4231                 1.3041                 1.3648
 Frc consts  --      1.7525                 1.6264                 1.7135
 IR Inten    --      9.9322                50.9938                46.7617

                     79                     80                     81
                      A                      A                      A
 Frequencies --   1486.1440              1493.0029              1500.1451
 Red. masses --      1.2078                 1.2787                 1.4971
 Frc consts  --      1.5717                 1.6794                 1.9850
 IR Inten    --      3.5006                17.8413               164.7995

                     82                     83                     84
                      A                      A                      A
 Frequencies --   1509.8269              1511.7897              1520.6820
 Red. masses --      1.0870                 1.0785                 1.0652
 Frc consts  --      1.4600                 1.4523                 1.4513
 IR Inten    --     16.9771                 3.6670                 2.3000

                     85                     86                     87
                      A                      A                      A
 Frequencies --   1522.7133              1538.3340              1538.5606
 Red. masses --      1.1028                 1.0651                 1.2353
 Frc consts  --      1.5065                 1.4851                 1.7229
 IR Inten    --     20.0332                 2.0964                 4.7208

                     88                     89                     90
                      A                      A                      A
 Frequencies --   1559.3447              1669.2610              1676.0231
 Red. masses --      1.1892                 6.4365                 1.1108
 Frc consts  --      1.7037                10.5669                 1.8385
 IR Inten    --     97.2754                91.4333                33.7455

                     91                     92                     93
                      A                      A                      A
 Frequencies --   1687.4920              1688.9196              1708.6989
 Red. masses --      4.7168                 1.1489                 4.6212
 Frc consts  --      7.9138                 1.9309                 7.9495
 IR Inten    --    142.3031                30.7088               421.2554

                     94                     95                     96
                      A                      A                      A
 Frequencies --   1718.0049              2985.3609              2991.0826
 Red. masses --      5.0788                 1.0837                 1.0555
 Frc consts  --      8.8321                 5.6905                 5.5639
 IR Inten    --     40.3662                49.0421                64.7054

                     97                     98                     99
                      A                      A                      A
 Frequencies --   3031.8873              3038.5950              3061.0262
 Red. masses --      1.0449                 1.0860                 1.0446
 Frc consts  --      5.6589                 5.9076                 5.7666
 IR Inten    --     83.4787                53.2495                39.8528

                    100                    101                    102
                      A                      A                      A
 Frequencies --   3077.8940              3084.8059              3137.8486
 Red. masses --      1.0978                 1.0810                 1.1013
 Frc consts  --      6.1274                 6.0610                 6.3886
 IR Inten    --     21.6675                39.8630                30.5998

                    103                    104                    105
                      A                      A                      A
 Frequencies --   3138.1091              3162.5915              3172.7589
 Red. masses --      1.0906                 1.0930                 1.1038
 Frc consts  --      6.3278                 6.4413                 6.5468
 IR Inten    --     19.0554                 2.4868                 9.2519

                    106                    107                    108
                      A                      A                      A
 Frequencies --   3176.6393              3189.4177              3200.8586
 Red. masses --      1.0873                 1.0588                 1.0908
 Frc consts  --      6.4642                 6.3455                 6.5847
 IR Inten    --     25.8817                 5.1477                 7.1020

                    109                    110                    111
                      A                      A                      A
 Frequencies --   3222.5272              3237.8359              3269.4204
 Red. masses --      1.0778                 1.0658                 1.1152
 Frc consts  --      6.5945                 6.5832                 7.0236
 IR Inten    --     12.2142                 8.2155                17.9919

                    112                    113                    114
                      A                      A                      A
 Frequencies --   3325.6842              3466.8233              3470.5166
 Red. masses --      1.1158                 1.0498                 1.0493
 Frc consts  --      7.2709                 7.4338                 7.4461
 IR Inten    --      2.2002                 0.4170                 1.2020

                    115                    116                    117
                      A                      A                      A
 Frequencies --   3558.3603              3563.7062              3574.4045
 Red. masses --      1.0922                 1.0933                 1.0757
 Frc consts  --      8.1477                 8.1804                 8.0975
 IR Inten    --      0.6446                 0.7034                 5.2995

 - Thermochemistry -
 -------------------
 Temperature   298.150 Kelvin.  Pressure   1.00000 Atm.
 Atom     1 has atomic number  6 and mass  12.00000

 Molecular mass:   249.19535 amu.
 Principal axes and moments of inertia in atomic units:
                           1         2         3
     Eigenvalues --  3146.239137545.774839878.41764
           X            1.00000  -0.00086   0.00091
           Y            0.00086   1.00000   0.00114
           Z           -0.00091  -0.00114   1.00000
 This molecule is an asymmetric top.
 Rotational symmetry number  1.
 Warning -- assumption of classical behavior for rotation
           may cause significant error
 Rotational temperatures (Kelvin)      0.02753     0.01148     0.00877
 Rotational constants (GHZ):           0.57362     0.23917     0.18270
 Zero-point vibrational energy     944878.0 (Joules/Mol)
                                  225.83125 (Kcal/Mol)
 Warning -- explicit consideration of  33 degrees of freedom as
           vibrations may cause significant error
 Vibrational temperatures:     47.76    56.12    78.38   102.13   112.38
          (Kelvin)            135.77   166.01   172.39   202.65   234.69
                              245.88   269.88   295.14   318.56   356.57
                              373.38   404.51   422.39   439.17   478.60
                              497.39   535.59   546.43   584.08   611.97
                              649.34   669.20   698.81   721.59   749.10
                              775.12   831.21   877.34   946.79   973.94
                              993.42   995.11  1042.53  1119.72  1136.38
                             1165.67  1192.98  1224.97  1251.90  1280.36
                             1288.81  1296.28  1337.72  1432.30  1432.98
                             1443.16  1458.96  1488.69  1516.47  1545.25
                             1573.14  1604.19  1651.29  1665.58  1692.33
                             1713.50  1743.67  1750.94  1796.17  1820.96
                             1846.84  1870.82  1893.95  1946.04  1969.56
                             1990.36  2003.14  2030.32  2046.41  2067.73
                             2080.04  2093.30  2100.24  2138.23  2148.10
                             2158.37  2172.30  2175.13  2187.92  2190.84
                             2213.32  2213.65  2243.55  2401.69  2411.42
                             2427.92  2429.98  2458.44  2471.83  4295.27
                             4303.50  4362.21  4371.86  4404.13  4428.40
                             4438.35  4514.66  4515.04  4550.26  4564.89
                             4570.48  4588.86  4605.32  4636.50  4658.52
                             4703.97  4784.92  4987.99  4993.30  5119.69
                             5127.38  5142.77

 Zero-point correction=                           0.359885 (Hartree/Particle)
 Thermal correction to Energy=                    0.380318
 Thermal correction to Enthalpy=                  0.381263
 Thermal correction to Gibbs Free Energy=         0.311107
 Sum of electronic and zero-point Energies=           -782.621323
 Sum of electronic and thermal Energies=              -782.600890
 Sum of electronic and thermal Enthalpies=            -782.599946
 Sum of electronic and thermal Free Energies=         -782.670101

                     E (Thermal)             CV                S
                      KCal/Mol        Cal/Mol-Kelvin    Cal/Mol-Kelvin
 Total                  238.653             77.188            147.654
 Electronic               0.000              0.000              0.000
 Translational            0.889              2.981             42.440
 Rotational               0.889              2.981             33.816
 Vibrational            236.876             71.226             71.398
 Vibration     1          0.594              1.983              5.629
 Vibration     2          0.594              1.981              5.309
 Vibration     3          0.596              1.976              4.648
 Vibration     4          0.598              1.968              4.126
 Vibration     5          0.599              1.964              3.938
 Vibration     6          0.603              1.953              3.567
 Vibration     7          0.608              1.937              3.176
 Vibration     8          0.609              1.933              3.103
 Vibration     9          0.615              1.912              2.792
 Vibration    10          0.623              1.888              2.513
 Vibration    11          0.626              1.878              2.426
 Vibration    12          0.632              1.857              2.252
 Vibration    13          0.640              1.833              2.087
 Vibration    14          0.648              1.808              1.948
 Vibration    15          0.661              1.766              1.746
 Vibration    16          0.668              1.747              1.665
 Vibration    17          0.681              1.709              1.527
 Vibration    18          0.688              1.686              1.453
 Vibration    19          0.696              1.664              1.388
 Vibration    20          0.715              1.610              1.247
 Vibration    21          0.724              1.584              1.186
 Vibration    22          0.744              1.529              1.070
 Vibration    23          0.750              1.513              1.040
 Vibration    24          0.771              1.457              0.941
 Vibration    25          0.787              1.415              0.874
 Vibration    26          0.810              1.358              0.792
 Vibration    27          0.823              1.327              0.751
 Vibration    28          0.842              1.282              0.695
 Vibration    29          0.857              1.247              0.654
 Vibration    30          0.876              1.204              0.608
 Vibration    31          0.894              1.164              0.568
 Vibration    32          0.934              1.079              0.490
 Vibration    33          0.969              1.011              0.433

                           ! Non-Optimized Parameters !
 Normal termination of Gaussian 16 at Sun Dec 13 16:36:55 2020.

 ----------------------------------------------------------------------
 # B3LYP/6-311++G(d,p) empiricaldispersion=gd3bj scf=xqc pop=npa geom=c
 heck
 ----------------------------------------------------------------------

 ---------------------------------------
 CID_129237854_JID_8402_Energie_neutraal
 ---------------------------------------
 Structure from the checkpoint file:  "JID_8402.chk"
 Charge =  0 Multiplicity = 1

 SCF Done:  E(RB3LYP) =  -783.216149789     A.U. after   15 cycles
 Normal termination of Gaussian 16 at Sun Dec 13 16:46:14 2020.

 ----------------------------------------------------------------------
 # B3LYP/6-311++G(d,p) empiricaldispersion=gd3bj scf=xqc pop=npa geom=c
 heck
 ----------------------------------------------------------------------

 -------------------------------------
 CID_129237854_JID_8402_Energie_kation
 -------------------------------------
 Structure from the checkpoint file:  "JID_8402.chk"
 Charge =  1 Multiplicity = 2

 SCF Done:  E(UB3LYP) =  -782.998839797     A.U. after   23 cycles
 Normal termination of Gaussian 16 at Sun Dec 13 17:07:22 2020.
 Gaussian 16:  ES64L-G16RevA.03 25-Dec-2016

 ----------------------------------------------------------------------
 # B3LYP/6-311++G(d,p) empiricaldispersion=gd3bj scf=xqc pop=npa geom=c
 heck
 ----------------------------------------------------------------------

 ------------------------------------
 CID_129237854_JID_8402_Energie_anion
 ------------------------------------
 Structure from the checkpoint file:  "JID_8402.chk"
 Charge = -1 Multiplicity = 2

                         Standard orientation:
 ---------------------------------------------------------------------
 Center     Atomic      Atomic             Coordinates (Angstroms)
 Number     Number       Type             X           Y           Z
 ---------------------------------------------------------------------
      1          6           0        3.263852   -2.022524    1.304984
      2          6           0        3.141509   -1.442648   -0.109524
      3          7           0        2.981302   -2.533613   -1.075628
      4          7           0        2.037272   -0.507167   -0.286186
      5          6           0        2.302528    0.905453   -0.105452
      6          7           0        0.971105    1.480616   -0.225961
      7          6           0       -0.031060    0.493823   -0.097223
      8          6           0       -1.353441    0.792058    0.009045
      9          6           0       -2.464451   -0.121167   -0.103260
     10          6           0       -3.752061    0.159023    0.238296
     11          6           0       -4.195848    1.433406    0.906805
     12          7           0       -4.810947   -0.692116   -0.066406
     13          6           0       -4.572124   -2.034701   -0.556803
     14          6           0        0.674544   -0.803980   -0.090933
     15          6           0        0.146575   -2.033103    0.077435
     16          6           0        0.774348    2.777108   -0.650018
     17          6           0        1.693560    3.756308   -0.719202
     18          7           0        2.995712    1.177254    1.149829
     19          1           0        2.330653   -2.495419    1.617255
     20          1           0        3.519609   -1.223033    2.003111
     21          1           0        4.060578   -2.775558    1.336309
     22          1           0        4.041624   -0.835429   -0.295391
     23          1           0        2.925201   -2.142404   -2.014503
     24          1           0        3.802771   -3.134483   -1.043161
     25          1           0        2.938772    1.305296   -0.906350
     26          1           0       -1.593315    1.844151    0.137469
     27          1           0       -2.259941   -1.077969   -0.566871
     28          1           0       -4.770712    2.063349    0.215765
     29          1           0       -4.849641    1.214738    1.762778
     30          1           0       -3.351238    2.010433    1.284172
     31          1           0       -5.586998   -0.622058    0.579789
     32          1           0       -3.933907   -2.634408    0.113175
     33          1           0       -5.531984   -2.543306   -0.677952
     34          1           0       -4.083075   -1.993038   -1.536215
     35          1           0       -0.905065   -2.155282    0.283843
     36          1           0        0.765276   -2.915179   -0.001237
     37          1           0       -0.243599    2.967940   -0.977064
     38          1           0        1.415423    4.717872   -1.132917
     39          1           0        2.723706    3.640421   -0.400521
     40          1           0        3.238967    2.165024    1.200452
     41          1           0        2.358208    0.989192    1.923635
 ---------------------------------------------------------------------

 SCF Done:  E(UB3LYP) =  -783.206848653     A.U. after   33 cycles
 SCF Done:  E(UB3LYP) =  -783.206848653     a.u. after    1 cycles

 The electronic state is 2-A.
 Alpha  occ. eigenvalues --  -14.24524 -14.22554 -14.21671 -14.21266 -14.20264
 Alpha  occ. eigenvalues --  -10.17562 -10.14029 -10.11470 -10.10141 -10.09840
 Alpha  occ. eigenvalues --  -10.09468 -10.09395 -10.06582 -10.05983 -10.05909
 Alpha  occ. eigenvalues --  -10.05162 -10.04355 -10.02600  -0.91413  -0.83439
 Alpha  occ. eigenvalues --   -0.82725  -0.79508  -0.77271  -0.69792  -0.67292
 Alpha  occ. eigenvalues --   -0.65456  -0.63997  -0.62034  -0.58296  -0.57565
 Alpha  occ. eigenvalues --   -0.56409  -0.54264  -0.49911  -0.47050  -0.44805
 Alpha  occ. eigenvalues --   -0.44002  -0.41636  -0.41130  -0.39689  -0.39614
 Alpha  occ. eigenvalues --   -0.39334  -0.38409  -0.36083  -0.35630  -0.34553
 Alpha  occ. eigenvalues --   -0.34194  -0.32638  -0.31867  -0.31460  -0.31193
 Alpha  occ. eigenvalues --   -0.30198  -0.29764  -0.29069  -0.28256  -0.28017
 Alpha  occ. eigenvalues --   -0.27878  -0.27660  -0.26710  -0.26447  -0.23625
 Alpha  occ. eigenvalues --   -0.22823  -0.20452  -0.18063  -0.17049  -0.15331
 Alpha  occ. eigenvalues --   -0.12993  -0.10323  -0.06095   0.04058
 Alpha virt. eigenvalues --    0.05344   0.06111   0.06732   0.07591   0.07668
 Alpha virt. eigenvalues --    0.08287   0.08984   0.09484   0.09899   0.10224
 Alpha virt. eigenvalues --    0.10573   0.10884   0.11510   0.11611   0.12047

  Beta  occ. eigenvalues --  -14.24545 -14.22549 -14.21611 -14.21254 -14.20249
  Beta  occ. eigenvalues --  -10.17553 -10.14021 -10.11453 -10.10123 -10.09827
  Beta  occ. eigenvalues --  -10.09340 -10.09307 -10.06563 -10.05963 -10.05872
  Beta  occ. eigenvalues --  -10.05080 -10.04392 -10.02526  -0.91382  -0.83419
  Beta  occ. eigenvalues --   -0.82602  -0.79479  -0.77235  -0.69658  -0.67184
  Beta  occ. eigenvalues --   -0.65381  -0.63938  -0.61953  -0.58221  -0.57499
  Beta  occ. eigenvalues --   -0.56338  -0.54159  -0.49815  -0.46967  -0.44706
  Beta  occ. eigenvalues --   -0.43926  -0.41582  -0.41086  -0.39649  -0.39524
  Beta  occ. eigenvalues --   -0.39301  -0.38348  -0.36034  -0.35573  -0.34440
  Beta  occ. eigenvalues --   -0.34156  -0.32588  -0.31807  -0.31376  -0.31130
  Beta  occ. eigenvalues --   -0.30133  -0.29715  -0.29019  -0.28214  -0.27966
  Beta  occ. eigenvalues --   -0.27831  -0.27609  -0.26588  -0.26362  -0.23497
  Beta  occ. eigenvalues --   -0.22711  -0.20195  -0.18018  -0.16788  -0.15287
  Beta  occ. eigenvalues --   -0.12825  -0.10052  -0.05669
  Beta virt. eigenvalues --    0.05919   0.06678   0.06871   0.07002   0.07764
  Beta virt. eigenvalues --    0.07898   0.08513   0.09236   0.09769   0.10088
  Beta virt. eigenvalues --    0.10374   0.10681   0.11097   0.11625   0.11712

 Mulliken charges and spin densities:
               1          2
     1  C    0.281450  -0.785795
     2  C   -0.524185   0.223681
     3  N   -0.286230  -0.022475
     4  N    0.128559   0.006788
     5  C   -0.248109  -0.575903
     6  N    0.364300   0.005286
     7  C    0.490013  -0.354399
     8  C    0.329298  -0.470595
     9  C   -0.209475  -0.068926
    10  C   -0.117737   0.419368
    11  C   -0.389129  -0.330455
    12  N   -0.136526   0.065446
    13  C   -0.150026  -0.281287
    14  C    0.318900  -0.191869
    15  C   -0.575978   0.127796
    16  C    0.292272  -0.179576
    17  C   -0.642016   0.090671
    18  N   -0.319324   0.090596
    19  H    0.043959   0.123699
    20  H    0.149188  -0.010369
    21  H   -0.201852   0.320208
    22  H   -0.339668   0.493930
    23  H    0.209524   0.039051
    24  H    0.044135   0.188104
    25  H    0.075174   0.140687
    26  H    0.174918  -0.123675
    27  H    0.035055   0.011294
    28  H    0.099694   0.054398
    29  H   -0.348100   0.488621
    30  H   -0.130906   0.272921
    31  H   -0.211830   0.464982
    32  H    0.119620   0.026567
    33  H   -0.311396   0.468293
    34  H    0.135342   0.016021
    35  H    0.040868   0.019232
    36  H    0.256438  -0.063274
    37  H    0.105277   0.024307
    38  H    0.083691   0.049826
    39  H   -0.029214   0.118708
    40  H    0.210861   0.026947
    41  H    0.183166   0.081173
 Sum of Mulliken charges =  -1.00000   1.00000

 Dipole moment (field-independent basis, Debye):
    X=              4.3756    Y=              1.8464    Z=             -1.7523  Tot=              5.0621
 Quadrupole moment (field-independent basis, Debye-Ang):
   XX=           -219.4237   YY=           -149.3994   ZZ=           -138.0263
   XY=             -0.1648   XZ=             10.9893   YZ=              2.5156

 Summary of Natural Population Analysis:

                                       Natural Population
                Natural  -----------------------------------------------
    Atom  No    Charge         Core      Valence    Rydberg      Total
 -----------------------------------------------------------------------
      C    1   -0.29863      0.99964     2.29273    0.00626     3.29863
      C    2    0.08941      0.99963     1.89602    0.01494     2.91059
      N    3   -0.42338      0.99976     2.91287    0.01075     3.92338
      N    4   -0.26755      0.99963     2.75572    0.01220     3.76755
      C    5    0.18921      0.99963     1.79337    0.01779     2.81079
      N    6   -0.24508      0.99961     2.73585    0.00962     3.74508
      C    7    0.08008      0.99948     1.90905    0.01139     2.91992
      C    8   -0.10868      0.99952     2.10135    0.00782     3.10868
      C    9   -0.17475      0.99949     2.16514    0.01013     3.17475
      C   10    0.12526      0.99952     1.86412    0.01111     2.87474
      C   11   -0.30376      0.99963     2.29761    0.00652     3.30376
      N   12   -0.31011      0.99968     2.79796    0.01247     3.81011
      C   13   -0.18118      0.99966     2.17268    0.00884     3.18118
      C   14    0.08328      0.99950     1.90616    0.01106     2.91672
      C   15   -0.23404      0.99956     2.22776    0.00672     3.23404
      C   16    0.02273      0.99956     1.96703    0.01068     2.97727
      C   17   -0.26118      0.99962     2.25274    0.00883     3.26118
      N   18   -0.42700      0.99976     2.91803    0.00921     3.92700
      H   19    0.10788      0.00000     0.39113    0.00099     0.39212
      H   20    0.10618      0.00000     0.39266    0.00116     0.39382
      H   21    0.09539      0.00000     0.40369    0.00091     0.40461
      H   22    0.08526      0.00000     0.41263    0.00211     0.41474
      H   23    0.17689      0.00000     0.32157    0.00154     0.32311
      H   24    0.17424      0.00000     0.32438    0.00138     0.32576
      H   25    0.08943      0.00000     0.40872    0.00185     0.41057
      H   26    0.09392      0.00000     0.40450    0.00158     0.40608
      H   27    0.10112      0.00000     0.39663    0.00225     0.39888
      H   28    0.10176      0.00000     0.39718    0.00106     0.39824
      H   29    0.10499      0.00000     0.39293    0.00208     0.39501
      H   30    0.10618      0.00000     0.39306    0.00076     0.39382
      H   31    0.18655      0.00000     0.30613    0.00732     0.31345
      H   32    0.08639      0.00000     0.41210    0.00151     0.41361
      H   33    0.09681      0.00000     0.40236    0.00083     0.40319
      H   34    0.09333      0.00000     0.40544    0.00123     0.40667
      H   35    0.09806      0.00000     0.40070    0.00124     0.40194
      H   36    0.10479      0.00000     0.39394    0.00127     0.39521
      H   37    0.09763      0.00000     0.40095    0.00142     0.40237
      H   38    0.09620      0.00000     0.40298    0.00082     0.40380
      H   39    0.08754      0.00000     0.41123    0.00123     0.41246
      H   40    0.17773      0.00000     0.32045    0.00182     0.32227
      H   41    0.17711      0.00000     0.32128    0.00161     0.32289
 =======================================================================
   * Total *   -0.00000     17.99283    49.78284    0.22432    68.00000

 Normal termination of Gaussian 16 at Sun Dec 13 17:37:05 2020.
