 Gaussian 16, Revision A.03,

 -----------------------------------------------------------
 # opt freq B3LYP/6-31G(d) empiricaldispersion=gd3bj scf=xqc
 -----------------------------------------------------------

 -----------------------------
 CID_3031297_JID_1602_neutraal
 -----------------------------
 Symbolic Z-matrix:
 Charge =  0 Multiplicity = 1

 SCF Done:  E(RB3LYP) =  -533.945461482     A.U. after   14 cycles
 SCF Done:  E(RB3LYP) =  -533.948847649     A.U. after   12 cycles
 SCF Done:  E(RB3LYP) =  -533.950197386     A.U. after   11 cycles
 SCF Done:  E(RB3LYP) =  -533.951879795     A.U. after   13 cycles
 SCF Done:  E(RB3LYP) =  -533.953342111     A.U. after   13 cycles
 SCF Done:  E(RB3LYP) =  -533.955008694     A.U. after   12 cycles
 SCF Done:  E(RB3LYP) =  -533.955421462     A.U. after   12 cycles
 SCF Done:  E(RB3LYP) =  -533.955555923     A.U. after   11 cycles
 SCF Done:  E(RB3LYP) =  -533.955631535     A.U. after   11 cycles
 SCF Done:  E(RB3LYP) =  -533.955637144     A.U. after   10 cycles
 SCF Done:  E(RB3LYP) =  -533.955641520     A.U. after    9 cycles
 SCF Done:  E(RB3LYP) =  -533.955643046     A.U. after    8 cycles
 SCF Done:  E(RB3LYP) =  -533.955643795     A.U. after    8 cycles
 SCF Done:  E(RB3LYP) =  -533.955644082     A.U. after    8 cycles
 Optimization completed.
    -- Stationary point found.
 Normal termination of Gaussian 16 at Tue Dec  8 20:32:26 2020.

 --------------------------------------------------------------------
 #N Geom=AllCheck Guess=TCheck SCRF=Check GenChk RB3LYP/6-31G(d) Freq
 --------------------------------------------------------------------

 Structure from the checkpoint file:  "JID_1602.chk"
 -----------------------------
 CID_3031297_JID_1602_neutraal
 -----------------------------
 Charge =  0 Multiplicity = 1

 SCF Done:  E(RB3LYP) =  -533.955644082     A.U. after    1 cycles

  Exact polarizability:  96.099   0.003  89.761  -0.003   4.616  72.541
 Approx polarizability: 132.928   0.017 143.413  -0.003  18.084 106.970

                      1                      2                      3
                      A                      A                      A
 Frequencies --     58.0153               128.2596               128.9024
 Red. masses --      5.8976                 2.6118                 1.8535
 Frc consts  --      0.0117                 0.0253                 0.0181
 IR Inten    --      9.6302                 0.0061                 1.1697

                      4                      5                      6
                      A                      A                      A
 Frequencies --    145.5720               200.9279               225.0924
 Red. masses --      4.0976                 1.8404                 4.7876
 Frc consts  --      0.0512                 0.0438                 0.1429
 IR Inten    --      0.2950                 2.1200                 3.5388

                      7                      8                      9
                      A                      A                      A
 Frequencies --    232.9488               271.3489               286.3020
 Red. masses --      1.0797                 3.9411                 2.2385
 Frc consts  --      0.0345                 0.1710                 0.1081
 IR Inten    --      0.7857                 2.5682                 0.8356

                     10                     11                     12
                      A                      A                      A
 Frequencies --    301.9519               329.2342               362.7331
 Red. masses --      1.6379                 4.6707                 3.4102
 Frc consts  --      0.0880                 0.2983                 0.2644
 IR Inten    --      0.3313                 9.2449                 0.9810

                     13                     14                     15
                      A                      A                      A
 Frequencies --    435.2670               510.7588               546.8456
 Red. masses --      6.1745                 1.9511                 2.8923
 Frc consts  --      0.6892                 0.2999                 0.5096
 IR Inten    --      1.1274                88.4635                79.7995

                     16                     17                     18
                      A                      A                      A
 Frequencies --    627.3450               682.4618               696.0820
 Red. masses --      3.4503                 3.6258                 2.8793
 Frc consts  --      0.8001                 0.9950                 0.8220
 IR Inten    --      4.0556                 7.4445                87.5213

                     19                     20                     21
                      A                      A                      A
 Frequencies --    737.5824               777.6519               779.1879
 Red. masses --      7.2217                 1.2798                 3.2152
 Frc consts  --      2.3148                 0.4560                 1.1501
 IR Inten    --     10.5928                13.3063               166.4468

                     22                     23                     24
                      A                      A                      A
 Frequencies --    794.6290               815.3942               938.5306
 Red. masses --      2.9455                 1.1834                 1.9290
 Frc consts  --      1.0958                 0.4636                 1.0011
 IR Inten    --     29.9001                15.8705                 2.3017

                     25                     26                     27
                      A                      A                      A
 Frequencies --    964.8786               971.3771              1042.0647
 Red. masses --      1.9938                 2.2768                 1.9355
 Frc consts  --      1.0937                 1.2658                 1.2383
 IR Inten    --      0.2987                 0.3046                 3.0231

                     28                     29                     30
                      A                      A                      A
 Frequencies --   1064.0956              1108.3524              1131.3002
 Red. masses --      2.5378                 1.8983                 3.1996
 Frc consts  --      1.6930                 1.3739                 2.4127
 IR Inten    --      0.8173                 5.8511                 7.8650

                     31                     32                     33
                      A                      A                      A
 Frequencies --   1169.3334              1178.6213              1199.4458
 Red. masses --      2.7993                 2.2746                 2.2534
 Frc consts  --      2.2552                 1.8617                 1.9100
 IR Inten    --      6.0366                 1.7555                14.3605

                     34                     35                     36
                      A                      A                      A
 Frequencies --   1237.9269              1300.3602              1325.4598
 Red. masses --      3.2054                 1.9356                 1.1978
 Frc consts  --      2.8942                 1.9284                 1.2399
 IR Inten    --     14.9891               104.7787                 0.6703

                     37                     38                     39
                      A                      A                      A
 Frequencies --   1351.3029              1380.7544              1387.2500
 Red. masses --      1.7804                 1.4000                 1.4533
 Frc consts  --      1.9154                 1.5726                 1.6479
 IR Inten    --     62.6194                 2.3712                28.1568

                     40                     41                     42
                      A                      A                      A
 Frequencies --   1397.4522              1446.1768              1447.2758
 Red. masses --      1.4253                 1.2506                 1.2254
 Frc consts  --      1.6399                 1.5410                 1.5122
 IR Inten    --     10.2398                 8.2061                 7.8351

                     43                     44                     45
                      A                      A                      A
 Frequencies --   1451.5533              1517.2382              1522.9208
 Red. masses --      1.5205                 1.0567                 1.0528
 Frc consts  --      1.8876                 1.4332                 1.4387
 IR Inten    --     21.0156                 0.8632                 9.7730

                     46                     47                     48
                      A                      A                      A
 Frequencies --   1533.4353              1535.4700              1539.0196
 Red. masses --      1.0709                 1.0458                 1.0403
 Frc consts  --      1.4836                 1.4527                 1.4518
 IR Inten    --     12.1515                 1.1218                 1.5217

                     49                     50                     51
                      A                      A                      A
 Frequencies --   1549.1866              1817.0923              1858.9476
 Red. masses --      1.0653                11.2883                11.1197
 Frc consts  --      1.5064                21.9600                22.6401
 IR Inten    --      0.5029               469.2259                56.0519

                     52                     53                     54
                      A                      A                      A
 Frequencies --   3048.4506              3050.0008              3063.0077
 Red. masses --      1.0663                 1.0676                 1.0368
 Frc consts  --      5.8381                 5.8513                 5.7309
 IR Inten    --     32.7440                 8.2088                 8.3052

                     55                     56                     57
                      A                      A                      A
 Frequencies --   3063.4009              3099.5564              3101.5017
 Red. masses --      1.0369                 1.0963                 1.0968
 Frc consts  --      5.7330                 6.2053                 6.2161
 IR Inten    --     32.7247                 7.4818                11.4686

                     58                     59                     60
                      A                      A                      A
 Frequencies --   3124.3017              3126.7680              3147.8392
 Red. masses --      1.1017                 1.1020                 1.1018
 Frc consts  --      6.3360                 6.3481                 6.4327
 IR Inten    --     69.4113                 1.6977                10.6416

                     61                     62                     63
                      A                      A                      A
 Frequencies --   3148.8562              3551.1857              3554.8077
 Red. masses --      1.1020                 1.0766                 1.0787
 Frc consts  --      6.4381                 7.9994                 8.0314
 IR Inten    --     17.6909                35.7609                19.6784

 - Thermochemistry -
 -------------------
 Temperature   298.150 Kelvin.  Pressure   1.00000 Atm.
 Atom     1 has atomic number  6 and mass  12.00000

 Molecular mass:   156.08988 amu.
 Principal axes and moments of inertia in atomic units:
                           1         2         3
     Eigenvalues --  1405.177081557.465452164.81677
           X            1.00000  -0.00022  -0.00003
           Y            0.00022   0.99837  -0.05706
           Z            0.00005   0.05706   0.99837
 This molecule is an asymmetric top.
 Rotational symmetry number  1.
 Warning -- assumption of classical behavior for rotation
           may cause significant error
 Rotational temperatures (Kelvin)      0.06164     0.05561     0.04001
 Rotational constants (GHZ):           1.28435     1.15877     0.83367
 Zero-point vibrational energy     511529.1 (Joules/Mol)
                                  122.25840 (Kcal/Mol)
 Warning -- explicit consideration of  15 degrees of freedom as
           vibrations may cause significant error
 Vibrational temperatures:     83.47   184.54   185.46   209.45   289.09
          (Kelvin)            323.86   335.16   390.41   411.92   434.44
                              473.69   521.89   626.25   734.87   786.79
                              902.61   981.91  1001.51  1061.22  1118.87
                             1121.08  1143.29  1173.17  1350.34  1388.25
                             1397.59  1499.30  1531.00  1594.67  1627.69
                             1682.41  1695.77  1725.74  1781.10  1870.93
                             1907.04  1944.22  1986.60  1995.94  2010.62
                             2080.73  2082.31  2088.46  2182.97  2191.14
                             2206.27  2209.20  2214.31  2228.93  2614.39
                             2674.61  4386.04  4388.27  4406.98  4407.55
                             4459.57  4462.37  4495.17  4498.72  4529.04
                             4530.50  5109.36  5114.58

 Zero-point correction=                           0.194831 (Hartree/Particle)
 Thermal correction to Energy=                    0.206024
 Thermal correction to Enthalpy=                  0.206968
 Thermal correction to Gibbs Free Energy=         0.158442
 Sum of electronic and zero-point Energies=           -533.760813
 Sum of electronic and thermal Energies=              -533.749620
 Sum of electronic and thermal Enthalpies=            -533.748676
 Sum of electronic and thermal Free Energies=         -533.797202

                     E (Thermal)             CV                S
                      KCal/Mol        Cal/Mol-Kelvin    Cal/Mol-Kelvin
 Total                  129.282             41.979            102.133
 Electronic               0.000              0.000              0.000
 Translational            0.889              2.981             41.045
 Rotational               0.889              2.981             29.939
 Vibrational            127.505             36.018             31.148
 Vibration     1          0.596              1.974              4.524
 Vibration     2          0.611              1.925              2.972
 Vibration     3          0.611              1.924              2.962
 Vibration     4          0.617              1.907              2.729
 Vibration     5          0.638              1.839              2.125
 Vibration     6          0.650              1.803              1.918
 Vibration     7          0.654              1.791              1.856
 Vibration     8          0.675              1.726              1.588
 Vibration     9          0.684              1.699              1.496
 Vibration    10          0.694              1.670              1.406
 Vibration    11          0.712              1.617              1.264
 Vibration    12          0.737              1.549              1.110
 Vibration    13          0.796              1.393              0.842
 Vibration    14          0.866              1.226              0.632
 Vibration    15          0.902              1.147              0.551

                           ! Non-Optimized Parameters !
 Normal termination of Gaussian 16 at Tue Dec  8 20:38:15 2020.

 ----------------------------------------------------------------------
 # B3LYP/6-311++G(d,p) empiricaldispersion=gd3bj scf=xqc pop=npa geom=c
 heck
 ----------------------------------------------------------------------

 -------------------------------------
 CID_3031297_JID_1602_Energie_neutraal
 -------------------------------------
 Structure from the checkpoint file:  "JID_1602.chk"
 Charge =  0 Multiplicity = 1

 SCF Done:  E(RB3LYP) =  -534.116819588     A.U. after   14 cycles
 Normal termination of Gaussian 16 at Tue Dec  8 20:41:08 2020.

 ----------------------------------------------------------------------
 # B3LYP/6-311++G(d,p) empiricaldispersion=gd3bj scf=xqc pop=npa geom=c
 heck
 ----------------------------------------------------------------------

 -----------------------------------
 CID_3031297_JID_1602_Energie_kation
 -----------------------------------
 Structure from the checkpoint file:  "JID_1602.chk"
 Charge =  1 Multiplicity = 2

 SCF Done:  E(UB3LYP) =  -533.776838804     A.U. after   26 cycles
 Normal termination of Gaussian 16 at Tue Dec  8 20:48:14 2020.
 Gaussian 16:  ES64L-G16RevA.03 25-Dec-2016

 ----------------------------------------------------------------------
 # B3LYP/6-311++G(d,p) empiricaldispersion=gd3bj scf=xqc pop=npa geom=c
 heck
 ----------------------------------------------------------------------

 ----------------------------------
 CID_3031297_JID_1602_Energie_anion
 ----------------------------------
 Structure from the checkpoint file:  "JID_1602.chk"
 Charge = -1 Multiplicity = 2

                         Standard orientation:
 ---------------------------------------------------------------------
 Center     Atomic      Atomic             Coordinates (Angstroms)
 Number     Number       Type             X           Y           Z
 ---------------------------------------------------------------------
      1          6           0        2.007994    1.430306   -1.078426
      2          6           0        0.987795    0.305463   -1.261495
      3          6           0        0.138153    0.000099   -0.000452
      4          6           0       -0.818215   -1.145457   -0.328916
      5          8           0       -0.550579   -2.244313   -0.772417
      6          7           0       -2.120120   -0.708270   -0.074428
      7          7           0       -2.119479    0.710210    0.075096
      8          6           0       -0.816998    1.146759    0.327711
      9          8           0       -0.548185    2.245771    0.770116
     10          6           0        0.985592   -0.306648    1.262016
     11          6           0        2.004151   -1.433190    1.080394
     12          1           0        1.527199    2.348257   -0.729865
     13          1           0        2.506898    1.639410   -2.030636
     14          1           0        2.781231    1.159820   -0.352225
     15          1           0        0.303697    0.560625   -2.080992
     16          1           0        1.479595   -0.627403   -1.555683
     17          1           0       -2.822244   -1.051442   -0.723761
     18          1           0       -2.820854    1.054162    0.724791
     19          1           0        1.478546    0.625416    1.556822
     20          1           0        0.299857   -0.560626    2.080507
     21          1           0        2.778898   -1.163944    0.355347
     22          1           0        2.501291   -1.643163    2.033335
     23          1           0        1.522355   -2.350338    0.731091
 ---------------------------------------------------------------------

 SCF Done:  E(UB3LYP) =  -534.104491366     A.U. after   33 cycles
 SCF Done:  E(UB3LYP) =  -534.104491366     a.u. after    1 cycles

 The electronic state is 2-A.
 Alpha  occ. eigenvalues --  -19.00710 -19.00701 -14.26768 -14.26752 -10.18214
 Alpha  occ. eigenvalues --  -10.18205 -10.10408 -10.08206 -10.08203 -10.06328
 Alpha  occ. eigenvalues --  -10.06327  -0.97183  -0.94901  -0.90192  -0.73661
 Alpha  occ. eigenvalues --   -0.72182  -0.65840  -0.63272  -0.53910  -0.53656
 Alpha  occ. eigenvalues --   -0.48003  -0.46344  -0.43727  -0.39954  -0.38071
 Alpha  occ. eigenvalues --   -0.37839  -0.34818  -0.33667  -0.33101  -0.31535
 Alpha  occ. eigenvalues --   -0.31227  -0.29558  -0.28061  -0.27721  -0.26600
 Alpha  occ. eigenvalues --   -0.25821  -0.25128  -0.24433  -0.22694  -0.17939
 Alpha  occ. eigenvalues --   -0.15768  -0.13987   0.04696
 Alpha virt. eigenvalues --    0.06685   0.07246   0.07678   0.08966   0.09735
 Alpha virt. eigenvalues --    0.10341   0.10683   0.11292   0.11639   0.12573
 Alpha virt. eigenvalues --    0.13512   0.13949   0.15150   0.16210   0.16471

  Beta  occ. eigenvalues --  -19.00704 -19.00694 -14.26707 -14.26691 -10.18211
  Beta  occ. eigenvalues --  -10.18201 -10.10397 -10.08189 -10.08186 -10.06307
  Beta  occ. eigenvalues --  -10.06305  -0.97151  -0.94889  -0.90149  -0.73623
  Beta  occ. eigenvalues --   -0.72060  -0.65805  -0.63218  -0.53840  -0.53601
  Beta  occ. eigenvalues --   -0.47920  -0.46289  -0.43588  -0.39898  -0.38023
  Beta  occ. eigenvalues --   -0.37799  -0.34790  -0.33624  -0.33078  -0.31509
  Beta  occ. eigenvalues --   -0.31171  -0.29522  -0.28023  -0.27679  -0.26571
  Beta  occ. eigenvalues --   -0.25802  -0.25103  -0.24379  -0.22663  -0.17908
  Beta  occ. eigenvalues --   -0.15751  -0.13906
  Beta virt. eigenvalues --    0.06890   0.07554   0.08185   0.08501   0.09402
  Beta virt. eigenvalues --    0.10464   0.10854   0.11175   0.11887   0.11936
  Beta virt. eigenvalues --    0.12487   0.13703   0.14152   0.15168   0.16197

 Mulliken charges and spin densities:
               1          2
     1  C    0.504249  -1.173716
     2  C   -1.178742   0.897804
     3  C    1.655599  -0.801582
     4  C    0.528604  -0.792612
     5  O   -0.343948   0.035175
     6  N   -0.032954  -0.036210
     7  N   -0.033946  -0.034727
     8  C    0.529360  -0.793719
     9  O   -0.344127   0.035363
    10  C   -1.188200   0.907776
    11  C    0.507267  -1.176689
    12  H    0.148544   0.033737
    13  H   -0.202708   0.342310
    14  H   -0.047063   0.182929
    15  H   -0.318477   0.510748
    16  H    0.203322  -0.019210
    17  H   -0.582203   0.912995
    18  H   -0.584511   0.915372
    19  H    0.203376  -0.019312
    20  H   -0.318347   0.510646
    21  H   -0.047907   0.183797
    22  H   -0.205115   0.344840
    23  H    0.147926   0.034286
 Sum of Mulliken charges =  -1.00000   1.00000

 Dipole moment (field-independent basis, Debye):
    X=              5.6688    Y=             -0.0014    Z=             -0.0162  Tot=              5.6689
 Quadrupole moment (field-independent basis, Debye-Ang):
   XX=           -124.2445   YY=           -105.7368   ZZ=            -99.7770
   XY=              0.0498   XZ=              0.0249   YZ=             -1.5678

 Summary of Natural Population Analysis:

                                       Natural Population
                Natural  -----------------------------------------------
    Atom  No    Charge         Core      Valence    Rydberg      Total
 -----------------------------------------------------------------------
      C    1   -0.28956      0.99966     2.28493    0.00498     3.28956
      C    2   -0.18505      0.99960     2.17531    0.01013     3.18505
      C    3   -0.11313      0.99947     2.09909    0.01456     3.11313
      C    4    0.35286      0.99963     1.62306    0.02445     2.64714
      O    5   -0.30542      0.99987     3.29947    0.00608     4.30542
      N    6   -0.23169      0.99967     2.71797    0.01405     3.73169
      N    7   -0.23171      0.99967     2.71800    0.01404     3.73171
      C    8    0.35290      0.99963     1.62302    0.02445     2.64710
      O    9   -0.30541      0.99987     3.29946    0.00608     4.30541
      C   10   -0.18501      0.99960     2.17528    0.01013     3.18501
      C   11   -0.28957      0.99966     2.28493    0.00498     3.28957
      H   12    0.10822      0.00000     0.39057    0.00121     0.39178
      H   13    0.09952      0.00000     0.39942    0.00105     0.40048
      H   14    0.09602      0.00000     0.40292    0.00106     0.40398
      H   15    0.10283      0.00000     0.39580    0.00137     0.39717
      H   16    0.10643      0.00000     0.39237    0.00119     0.39357
      H   17    0.20233      0.00000     0.27885    0.01882     0.29767
      H   18    0.20240      0.00000     0.27858    0.01902     0.29760
      H   19    0.10642      0.00000     0.39238    0.00119     0.39358
      H   20    0.10284      0.00000     0.39579    0.00137     0.39716
      H   21    0.09602      0.00000     0.40292    0.00106     0.40398
      H   22    0.09956      0.00000     0.39938    0.00106     0.40044
      H   23    0.10820      0.00000     0.39059    0.00121     0.39180
 =======================================================================
   * Total *   -0.00000     10.99633    30.82011    0.18356    42.00000

 Normal termination of Gaussian 16 at Tue Dec  8 20:55:23 2020.
