 Gaussian 16, Revision A.03,

 -----------------------------------------------------------
 # opt freq B3LYP/6-31G(d) empiricaldispersion=gd3bj scf=xqc
 -----------------------------------------------------------

 ------------------------------
 CID_78950882_JID_8795_neutraal
 ------------------------------
 Symbolic Z-matrix:
 Charge =  0 Multiplicity = 1

 SCF Done:  E(RB3LYP) =  -841.485262108     A.U. after   15 cycles
 SCF Done:  E(RB3LYP) =  -841.485901422     A.U. after   14 cycles
 SCF Done:  E(RB3LYP) =  -841.492666846     A.U. after   13 cycles
 SCF Done:  E(RB3LYP) =  -841.491160512     A.U. after   13 cycles
 SCF Done:  E(RB3LYP) =  -841.493519282     A.U. after   13 cycles
 SCF Done:  E(RB3LYP) =  -841.493728837     A.U. after   12 cycles
 SCF Done:  E(RB3LYP) =  -841.493953251     A.U. after   11 cycles
 SCF Done:  E(RB3LYP) =  -841.494003599     A.U. after   12 cycles
 SCF Done:  E(RB3LYP) =  -841.494059074     A.U. after   11 cycles
 SCF Done:  E(RB3LYP) =  -841.494077714     A.U. after   12 cycles
 SCF Done:  E(RB3LYP) =  -841.494130402     A.U. after    9 cycles
 SCF Done:  E(RB3LYP) =  -841.494130655     A.U. after    8 cycles
 SCF Done:  E(RB3LYP) =  -841.494130791     A.U. after    8 cycles
 SCF Done:  E(RB3LYP) =  -841.494130826     A.U. after    7 cycles
 Optimization completed.
    -- Stationary point found.
 Normal termination of Gaussian 16 at Fri Dec 11 22:28:01 2020.

 --------------------------------------------------------------------
 #N Geom=AllCheck Guess=TCheck SCRF=Check GenChk RB3LYP/6-31G(d) Freq
 --------------------------------------------------------------------

 Structure from the checkpoint file:  "JID_8795.chk"
 ------------------------------
 CID_78950882_JID_8795_neutraal
 ------------------------------
 Charge =  0 Multiplicity = 1

 SCF Done:  E(RB3LYP) =  -841.494130826     A.U. after    1 cycles

  Exact polarizability: 175.910 -14.723 145.383  -5.032  11.833 130.620
 Approx polarizability: 248.101 -20.427 220.856 -11.099  25.546 211.923

                      1                      2                      3
                      A                      A                      A
 Frequencies --     13.0443                46.4578                60.6895
 Red. masses --      4.0913                 4.4559                 4.4359
 Frc consts  --      0.0004                 0.0057                 0.0096
 IR Inten    --      0.6302                 0.3018                 0.2856

                      4                      5                      6
                      A                      A                      A
 Frequencies --     73.0782                83.2358                90.3528
 Red. masses --      5.5208                 2.9264                 1.3715
 Frc consts  --      0.0174                 0.0119                 0.0066
 IR Inten    --      4.8189                 1.1723                 1.5170

                      7                      8                      9
                      A                      A                      A
 Frequencies --     99.3501               119.2953               121.6379
 Red. masses --      4.8039                 1.2656                 2.9642
 Frc consts  --      0.0279                 0.0106                 0.0258
 IR Inten    --      1.3988                 0.0693                 0.9181

                     10                     11                     12
                      A                      A                      A
 Frequencies --    154.4911               162.4809               177.6730
 Red. masses --      3.1813                 1.1302                 3.0920
 Frc consts  --      0.0447                 0.0176                 0.0575
 IR Inten    --      3.2314                 0.7271                 2.1902

                     13                     14                     15
                      A                      A                      A
 Frequencies --    193.0860               200.6696               230.1247
 Red. masses --      3.7487                 3.2868                 2.3113
 Frc consts  --      0.0823                 0.0780                 0.0721
 IR Inten    --      2.0917                 7.8439                 1.1626

                     16                     17                     18
                      A                      A                      A
 Frequencies --    285.0495               296.0245               327.3866
 Red. masses --      2.8267                 4.5195                 3.3998
 Frc consts  --      0.1353                 0.2333                 0.2147
 IR Inten    --     14.4349                 1.0830                 6.3620

                     19                     20                     21
                      A                      A                      A
 Frequencies --    331.4267               379.2248               395.9444
 Red. masses --      3.5384                 3.9152                 2.4196
 Frc consts  --      0.2290                 0.3317                 0.2235
 IR Inten    --      4.4156                15.9990                 7.6760

                     22                     23                     24
                      A                      A                      A
 Frequencies --    403.1430               447.0117               477.1881
 Red. masses --      3.3885                 3.6147                 3.2784
 Frc consts  --      0.3245                 0.4256                 0.4398
 IR Inten    --      1.0501                 5.7870                 2.4758

                     25                     26                     27
                      A                      A                      A
 Frequencies --    548.9223               570.2697               603.5502
 Red. masses --      3.9089                 5.4105                 4.0414
 Frc consts  --      0.6939                 1.0367                 0.8674
 IR Inten    --      0.3246                 3.1885                 2.8504

                     28                     29                     30
                      A                      A                      A
 Frequencies --    614.8845               652.4272               680.9822
 Red. masses --      3.7265                 6.6105                 2.4359
 Frc consts  --      0.8301                 1.6579                 0.6656
 IR Inten    --      8.1325                 6.7517                 1.6514

                     31                     32                     33
                      A                      A                      A
 Frequencies --    724.3831               760.6401               763.6591
 Red. masses --      5.0365                 3.8579                 3.6933
 Frc consts  --      1.5571                 1.3151                 1.2690
 IR Inten    --      5.9176                12.9326                 4.6328

                     34                     35                     36
                      A                      A                      A
 Frequencies --    795.0236               829.4276               842.0750
 Red. masses --      2.0736                 1.9703                 2.8213
 Frc consts  --      0.7722                 0.7986                 1.1787
 IR Inten    --      8.1429                20.7103                 6.6869

                     37                     38                     39
                      A                      A                      A
 Frequencies --    859.1636               893.6979               935.3315
 Red. masses --      4.1284                 2.8116                 2.8837
 Frc consts  --      1.7955                 1.3231                 1.4864
 IR Inten    --      7.1393                 4.0966                 1.4424

                     40                     41                     42
                      A                      A                      A
 Frequencies --    974.0710              1003.9272              1007.2373
 Red. masses --      1.3649                 1.6773                 2.1913
 Frc consts  --      0.7630                 0.9960                 1.3098
 IR Inten    --      0.5133                 7.3887                 5.7201

                     43                     44                     45
                      A                      A                      A
 Frequencies --   1008.1496              1038.8117              1069.0717
 Red. masses --      1.4664                 2.3558                 2.3838
 Frc consts  --      0.8781                 1.4979                 1.6052
 IR Inten    --     10.8720                24.6853                40.6500

                     46                     47                     48
                      A                      A                      A
 Frequencies --   1075.9535              1082.4052              1101.8454
 Red. masses --      1.5827                 2.3530                 2.2015
 Frc consts  --      1.0795                 1.6242                 1.5748
 IR Inten    --      6.5087                76.7172                15.2702

                     49                     50                     51
                      A                      A                      A
 Frequencies --   1105.5610              1154.6968              1165.2917
 Red. masses --      2.6274                 1.5056                 1.2889
 Frc consts  --      1.8921                 1.1828                 1.0312
 IR Inten    --      0.5376                15.1608                 1.9917

                     52                     53                     54
                      A                      A                      A
 Frequencies --   1189.3294              1192.8532              1219.4607
 Red. masses --      1.4867                 1.3237                 1.6719
 Frc consts  --      1.2390                 1.1097                 1.4649
 IR Inten    --     42.1322                16.2853                21.9110

                     55                     56                     57
                      A                      A                      A
 Frequencies --   1226.7669              1236.8849              1275.3436
 Red. masses --      1.4649                 1.9130                 2.7821
 Frc consts  --      1.2989                 1.7244                 2.6661
 IR Inten    --      3.7230                14.8660                 0.9585

                     58                     59                     60
                      A                      A                      A
 Frequencies --   1293.5702              1300.1745              1309.3696
 Red. masses --      3.3253                 1.7907                 2.8389
 Frc consts  --      3.2784                 1.7835                 2.8676
 IR Inten    --     11.9065                16.0221               128.7981

                     61                     62                     63
                      A                      A                      A
 Frequencies --   1321.6549              1328.4192              1378.7217
 Red. masses --      2.2167                 1.6664                 1.4820
 Frc consts  --      2.2814                 1.7326                 1.6597
 IR Inten    --     54.2353                80.1574                40.0068

                     64                     65                     66
                      A                      A                      A
 Frequencies --   1407.0735              1413.9287              1431.8281
 Red. masses --      1.4882                 1.3656                 1.2777
 Frc consts  --      1.7360                 1.6085                 1.5433
 IR Inten    --     30.6001                 5.9356                 2.6264

                     67                     68                     69
                      A                      A                      A
 Frequencies --   1456.0871              1484.5051              1488.3279
 Red. masses --      2.0701                 1.9686                 1.7332
 Frc consts  --      2.5859                 2.5560                 2.2620
 IR Inten    --    115.5378                39.4295                10.8177

                     70                     71                     72
                      A                      A                      A
 Frequencies --   1491.9647              1496.5777              1499.1758
 Red. masses --      1.2215                 1.3488                 1.2363
 Frc consts  --      1.6019                 1.7800                 1.6371
 IR Inten    --     24.4853                19.1567                14.5096

                     73                     74                     75
                      A                      A                      A
 Frequencies --   1511.6964              1513.3570              1514.7041
 Red. masses --      1.0634                 1.0466                 1.0692
 Frc consts  --      1.4318                 1.4122                 1.4454
 IR Inten    --      7.8180                 1.8002                 3.6107

                     76                     77                     78
                      A                      A                      A
 Frequencies --   1520.3471              1525.0614              1529.0305
 Red. masses --      1.2399                 1.0624                 1.0546
 Frc consts  --      1.6885                 1.4559                 1.4526
 IR Inten    --     10.5202                19.8759                 2.5353

                     79                     80                     81
                      A                      A                      A
 Frequencies --   1529.8377              1554.5088              1623.4647
 Red. masses --      1.0960                 1.1727                 5.5521
 Frc consts  --      1.5112                 1.6697                 8.6217
 IR Inten    --     12.0898                28.5830                33.7118

                     82                     83                     84
                      A                      A                      A
 Frequencies --   1644.6189              1734.8902              1811.6563
 Red. masses --      5.5030                10.9347                10.6691
 Frc consts  --      8.7696                19.3910                20.6315
 IR Inten    --     21.3110               276.6242               224.2863

                     85                     86                     87
                      A                      A                      A
 Frequencies --   3036.2958              3039.1935              3046.2506
 Red. masses --      1.0490                 1.0652                 1.0442
 Frc consts  --      5.6976                 5.7971                 5.7091
 IR Inten    --     27.3040                42.4199                16.2654

                     88                     89                     90
                      A                      A                      A
 Frequencies --   3055.3020              3064.5262              3084.6172
 Red. masses --      1.0660                 1.0686                 1.0290
 Frc consts  --      5.8632                 5.9125                 5.7686
 IR Inten    --     45.4858                36.4952                38.8312

                     91                     92                     93
                      A                      A                      A
 Frequencies --   3084.7475              3101.4283              3108.3762
 Red. masses --      1.1017                 1.0990                 1.0932
 Frc consts  --      6.1767                 6.2282                 6.2235
 IR Inten    --     29.1798                 9.3591                10.0358

                     94                     95                     96
                      A                      A                      A
 Frequencies --   3132.8312              3165.2843              3171.0763
 Red. masses --      1.0949                 1.1012                 1.0891
 Frc consts  --      6.3315                 6.5004                 6.4527
 IR Inten    --     21.9559                 9.3032                29.5708

                     97                     98                     99
                      A                      A                      A
 Frequencies --   3171.5161              3177.3279              3186.3410
 Red. masses --      1.1068                 1.0908                 1.0952
 Frc consts  --      6.5594                 6.4881                 6.5513
 IR Inten    --     10.8869                 2.7131                 7.3150

                    100                    101                    102
                      A                      A                      A
 Frequencies --   3191.7221              3204.1521              3216.6226
 Red. masses --      1.1091                 1.0904                 1.0970
 Frc consts  --      6.6568                 6.5957                 6.6876
 IR Inten    --      9.8768                 7.5806                20.4325

 - Thermochemistry -
 -------------------
 Temperature   298.150 Kelvin.  Pressure   1.00000 Atm.
 Atom     1 has atomic number  6 and mass  12.00000

 Molecular mass:   250.13174 amu.
 Principal axes and moments of inertia in atomic units:
                           1         2         3
     Eigenvalues --  2525.871616238.923816864.13614
           X            1.00000  -0.00110   0.00023
           Y            0.00111   0.99948  -0.03231
           Z           -0.00019   0.03231   0.99948
 This molecule is an asymmetric top.
 Rotational symmetry number  1.
 Warning -- assumption of classical behavior for rotation
           may cause significant error
 Rotational temperatures (Kelvin)      0.03429     0.01388     0.01262
 Rotational constants (GHZ):           0.71450     0.28927     0.26292
 Zero-point vibrational energy     793855.8 (Joules/Mol)
                                  189.73609 (Kcal/Mol)
 Warning -- explicit consideration of  28 degrees of freedom as
           vibrations may cause significant error
 Vibrational temperatures:     18.77    66.84    87.32   105.14   119.76
          (Kelvin)            130.00   142.94   171.64   175.01   222.28
                              233.77   255.63   277.81   288.72   331.10
                              410.12   425.91   471.04   476.85   545.62
                              569.68   580.03   643.15   686.57   789.78
                              820.49   868.37   884.68   938.70   979.78
                             1042.23  1094.39  1098.74  1143.86  1193.36
                             1211.56  1236.14  1285.83  1345.73  1401.47
                             1444.43  1449.19  1450.50  1494.62  1538.16
                             1548.06  1557.34  1585.31  1590.66  1661.35
                             1676.59  1711.18  1716.25  1754.53  1765.04
                             1779.60  1834.94  1861.16  1870.66  1883.89
                             1901.57  1911.30  1983.67  2024.46  2034.33
                             2060.08  2094.98  2135.87  2141.37  2146.60
                             2153.24  2156.98  2174.99  2177.38  2179.32
                             2187.44  2194.22  2199.93  2201.10  2236.59
                             2335.80  2366.24  2496.12  2606.57  4368.55
                             4372.72  4382.88  4395.90  4409.17  4438.08
                             4438.26  4462.26  4472.26  4507.45  4554.14
                             4562.47  4563.10  4571.47  4584.43  4592.18
                             4610.06  4628.00

 Zero-point correction=                           0.302364 (Hartree/Particle)
 Thermal correction to Energy=                    0.320992
 Thermal correction to Enthalpy=                  0.321937
 Thermal correction to Gibbs Free Energy=         0.253951
 Sum of electronic and zero-point Energies=           -841.191767
 Sum of electronic and thermal Energies=              -841.173138
 Sum of electronic and thermal Enthalpies=            -841.172194
 Sum of electronic and thermal Free Energies=         -841.240180

                     E (Thermal)             CV                S
                      KCal/Mol        Cal/Mol-Kelvin    Cal/Mol-Kelvin
 Total                  201.426             67.332            143.088
 Electronic               0.000              0.000              0.000
 Translational            0.889              2.981             42.451
 Rotational               0.889              2.981             33.047
 Vibrational            199.648             61.371             67.590
 Vibration     1          0.593              1.987              7.483
 Vibration     2          0.595              1.979              4.963
 Vibration     3          0.597              1.973              4.435
 Vibration     4          0.599              1.967              4.069
 Vibration     5          0.600              1.961              3.813
 Vibration     6          0.602              1.956              3.652
 Vibration     7          0.604              1.950              3.467
 Vibration     8          0.609              1.933              3.112
 Vibration     9          0.609              1.931              3.074
 Vibration    10          0.620              1.898              2.616
 Vibration    11          0.623              1.888              2.521
 Vibration    12          0.628              1.870              2.353
 Vibration    13          0.635              1.849              2.198
 Vibration    14          0.638              1.839              2.127
 Vibration    15          0.652              1.795              1.878
 Vibration    16          0.683              1.701              1.503
 Vibration    17          0.690              1.681              1.439
 Vibration    18          0.711              1.621              1.273
 Vibration    19          0.714              1.613              1.253
 Vibration    20          0.749              1.514              1.042
 Vibration    21          0.763              1.479              0.978
 Vibration    22          0.769              1.463              0.951
 Vibration    23          0.806              1.367              0.805
 Vibration    24          0.834              1.301              0.718
 Vibration    25          0.904              1.142              0.546
 Vibration    26          0.926              1.096              0.504
 Vibration    27          0.962              1.024              0.444
 Vibration    28          0.974              1.000              0.425

                           ! Non-Optimized Parameters !
 Normal termination of Gaussian 16 at Fri Dec 11 22:46:02 2020.

 ----------------------------------------------------------------------
 # B3LYP/6-311++G(d,p) empiricaldispersion=gd3bj scf=xqc pop=npa geom=c
 heck
 ----------------------------------------------------------------------

 --------------------------------------
 CID_78950882_JID_8795_Energie_neutraal
 --------------------------------------
 Structure from the checkpoint file:  "JID_8795.chk"
 Charge =  0 Multiplicity = 1

 SCF Done:  E(RB3LYP) =  -841.729346757     A.U. after   16 cycles
 Normal termination of Gaussian 16 at Fri Dec 11 22:54:10 2020.

 ----------------------------------------------------------------------
 # B3LYP/6-311++G(d,p) empiricaldispersion=gd3bj scf=xqc pop=npa geom=c
 heck
 ----------------------------------------------------------------------

 ------------------------------------
 CID_78950882_JID_8795_Energie_kation
 ------------------------------------
 Structure from the checkpoint file:  "JID_8795.chk"
 Charge =  1 Multiplicity = 2

 SCF Done:  E(UB3LYP) =  -841.411214674     A.U. after   33 cycles
 SCF Done:  E(UB3LYP) =  -841.416079897     a.u. after   16 cycles
 Normal termination of Gaussian 16 at Sat Dec 12 02:47:03 2020.
 Gaussian 16:  ES64L-G16RevA.03 25-Dec-2016

 ----------------------------------------------------------------------
 # B3LYP/6-311++G(d,p) empiricaldispersion=gd3bj scf=xqc pop=npa geom=c
 heck
 ----------------------------------------------------------------------

 -----------------------------------
 CID_78950882_JID_8795_Energie_anion
 -----------------------------------
 Structure from the checkpoint file:  "JID_8795.chk"
 Charge = -1 Multiplicity = 2

                         Standard orientation:
 ---------------------------------------------------------------------
 Center     Atomic      Atomic             Coordinates (Angstroms)
 Number     Number       Type             X           Y           Z
 ---------------------------------------------------------------------
      1          6           0        2.854864    1.493168    1.555174
      2          6           0        2.800784    0.344395    0.580963
      3          6           0        1.569206   -0.133519    0.096960
      4          6           0        1.556514   -1.207810   -0.793183
      5          6           0        2.773675   -1.762970   -1.183328
      6          6           0        3.944633   -1.216508   -0.663167
      7          7           0        3.968584   -0.190431    0.197075
      8          6           0        0.270526    0.431075    0.605670
      9          8           0       -0.209873    0.021308    1.661258
     10          7           0       -0.346267    1.381601   -0.169498
     11          6           0        0.260626    2.007762   -1.331371
     12          6           0       -1.658240    1.875253    0.238990
     13          6           0       -2.767508    1.583135   -0.788393
     14          6           0       -2.689357    0.184115   -1.423104
     15          6           0       -2.451052   -0.960059   -0.458342
     16          8           0       -1.691247   -1.884488   -0.667763
     17          8           0       -3.191535   -0.841181    0.656088
     18          6           0       -2.921743   -1.823097    1.678246
     19          1           0        3.884918    1.645273    1.882136
     20          1           0        2.493736    2.422296    1.094810
     21          1           0        2.218859    1.295113    2.424422
     22          1           0        0.608844   -1.600050   -1.151328
     23          1           0        2.812934   -2.602385   -1.870469
     24          1           0        4.915468   -1.620631   -0.945002
     25          1           0       -0.342707    1.841452   -2.231797
     26          1           0        0.346837    3.090942   -1.173649
     27          1           0        1.254016    1.597198   -1.504314
     28          1           0       -1.884352    1.385212    1.184452
     29          1           0       -1.598163    2.957151    0.419107
     30          1           0       -3.727896    1.708490   -0.277893
     31          1           0       -2.746036    2.320453   -1.600104
     32          1           0       -3.625677   -0.017238   -1.959427
     33          1           0       -1.884885    0.126687   -2.160012
     34          1           0       -3.116041   -2.828913    1.298679
     35          1           0       -1.881330   -1.733522    1.994600
     36          1           0       -3.601089   -1.580472    2.495400
 ---------------------------------------------------------------------

 SCF Done:  E(UB3LYP) =  -841.721152498     A.U. after   33 cycles
 SCF Done:  E(UB3LYP) =  -841.721152498     a.u. after    1 cycles

 The electronic state is 2-A.
 Alpha  occ. eigenvalues --  -19.07341 -19.01272 -18.99048 -14.24790 -14.20070
 Alpha  occ. eigenvalues --  -10.20136 -10.17605 -10.12795 -10.11361 -10.10401
 Alpha  occ. eigenvalues --  -10.10143 -10.09924 -10.08438 -10.08279 -10.07940
 Alpha  occ. eigenvalues --  -10.07845 -10.07558 -10.06736  -1.01267  -0.94235
 Alpha  occ. eigenvalues --   -0.92273  -0.84299  -0.84020  -0.71167  -0.70016
 Alpha  occ. eigenvalues --   -0.68690  -0.64422  -0.61704  -0.61131  -0.59445
 Alpha  occ. eigenvalues --   -0.54989  -0.51720  -0.50497  -0.47148  -0.44957
 Alpha  occ. eigenvalues --   -0.42704  -0.41032  -0.40089  -0.39470  -0.39302
 Alpha  occ. eigenvalues --   -0.38202  -0.37809  -0.36328  -0.34473  -0.33669
 Alpha  occ. eigenvalues --   -0.33517  -0.32758  -0.31805  -0.31269  -0.30858
 Alpha  occ. eigenvalues --   -0.30061  -0.29098  -0.28779  -0.28055  -0.27895
 Alpha  occ. eigenvalues --   -0.27504  -0.26557  -0.25976  -0.25034  -0.24563
 Alpha  occ. eigenvalues --   -0.21277  -0.19147  -0.18166  -0.17329  -0.15771
 Alpha  occ. eigenvalues --   -0.14941  -0.14570   0.04273
 Alpha virt. eigenvalues --    0.06042   0.07073   0.07366   0.07598   0.07826
 Alpha virt. eigenvalues --    0.08595   0.08758   0.09678   0.09753   0.10277
 Alpha virt. eigenvalues --    0.10458   0.11007   0.11608   0.11668   0.12055

  Beta  occ. eigenvalues --  -19.07329 -19.01262 -18.99040 -14.24790 -14.19921
  Beta  occ. eigenvalues --  -10.20106 -10.17599 -10.12792 -10.11332 -10.10378
  Beta  occ. eigenvalues --  -10.10099 -10.09906 -10.08426 -10.08256 -10.07864
  Beta  occ. eigenvalues --  -10.07799 -10.07526 -10.06732  -1.01237  -0.94222
  Beta  occ. eigenvalues --   -0.92250  -0.84198  -0.83904  -0.71047  -0.69901
  Beta  occ. eigenvalues --   -0.68599  -0.64383  -0.61649  -0.61083  -0.59384
  Beta  occ. eigenvalues --   -0.54892  -0.51594  -0.50381  -0.47111  -0.44908
  Beta  occ. eigenvalues --   -0.42662  -0.40956  -0.40047  -0.39404  -0.39245
  Beta  occ. eigenvalues --   -0.38156  -0.37760  -0.36279  -0.34427  -0.33606
  Beta  occ. eigenvalues --   -0.33420  -0.32681  -0.31773  -0.31228  -0.30808
  Beta  occ. eigenvalues --   -0.30013  -0.29044  -0.28703  -0.27992  -0.27671
  Beta  occ. eigenvalues --   -0.27423  -0.26509  -0.25934  -0.24973  -0.24523
  Beta  occ. eigenvalues --   -0.21224  -0.18635  -0.18142  -0.17091  -0.15567
  Beta  occ. eigenvalues --   -0.14895  -0.14408
  Beta virt. eigenvalues --    0.06797   0.07220   0.07375   0.07601   0.07993
  Beta virt. eigenvalues --    0.08128   0.09052   0.09138   0.09816   0.09996
  Beta virt. eigenvalues --    0.10448   0.10852   0.11327   0.11852   0.11927

 Mulliken charges and spin densities:
               1          2
     1  C    0.006011  -0.512717
     2  C   -1.986313   0.545384
     3  C    1.906470  -0.087082
     4  C    0.187168   0.177891
     5  C   -0.304571  -0.317831
     6  C   -0.030476   0.074995
     7  N   -0.003334   0.083677
     8  C   -1.295405   0.086083
     9  O   -0.198953  -0.003843
    10  N    0.082583   0.106401
    11  C    1.014895  -1.466191
    12  C   -0.577991   0.571460
    13  C    1.260603  -1.887931
    14  C   -0.086915  -0.048356
    15  C   -0.110986  -0.223208
    16  O   -0.175209   0.009980
    17  O    0.026112   0.026770
    18  C   -0.136447  -0.038124
    19  H    0.140280   0.032056
    20  H   -0.020657   0.172968
    21  H    0.164694   0.009388
    22  H    0.269005   0.009855
    23  H    0.083739   0.059741
    24  H    0.145310   0.023630
    25  H   -0.215184   0.399692
    26  H   -0.417398   0.596266
    27  H    0.153418   0.040518
    28  H    0.239789  -0.021261
    29  H   -0.406683   0.607308
    30  H   -0.170406   0.352087
    31  H   -0.458829   0.648523
    32  H   -0.549578   0.771641
    33  H    0.048696   0.114777
    34  H    0.136255   0.010286
    35  H    0.198458   0.018251
    36  H    0.081847   0.056916
 Sum of Mulliken charges =  -1.00000   1.00000

 Dipole moment (field-independent basis, Debye):
    X=              2.0508    Y=             -5.1577    Z=              3.4114  Tot=              6.5150
 Quadrupole moment (field-independent basis, Debye-Ang):
   XX=           -171.4370   YY=           -154.5121   ZZ=           -140.9118
   XY=              9.2365   XZ=            -16.8758   YZ=              8.4965

 Summary of Natural Population Analysis:

                                       Natural Population
                Natural  -----------------------------------------------
    Atom  No    Charge         Core      Valence    Rydberg      Total
 -----------------------------------------------------------------------
      C    1   -0.30543      0.99963     2.29969    0.00611     3.30543
      C    2    0.11748      0.99950     1.86843    0.01458     2.88252
      C    3   -0.07661      0.99941     2.06664    0.01056     3.07661
      C    4   -0.05608      0.99951     2.04687    0.00970     3.05608
      C    5   -0.12695      0.99956     2.11914    0.00825     3.12695
      C    6    0.02632      0.99959     1.95943    0.01465     2.97368
      N    7   -0.22470      0.99968     2.71444    0.01057     3.72470
      C    8    0.34770      0.99958     1.62881    0.02391     2.65230
      O    9   -0.32923      0.99988     3.32421    0.00514     4.32923
      N   10   -0.25379      0.99964     2.74104    0.01311     3.75379
      C   11   -0.17483      0.99962     2.16719    0.00802     3.17483
      C   12   -0.09045      0.99960     2.07940    0.01146     3.09045
      C   13   -0.19425      0.99962     2.18483    0.00979     3.19425
      C   14   -0.23721      0.99957     2.22774    0.00989     3.23721
      C   15    0.41593      0.99968     1.55793    0.02646     2.58407
      O   16   -0.31252      0.99987     3.30686    0.00579     4.31252
      O   17   -0.27839      0.99986     3.27041    0.00813     4.27839
      C   18   -0.10872      0.99959     2.10122    0.00790     3.10872
      H   19    0.10747      0.00000     0.39140    0.00113     0.39253
      H   20    0.10571      0.00000     0.39312    0.00117     0.39429
      H   21    0.10989      0.00000     0.38931    0.00080     0.39011
      H   22    0.11722      0.00000     0.38123    0.00155     0.38278
      H   23    0.10057      0.00000     0.39858    0.00085     0.39943
      H   24    0.08528      0.00000     0.41371    0.00101     0.41472
      H   25    0.09707      0.00000     0.40135    0.00158     0.40293
      H   26    0.09776      0.00000     0.40021    0.00203     0.40224
      H   27    0.10717      0.00000     0.39137    0.00146     0.39283
      H   28    0.11561      0.00000     0.38268    0.00170     0.38439
      H   29    0.09814      0.00000     0.40044    0.00141     0.40186
      H   30    0.10438      0.00000     0.39413    0.00149     0.39562
      H   31    0.10467      0.00000     0.39140    0.00393     0.39533
      H   32    0.11851      0.00000     0.37927    0.00223     0.38149
      H   33    0.10992      0.00000     0.38862    0.00146     0.39008
      H   34    0.08766      0.00000     0.41131    0.00103     0.41234
      H   35    0.10744      0.00000     0.39154    0.00102     0.39256
      H   36    0.08723      0.00000     0.41195    0.00082     0.41277
 =======================================================================
   * Total *    0.00000     17.99340    48.77592    0.23068    67.00000

 Normal termination of Gaussian 16 at Sat Dec 12 03:10:05 2020.
