 Gaussian 16, Revision A.03,

 -----------------------------------------------------------
 # opt freq B3LYP/6-31G(d) empiricaldispersion=gd3bj scf=xqc
 -----------------------------------------------------------

 ------------------------------
 CID_79464097_JID_9065_neutraal
 ------------------------------
 Symbolic Z-matrix:
 Charge =  0 Multiplicity = 1

 SCF Done:  E(RB3LYP) =  -971.063876812     A.U. after   15 cycles
 SCF Done:  E(RB3LYP) =  -971.070800383     A.U. after   13 cycles
 SCF Done:  E(RB3LYP) =  -971.072478860     A.U. after   14 cycles
 SCF Done:  E(RB3LYP) =  -971.075518334     A.U. after   13 cycles
 SCF Done:  E(RB3LYP) =  -971.078612802     A.U. after   13 cycles
 SCF Done:  E(RB3LYP) =  -971.079651912     A.U. after   13 cycles
 SCF Done:  E(RB3LYP) =  -971.080962580     A.U. after   13 cycles
 SCF Done:  E(RB3LYP) =  -971.080917622     A.U. after   12 cycles
 SCF Done:  E(RB3LYP) =  -971.082199077     A.U. after   12 cycles
 SCF Done:  E(RB3LYP) =  -971.082669387     A.U. after   13 cycles
 SCF Done:  E(RB3LYP) =  -971.084458855     A.U. after   10 cycles
 SCF Done:  E(RB3LYP) =  -971.084461122     A.U. after   10 cycles
 SCF Done:  E(RB3LYP) =  -971.084462255     A.U. after    8 cycles
 SCF Done:  E(RB3LYP) =  -971.084462714     A.U. after    8 cycles
 SCF Done:  E(RB3LYP) =  -971.084462860     A.U. after    8 cycles
 Optimization completed.
    -- Stationary point found.
 Normal termination of Gaussian 16 at Sun Dec 13 13:11:38 2020.

 --------------------------------------------------------------------
 #N Geom=AllCheck Guess=TCheck SCRF=Check GenChk RB3LYP/6-31G(d) Freq
 --------------------------------------------------------------------

 Structure from the checkpoint file:  "JID_9065.chk"
 ------------------------------
 CID_79464097_JID_9065_neutraal
 ------------------------------
 Charge =  0 Multiplicity = 1

 SCF Done:  E(RB3LYP) =  -971.084462860     A.U. after    1 cycles

  Exact polarizability: 169.902   0.671 144.954  -0.746  -8.301 117.929
 Approx polarizability: 195.478   9.921 233.642  -7.119 -20.322 188.837

                      1                      2                      3
                      A                      A                      A
 Frequencies --     17.0092                24.6103                27.3868
 Red. masses --      7.6472                 6.9143                 6.2496
 Frc consts  --      0.0013                 0.0025                 0.0028
 IR Inten    --      0.2104                 1.6339                 7.0242

                      4                      5                      6
                      A                      A                      A
 Frequencies --     31.8963                47.8021                54.2392
 Red. masses --      7.2070                 6.6865                 5.7171
 Frc consts  --      0.0043                 0.0090                 0.0099
 IR Inten    --      2.0522                 1.2414                 1.0166

                      7                      8                      9
                      A                      A                      A
 Frequencies --     96.3839               106.5111               133.6959
 Red. masses --      7.6508                 3.2893                 4.0265
 Frc consts  --      0.0419                 0.0220                 0.0424
 IR Inten    --      6.0321                 3.0983                 4.0986

                     10                     11                     12
                      A                      A                      A
 Frequencies --    136.8068               158.9479               186.3171
 Red. masses --      4.1428                 3.5363                 3.5303
 Frc consts  --      0.0457                 0.0526                 0.0722
 IR Inten    --      3.7171                 9.7124                14.2744

                     13                     14                     15
                      A                      A                      A
 Frequencies --    213.9419               241.6315               259.3302
 Red. masses --      3.3820                 1.2207                 4.0704
 Frc consts  --      0.0912                 0.0420                 0.1613
 IR Inten    --      8.4042               175.3655                 6.1797

                     16                     17                     18
                      A                      A                      A
 Frequencies --    307.5109               326.9865               348.5209
 Red. masses --      5.1668                 2.6448                 2.5522
 Frc consts  --      0.2879                 0.1666                 0.1826
 IR Inten    --      5.2108                18.3066                 1.3621

                     19                     20                     21
                      A                      A                      A
 Frequencies --    368.2089               381.2624               415.9715
 Red. masses --      2.6840                 2.9209                 2.0651
 Frc consts  --      0.2144                 0.2502                 0.2105
 IR Inten    --      4.0569                 4.0711                 2.8545

                     22                     23                     24
                      A                      A                      A
 Frequencies --    462.6365               480.5844               483.9159
 Red. masses --      2.8699                 3.4237                 2.3876
 Frc consts  --      0.3619                 0.4659                 0.3294
 IR Inten    --      1.4729                15.9121                 5.9292

                     25                     26                     27
                      A                      A                      A
 Frequencies --    513.0235               521.9084               555.6640
 Red. masses --      2.0951                 2.8905                 3.2143
 Frc consts  --      0.3249                 0.4639                 0.5847
 IR Inten    --      4.1706                21.2881                27.7590

                     28                     29                     30
                      A                      A                      A
 Frequencies --    562.1087               576.2170               596.8684
 Red. masses --      3.8568                 1.4395                 3.1403
 Frc consts  --      0.7180                 0.2816                 0.6591
 IR Inten    --     26.4580                19.8521                13.3277

                     31                     32                     33
                      A                      A                      A
 Frequencies --    622.9699               626.6536               702.0808
 Red. masses --      2.1869                 3.9942                 1.4887
 Frc consts  --      0.5001                 0.9241                 0.4323
 IR Inten    --      7.4410                59.5976               115.2245

                     34                     35                     36
                      A                      A                      A
 Frequencies --    726.6827               729.3389               778.3711
 Red. masses --      3.8282                 3.1129                 2.5436
 Frc consts  --      1.1911                 0.9756                 0.9080
 IR Inten    --      3.6702                14.0074                26.2216

                     37                     38                     39
                      A                      A                      A
 Frequencies --    828.2836               833.4739               840.3352
 Red. masses --      2.5735                 1.6189                 2.6466
 Frc consts  --      1.0403                 0.6626                 1.1011
 IR Inten    --     26.9696                 1.8018                30.2486

                     40                     41                     42
                      A                      A                      A
 Frequencies --    844.3343               872.6783               908.9075
 Red. masses --      3.8318                 2.2367                 2.2303
 Frc consts  --      1.6095                 1.0036                 1.0855
 IR Inten    --     17.7206                29.9086                 8.0035

                     43                     44                     45
                      A                      A                      A
 Frequencies --    923.4039               959.4889               983.3845
 Red. masses --      2.8472                 1.9628                 2.2525
 Frc consts  --      1.4304                 1.0647                 1.2834
 IR Inten    --      7.7060                 5.7974                14.3660

                     46                     47                     48
                      A                      A                      A
 Frequencies --    992.1164              1017.7458              1042.8739
 Red. masses --      1.5832                 2.7299                 2.2842
 Frc consts  --      0.9181                 1.6660                 1.4637
 IR Inten    --      3.2459                38.6383                 5.4552

                     49                     50                     51
                      A                      A                      A
 Frequencies --   1045.8048              1069.8831              1098.6511
 Red. masses --      2.3362                 2.1676                 1.8505
 Frc consts  --      1.5054                 1.4619                 1.3160
 IR Inten    --     29.7387                 6.6212                 4.9203

                     52                     53                     54
                      A                      A                      A
 Frequencies --   1121.6032              1131.3985              1145.7680
 Red. masses --      2.1273                 2.5125                 3.5234
 Frc consts  --      1.5767                 1.8949                 2.7253
 IR Inten    --     49.3955                 5.5733                54.5438

                     55                     56                     57
                      A                      A                      A
 Frequencies --   1171.9605              1179.2217              1198.0092
 Red. masses --      2.3338                 3.5077                 1.4227
 Frc consts  --      1.8886                 2.8739                 1.2031
 IR Inten    --     34.1770                94.0081                 7.7578

                     58                     59                     60
                      A                      A                      A
 Frequencies --   1204.1316              1213.5730              1254.1669
 Red. masses --      2.2380                 2.6542                 1.4130
 Frc consts  --      1.9119                 2.3032                 1.3095
 IR Inten    --    210.1577                23.9997               120.6765

                     61                     62                     63
                      A                      A                      A
 Frequencies --   1294.1043              1295.3039              1306.6265
 Red. masses --      1.2843                 1.3807                 1.3511
 Frc consts  --      1.2672                 1.3649                 1.3591
 IR Inten    --     28.1639                16.2347                 4.4522

                     64                     65                     66
                      A                      A                      A
 Frequencies --   1309.6846              1327.5900              1346.2669
 Red. masses --      1.3965                 1.1821                 1.2413
 Frc consts  --      1.4113                 1.2276                 1.3255
 IR Inten    --     29.8863                 7.4808                 9.7546

                     67                     68                     69
                      A                      A                      A
 Frequencies --   1348.5836              1376.9937              1385.6456
 Red. masses --      1.4300                 3.2509                 1.6829
 Frc consts  --      1.5323                 3.6318                 1.9038
 IR Inten    --     68.3242               200.7396                20.2364

                     70                     71                     72
                      A                      A                      A
 Frequencies --   1392.1327              1395.7806              1398.6053
 Red. masses --      1.3658                 1.3886                 1.6306
 Frc consts  --      1.5595                 1.5939                 1.8792
 IR Inten    --      1.0593                17.8470                18.9896

                     73                     74                     75
                      A                      A                      A
 Frequencies --   1407.4583              1411.5436              1430.6813
 Red. masses --      1.5512                 1.3627                 1.3672
 Frc consts  --      1.8104                 1.5997                 1.6488
 IR Inten    --     16.9699                 5.6852                15.2593

                     76                     77                     78
                      A                      A                      A
 Frequencies --   1435.0385              1458.1143              1491.9859
 Red. masses --      1.3044                 1.8583                 1.3851
 Frc consts  --      1.5827                 2.3278                 1.8166
 IR Inten    --      6.6895               238.7758                 9.4862

                     79                     80                     81
                      A                      A                      A
 Frequencies --   1497.7946              1502.4748              1508.2315
 Red. masses --      1.0779                 1.0872                 1.0967
 Frc consts  --      1.4248                 1.4461                 1.4698
 IR Inten    --      5.3250                 6.2291                 5.1105

                     82                     83                     84
                      A                      A                      A
 Frequencies --   1513.2348              1525.1428              1531.0326
 Red. masses --      1.0950                 1.2270                 1.1209
 Frc consts  --      1.4773                 1.6816                 1.5480
 IR Inten    --     11.3377                45.8646                20.5465

                     85                     86                     87
                      A                      A                      A
 Frequencies --   1535.6462              1644.9002              1753.6977
 Red. masses --      1.0984                 1.2644                 7.0003
 Frc consts  --      1.5262                 2.0156                12.6847
 IR Inten    --      6.9290               128.1425               306.3063

                     88                     89                     90
                      A                      A                      A
 Frequencies --   1795.5560              1849.8285              3016.2559
 Red. masses --      8.9536                 9.9948                 1.0817
 Frc consts  --     17.0078                20.1506                 5.7983
 IR Inten    --    286.9493               261.5823                 7.9627

                     91                     92                     93
                      A                      A                      A
 Frequencies --   3038.4639              3038.8991              3042.0894
 Red. masses --      1.0668                 1.0619                 1.0650
 Frc consts  --      5.8027                 5.7780                 5.8070
 IR Inten    --     26.6585                27.1699                 5.6932

                     94                     95                     96
                      A                      A                      A
 Frequencies --   3045.5313              3046.4341              3054.0583
 Red. masses --      1.0704                 1.0649                 1.0683
 Frc consts  --      5.8495                 5.8227                 5.8708
 IR Inten    --     17.3697                24.3288                51.4237

                     97                     98                     99
                      A                      A                      A
 Frequencies --   3080.4052              3089.2221              3096.2888
 Red. masses --      1.0759                 1.1040                 1.0914
 Frc consts  --      6.0150                 6.2075                 6.1648
 IR Inten    --      4.9748                44.0490                62.2243

                    100                    101                    102
                      A                      A                      A
 Frequencies --   3111.7742              3123.6001              3136.7430
 Red. masses --      1.0970                 1.0970                 1.1047
 Frc consts  --      6.2583                 6.3060                 6.4039
 IR Inten    --      6.0195                15.8150                25.1553

                    103                    104                    105
                      A                      A                      A
 Frequencies --   3163.7486              3172.7368              3556.3489
 Red. masses --      1.0938                 1.0922                 1.0739
 Frc consts  --      6.4506                 6.4774                 8.0021
 IR Inten    --      6.0567                10.9788                19.3060

                    106                    107                    108
                      A                      A                      A
 Frequencies --   3598.0508              3680.5051              3725.4140
 Red. masses --      1.0455                 1.0640                 1.1040
 Frc consts  --      7.9748                 8.4919                 9.0272
 IR Inten    --     27.7739                50.6865                38.3717

 - Thermochemistry -
 -------------------
 Temperature   298.150 Kelvin.  Pressure   1.00000 Atm.
 Atom     1 has atomic number  6 and mass  12.00000

 Molecular mass:   273.13247 amu.
 Principal axes and moments of inertia in atomic units:
                           1         2         3
     Eigenvalues --  1909.04917********************
           X            0.99997  -0.00817   0.00052
           Y            0.00817   0.99989  -0.01275
           Z           -0.00041   0.01275   0.99992
 This molecule is an asymmetric top.
 Rotational symmetry number  1.
 Warning -- assumption of classical behavior for rotation
           may cause significant error
 Rotational temperatures (Kelvin)      0.04537     0.00688     0.00642
 Rotational constants (GHZ):           0.94536     0.14328     0.13368
 Zero-point vibrational energy     843316.1 (Joules/Mol)
                                  201.55738 (Kcal/Mol)
 Warning -- explicit consideration of  30 degrees of freedom as
           vibrations may cause significant error
 Vibrational temperatures:     24.47    35.41    39.40    45.89    68.78
          (Kelvin)             78.04   138.67   153.25   192.36   196.83
                              228.69   268.07   307.81   347.65   373.12
                              442.44   470.46   501.44   529.77   548.55
                              598.49   665.63   691.45   696.25   738.13
                              750.91   799.48   808.75   829.05   858.76
                              896.31   901.61  1010.14  1045.53  1049.36
                             1119.90  1191.72  1199.18  1209.05  1214.81
                             1255.59  1307.72  1328.57  1380.49  1414.87
                             1427.43  1464.31  1500.46  1504.68  1539.32
                             1580.71  1613.74  1627.83  1648.50  1686.19
                             1696.64  1723.67  1732.48  1746.06  1804.47
                             1861.93  1863.65  1879.94  1884.34  1910.11
                             1936.98  1940.31  1981.19  1993.63  2002.97
                             2008.22  2012.28  2025.02  2030.90  2058.43
                             2064.70  2097.90  2146.63  2154.99  2161.73
                             2170.01  2177.21  2194.34  2202.81  2209.45
                             2366.64  2523.18  2583.40  2661.49  4339.72
                             4371.67  4372.30  4376.89  4381.84  4383.14
                             4394.11  4432.02  4444.70  4454.87  4477.15
                             4494.16  4513.07  4551.93  4564.86  5116.79
                             5176.79  5295.43  5360.04

 Zero-point correction=                           0.321202 (Hartree/Particle)
 Thermal correction to Energy=                    0.340510
 Thermal correction to Enthalpy=                  0.341454
 Thermal correction to Gibbs Free Energy=         0.269693
 Sum of electronic and zero-point Energies=           -970.763261
 Sum of electronic and thermal Energies=              -970.743953
 Sum of electronic and thermal Enthalpies=            -970.743009
 Sum of electronic and thermal Free Energies=         -970.814770

                     E (Thermal)             CV                S
                      KCal/Mol        Cal/Mol-Kelvin    Cal/Mol-Kelvin
 Total                  213.673             71.104            151.033
 Electronic               0.000              0.000              0.000
 Translational            0.889              2.981             42.713
 Rotational               0.889              2.981             34.139
 Vibrational            211.896             65.143             74.181
 Vibration     1          0.593              1.986              6.956
 Vibration     2          0.593              1.985              6.222
 Vibration     3          0.593              1.984              6.010
 Vibration     4          0.594              1.983              5.708
 Vibration     5          0.595              1.978              4.906
 Vibration     6          0.596              1.976              4.657
 Vibration     7          0.603              1.952              3.526
 Vibration     8          0.605              1.944              3.332
 Vibration     9          0.613              1.920              2.892
 Vibration    10          0.614              1.917              2.848
 Vibration    11          0.621              1.893              2.562
 Vibration    12          0.632              1.859              2.264
 Vibration    13          0.644              1.820              2.010
 Vibration    14          0.658              1.777              1.791
 Vibration    15          0.668              1.747              1.666
 Vibration    16          0.697              1.659              1.376
 Vibration    17          0.711              1.622              1.275
 Vibration    18          0.726              1.578              1.173
 Vibration    19          0.741              1.538              1.087
 Vibration    20          0.751              1.510              1.034
 Vibration    21          0.779              1.436              0.906
 Vibration    22          0.820              1.333              0.758
 Vibration    23          0.837              1.293              0.708
 Vibration    24          0.840              1.286              0.700
 Vibration    25          0.868              1.221              0.626
 Vibration    26          0.877              1.201              0.606
 Vibration    27          0.911              1.127              0.533
 Vibration    28          0.918              1.113              0.520
 Vibration    29          0.933              1.083              0.492
 Vibration    30          0.955              1.038              0.455

                           ! Non-Optimized Parameters !
 Normal termination of Gaussian 16 at Sun Dec 13 13:28:51 2020.

 ----------------------------------------------------------------------
 # B3LYP/6-311++G(d,p) empiricaldispersion=gd3bj scf=xqc pop=npa geom=c
 heck
 ----------------------------------------------------------------------

 --------------------------------------
 CID_79464097_JID_9065_Energie_neutraal
 --------------------------------------
 Structure from the checkpoint file:  "JID_9065.chk"
 Charge =  0 Multiplicity = 1

 SCF Done:  E(RB3LYP) =  -971.388940811     A.U. after   15 cycles
 Normal termination of Gaussian 16 at Sun Dec 13 13:37:24 2020.

 ----------------------------------------------------------------------
 # B3LYP/6-311++G(d,p) empiricaldispersion=gd3bj scf=xqc pop=npa geom=c
 heck
 ----------------------------------------------------------------------

 ------------------------------------
 CID_79464097_JID_9065_Energie_kation
 ------------------------------------
 Structure from the checkpoint file:  "JID_9065.chk"
 Charge =  1 Multiplicity = 2

 SCF Done:  E(UB3LYP) =  -971.078972321     A.U. after   27 cycles
 Normal termination of Gaussian 16 at Sun Dec 13 13:58:19 2020.
 Gaussian 16:  ES64L-G16RevA.03 25-Dec-2016

 ----------------------------------------------------------------------
 # B3LYP/6-311++G(d,p) empiricaldispersion=gd3bj scf=xqc pop=npa geom=c
 heck
 ----------------------------------------------------------------------

 -----------------------------------
 CID_79464097_JID_9065_Energie_anion
 -----------------------------------
 Structure from the checkpoint file:  "JID_9065.chk"
 Charge = -1 Multiplicity = 2

                         Standard orientation:
 ---------------------------------------------------------------------
 Center     Atomic      Atomic             Coordinates (Angstroms)
 Number     Number       Type             X           Y           Z
 ---------------------------------------------------------------------
      1          6           0        2.557886   -1.333026   -0.416482
      2          6           0        1.220127   -0.977186   -1.076003
      3          7           0        0.666162    0.264823   -0.535756
      4          6           0        1.568242    1.414947   -0.689305
      5          6           0        2.929333    1.136848   -0.042578
      6          6           0        3.549940   -0.170713   -0.568548
      7          6           0        4.934226   -0.352085    0.062839
      8          8           0        5.775694    0.534118   -0.002009
      9          7           0        5.183698   -1.546404    0.676141
     10          6           0       -0.150817    0.139075    0.572613
     11          8           0       -0.381550   -0.943281    1.112521
     12          7           0       -0.723946    1.330206    1.036338
     13          6           0       -1.538767    2.130300    0.110967
     14          6           0       -2.754469    1.359185   -0.398442
     15          8           0       -3.547677    0.959140    0.717465
     16          6           0       -3.745420   -0.428204    0.855849
     17          6           0       -4.716623   -1.058948   -0.132577
     18          8           0       -5.016994   -2.231115   -0.112612
     19          8           0       -5.208637   -0.182707   -1.038381
     20          1           0        2.954819   -2.248370   -0.873456
     21          1           0        2.358767   -1.538547    0.643295
     22          1           0        1.361431   -0.834094   -2.155422
     23          1           0        0.488911   -1.769884   -0.921009
     24          1           0        1.114727    2.292996   -0.232574
     25          1           0        1.689164    1.611208   -1.762952
     26          1           0        2.791586    1.063369    1.044561
     27          1           0        3.619889    1.964149   -0.229242
     28          1           0        3.749604   -0.031744   -1.642009
     29          1           0        4.461720   -2.226748    0.852518
     30          1           0        6.065804   -1.645291    1.158876
     31          1           0       -1.270656    1.098474    1.860428
     32          1           0       -1.867203    3.022610    0.653103
     33          1           0       -0.933878    2.462369   -0.736606
     34          1           0       -3.363669    1.984418   -1.061854
     35          1           0       -2.421890    0.485845   -0.974351
     36          1           0       -2.800400   -0.988119    0.806793
     37          1           0       -4.162098   -0.590736    1.855245
     38          1           0       -5.806656   -0.702691   -1.608270
 ---------------------------------------------------------------------

 SCF Done:  E(UB3LYP) =  -971.382537941     A.U. after   33 cycles
 SCF Done:  E(UB3LYP) =  -971.382537941     a.u. after    1 cycles

 The electronic state is 2-A.
 Alpha  occ. eigenvalues --  -19.09293 -19.05750 -19.03806 -19.00982 -19.00343
 Alpha  occ. eigenvalues --  -14.25789 -14.24930 -14.24702 -10.22893 -10.21422
 Alpha  occ. eigenvalues --  -10.19073 -10.15529 -10.14139 -10.13112 -10.12897
 Alpha  occ. eigenvalues --  -10.12048 -10.10543 -10.09338 -10.09213  -1.03465
 Alpha  occ. eigenvalues --   -0.97490  -0.96808  -0.95439  -0.94471  -0.86566
 Alpha  occ. eigenvalues --   -0.83686  -0.82226  -0.73003  -0.69411  -0.68585
 Alpha  occ. eigenvalues --   -0.64097  -0.61532  -0.56573  -0.56059  -0.54386
 Alpha  occ. eigenvalues --   -0.52841  -0.49929  -0.47942  -0.46242  -0.44484
 Alpha  occ. eigenvalues --   -0.43765  -0.42367  -0.41927  -0.40326  -0.40034
 Alpha  occ. eigenvalues --   -0.39513  -0.38885  -0.37712  -0.36744  -0.36186
 Alpha  occ. eigenvalues --   -0.35203  -0.34839  -0.34747  -0.33045  -0.32836
 Alpha  occ. eigenvalues --   -0.32368  -0.31605  -0.30911  -0.30276  -0.29631
 Alpha  occ. eigenvalues --   -0.28626  -0.27979  -0.25899  -0.25444  -0.24906
 Alpha  occ. eigenvalues --   -0.24746  -0.22463  -0.20972  -0.19160  -0.18755
 Alpha  occ. eigenvalues --   -0.17757  -0.17304  -0.16187   0.03417
 Alpha virt. eigenvalues --    0.04640   0.05612   0.06364   0.06944   0.07627
 Alpha virt. eigenvalues --    0.07927   0.08507   0.08616   0.09344   0.09649
 Alpha virt. eigenvalues --    0.09891   0.10167   0.10390   0.11300   0.11547

  Beta  occ. eigenvalues --  -19.09246 -19.05746 -19.03793 -19.00977 -19.00339
  Beta  occ. eigenvalues --  -14.25790 -14.24877 -14.24700 -10.22893 -10.21420
  Beta  occ. eigenvalues --  -10.19066 -10.15518 -10.14119 -10.13098 -10.12882
  Beta  occ. eigenvalues --  -10.12033 -10.10534 -10.09333 -10.09190  -1.03406
  Beta  occ. eigenvalues --   -0.97483  -0.96801  -0.95427  -0.94420  -0.86558
  Beta  occ. eigenvalues --   -0.83676  -0.82155  -0.72978  -0.69384  -0.68558
  Beta  occ. eigenvalues --   -0.64059  -0.61501  -0.56523  -0.56017  -0.54339
  Beta  occ. eigenvalues --   -0.52767  -0.49869  -0.47906  -0.46195  -0.44450
  Beta  occ. eigenvalues --   -0.43745  -0.42341  -0.41904  -0.40297  -0.40011
  Beta  occ. eigenvalues --   -0.39479  -0.38855  -0.37678  -0.36722  -0.36164
  Beta  occ. eigenvalues --   -0.35173  -0.34818  -0.34730  -0.33027  -0.32804
  Beta  occ. eigenvalues --   -0.32343  -0.31587  -0.30883  -0.30249  -0.29610
  Beta  occ. eigenvalues --   -0.28600  -0.27947  -0.25867  -0.25417  -0.24882
  Beta  occ. eigenvalues --   -0.24715  -0.22436  -0.20953  -0.19123  -0.18727
  Beta  occ. eigenvalues --   -0.17738  -0.17290  -0.16172
  Beta virt. eigenvalues --    0.05555   0.06066   0.06428   0.06620   0.07134
  Beta virt. eigenvalues --    0.07960   0.08271   0.08743   0.08832   0.09630
  Beta virt. eigenvalues --    0.09742   0.10089   0.10383   0.10573   0.11497

 Mulliken charges and spin densities:
               1          2
     1  C   -0.405580  -0.051188
     2  C    0.969652  -1.372869
     3  N    0.118457   0.181716
     4  C   -0.142778  -0.367406
     5  C   -0.493538   0.220301
     6  C    1.018736  -0.507225
     7  C   -0.442153   0.184565
     8  O   -0.341166   0.004218
     9  N   -0.271598  -0.092717
    10  C   -0.204231  -0.383089
    11  O   -0.294863   0.016482
    12  N   -0.144834   0.079318
    13  C    0.205601  -0.608848
    14  C    0.011003  -0.248031
    15  O   -0.093508   0.010235
    16  C    0.079631  -0.314627
    17  C    0.097427  -0.097742
    18  O   -0.278269   0.008127
    19  O   -0.165753   0.003480
    20  H   -0.341998   0.537755
    21  H    0.247735  -0.049189
    22  H   -0.096482   0.276479
    23  H    0.118152   0.083024
    24  H    0.037753   0.116084
    25  H   -0.185058   0.366111
    26  H    0.066469   0.108537
    27  H    0.187758   0.038897
    28  H    0.098117   0.107137
    29  H   -0.270331   0.552816
    30  H   -0.146372   0.456249
    31  H    0.318758   0.002921
    32  H    0.024256   0.188180
    33  H   -0.044907   0.169207
    34  H   -0.241249   0.480946
    35  H   -0.040317   0.217576
    36  H    0.212403   0.032421
    37  H    0.101516   0.086590
    38  H   -0.268439   0.563559
 Sum of Mulliken charges =  -1.00000   1.00000

 Dipole moment (field-independent basis, Debye):
    X=             -1.5795    Y=              3.5359    Z=              1.9709  Tot=              4.3454
 Quadrupole moment (field-independent basis, Debye-Ang):
   XX=           -257.7147   YY=           -159.8337   ZZ=           -145.3096
   XY=              1.9107   XZ=            -15.1148   YZ=              5.1401

 Summary of Natural Population Analysis:

                                       Natural Population
                Natural  -----------------------------------------------
    Atom  No    Charge         Core      Valence    Rydberg      Total
 -----------------------------------------------------------------------
      C    1   -0.20681      0.99961     2.19777    0.00943     3.20681
      C    2   -0.08258      0.99961     2.07133    0.01164     3.08258
      N    3   -0.27107      0.99965     2.76032    0.01111     3.77107
      C    4   -0.08464      0.99960     2.07418    0.01086     3.08464
      C    5   -0.19245      0.99961     2.18565    0.00719     3.19245
      C    6   -0.14923      0.99954     2.13887    0.01082     3.14923
      C    7    0.34445      0.99966     1.63210    0.02378     2.65555
      O    8   -0.32695      0.99988     3.32123    0.00584     4.32695
      N    9   -0.39886      0.99970     2.89118    0.00798     3.89886
      C   10    0.41305      0.99966     1.56304    0.02425     2.58695
      O   11   -0.33529      0.99988     3.33048    0.00493     4.33529
      N   12   -0.34167      0.99969     2.83221    0.00977     3.84167
      C   13   -0.09988      0.99961     2.08882    0.01145     3.09988
      C   14   -0.01906      0.99957     2.00679    0.01271     3.01906
      O   15   -0.30187      0.99988     3.29228    0.00970     4.30187
      C   16   -0.06438      0.99953     2.05238    0.01247     3.06438
      C   17    0.39072      0.99974     1.58439    0.02515     2.60928
      O   18   -0.30608      0.99987     3.29983    0.00638     4.30608
      O   19   -0.33983      0.99988     3.33214    0.00781     4.33983
      H   20    0.10618      0.00000     0.39240    0.00142     0.39382
      H   21    0.10410      0.00000     0.39441    0.00149     0.39590
      H   22    0.09400      0.00000     0.40478    0.00122     0.40600
      H   23    0.11463      0.00000     0.38431    0.00106     0.38537
      H   24    0.10732      0.00000     0.39147    0.00121     0.39268
      H   25    0.09516      0.00000     0.40355    0.00129     0.40484
      H   26    0.09846      0.00000     0.40035    0.00120     0.40154
      H   27    0.11334      0.00000     0.38569    0.00098     0.38666
      H   28    0.10830      0.00000     0.39026    0.00144     0.39170
      H   29    0.19931      0.00000     0.29698    0.00371     0.30069
      H   30    0.19790      0.00000     0.29913    0.00297     0.30210
      H   31    0.19147      0.00000     0.30611    0.00243     0.30853
      H   32    0.09839      0.00000     0.40057    0.00104     0.40161
      H   33    0.10095      0.00000     0.39774    0.00131     0.39905
      H   34    0.09547      0.00000     0.40299    0.00154     0.40453
      H   35    0.08578      0.00000     0.41197    0.00225     0.41422
      H   36    0.11228      0.00000     0.38614    0.00158     0.38772
      H   37    0.10502      0.00000     0.39401    0.00097     0.39498
      H   38    0.24437      0.00000     0.24392    0.01171     0.25563
 =======================================================================
   * Total *    0.00000     18.99416    53.74179    0.26405    73.00000

 Normal termination of Gaussian 16 at Sun Dec 13 14:23:25 2020.
