 Gaussian 16, Revision A.03,

 -----------------------------------------------------------
 # opt freq B3LYP/6-31G(d) empiricaldispersion=gd3bj scf=xqc
 -----------------------------------------------------------

 -----------------------------
 CID_90315790_JID_151_neutraal
 -----------------------------
 Symbolic Z-matrix:
 Charge =  0 Multiplicity = 1

 SCF Done:  E(RB3LYP) =  -429.043808153     A.U. after   13 cycles
 SCF Done:  E(RB3LYP) =  -429.045834578     A.U. after   11 cycles
 SCF Done:  E(RB3LYP) =  -429.046189129     A.U. after   11 cycles
 SCF Done:  E(RB3LYP) =  -429.046277392     A.U. after   10 cycles
 SCF Done:  E(RB3LYP) =  -429.046316052     A.U. after   10 cycles
 SCF Done:  E(RB3LYP) =  -429.046328683     A.U. after    9 cycles
 SCF Done:  E(RB3LYP) =  -429.046335640     A.U. after    9 cycles
 SCF Done:  E(RB3LYP) =  -429.046337841     A.U. after    8 cycles
 SCF Done:  E(RB3LYP) =  -429.046340037     A.U. after    8 cycles
 SCF Done:  E(RB3LYP) =  -429.046341220     A.U. after    8 cycles
 SCF Done:  E(RB3LYP) =  -429.046341294     A.U. after    7 cycles
 SCF Done:  E(RB3LYP) =  -429.046341289     A.U. after    7 cycles
 Optimization completed.
    -- Stationary point found.

 1\1\GINC-NODE207\FOpt\RB3LYP\6-31G(d)\C9H18O1\VSC10255\08-Dec-2020\0\\
 # opt freq B3LYP/6-31G(d) empiricaldispersion=gd3bj scf=xqc\\CID_90315
 790_JID_151_neutraal\\0,1\C,0.8317188729,0.0127692559,-0.1987991102\C,
 0.5364378599,0.7550219063,1.074918149\C,-0.0250738278,1.9617217437,1.2
 056277117\C,-0.5380176506,2.8527601034,0.1025751356\C,-2.073375809,2.7
 451855548,0.0188730817\C,-0.1411186212,4.3309316434,0.2881875594\C,1.3
 564416526,4.6551471942,0.4257967477\C,2.2188819544,3.8886975115,-0.584
 1389121\C,1.5694116142,6.1685388548,0.2746985913\O,1.7131761535,4.2694

 Normal termination of Gaussian 16 at Tue Dec  8 10:19:24 2020.

 --------------------------------------------------------------------
 #N Geom=AllCheck Guess=TCheck SCRF=Check GenChk RB3LYP/6-31G(d) Freq
 --------------------------------------------------------------------

 Structure from the checkpoint file:  "JID_151.chk"
 -----------------------------
 CID_90315790_JID_151_neutraal
 -----------------------------
 Charge =  0 Multiplicity = 1

 SCF Done:  E(RB3LYP) =  -429.046341289     A.U. after    1 cycles

  Exact polarizability: 109.928  -9.968 100.852   0.522   0.474  86.723
 Approx polarizability: 137.101 -18.339 140.195   2.031   0.592 130.690

                      1                      2                      3
                      A                      A                      A
 Frequencies --     40.7596                57.7077               115.7652
 Red. masses --      3.0826                 3.3259                 2.3951
 Frc consts  --      0.0030                 0.0065                 0.0189
 IR Inten    --      0.0871                 0.7275                 0.9816

                      4                      5                      6
                      A                      A                      A
 Frequencies --    130.2722               162.9191               208.9801
 Red. masses --      1.1112                 2.7341                 2.5034
 Frc consts  --      0.0111                 0.0428                 0.0644
 IR Inten    --      0.1328                 1.1756                 0.8957

                      7                      8                      9
                      A                      A                      A
 Frequencies --    230.5167               248.6764               251.2672
 Red. masses --      1.9794                 1.2544                 1.0384
 Frc consts  --      0.0620                 0.0457                 0.0386
 IR Inten    --      3.1199                 6.6985                 0.0283

                     10                     11                     12
                      A                      A                      A
 Frequencies --    265.9336               286.6906               301.7301
 Red. masses --      1.1154                 1.1386                 2.3999
 Frc consts  --      0.0465                 0.0551                 0.1287
 IR Inten    --     74.2239                 5.4098                 1.0497

                     13                     14                     15
                      A                      A                      A
 Frequencies --    335.5697               352.5490               397.2668
 Red. masses --      2.7384                 2.3602                 2.6420
 Frc consts  --      0.1817                 0.1728                 0.2457
 IR Inten    --      3.4130                 9.6835                 0.7992

                     16                     17                     18
                      A                      A                      A
 Frequencies --    429.4297               470.0541               493.8411
 Red. masses --      2.0943                 2.9937                 2.3519
 Frc consts  --      0.2275                 0.3897                 0.3379
 IR Inten    --      1.0571                 8.4121                 1.6405

                     19                     20                     21
                      A                      A                      A
 Frequencies --    550.0709               610.9703               746.1599
 Red. masses --      2.4631                 2.6003                 1.3676
 Frc consts  --      0.4391                 0.5719                 0.4486
 IR Inten    --      8.7104                 3.5057                29.4527

                     22                     23                     24
                      A                      A                      A
 Frequencies --    774.6408               832.0362               906.1394
 Red. masses --      3.4541                 2.2972                 1.8287
 Frc consts  --      1.2212                 0.9370                 0.8847
 IR Inten    --      3.2607                 0.3371                14.9511

                     25                     26                     27
                      A                      A                      A
 Frequencies --    919.4818               935.4753               947.6611
 Red. masses --      2.1183                 1.5138                 2.1524
 Frc consts  --      1.0552                 0.7805                 1.1389
 IR Inten    --      2.8634                 0.0845                 5.7956

                     28                     29                     30
                      A                      A                      A
 Frequencies --    974.2243              1000.8514              1010.1630
 Red. masses --      1.8118                 1.4196                 1.3873
 Frc consts  --      1.0131                 0.8378                 0.8341
 IR Inten    --     16.6153                 0.9240                 0.9677

                     31                     32                     33
                      A                      A                      A
 Frequencies --   1024.3028              1054.0494              1074.2766
 Red. masses --      1.2759                 1.6774                 1.4857
 Frc consts  --      0.7887                 1.0980                 1.0102
 IR Inten    --      0.7285                 4.8919                 1.1802

                     34                     35                     36
                      A                      A                      A
 Frequencies --   1080.2688              1123.8180              1163.0630
 Red. masses --      2.3612                 1.5382                 2.0023
 Frc consts  --      1.6235                 1.1446                 1.5958
 IR Inten    --      5.9887                14.5148                25.2707

                     37                     38                     39
                      A                      A                      A
 Frequencies --   1177.8762              1206.9929              1225.1988
 Red. masses --      1.5342                 1.9940                 2.7101
 Frc consts  --      1.2541                 1.7115                 2.3969
 IR Inten    --     30.3282                10.2912                33.4132

                     40                     41                     42
                      A                      A                      A
 Frequencies --   1290.0523              1320.2514              1338.3035
 Red. masses --      1.4380                 1.3163                 1.2630
 Frc consts  --      1.4100                 1.3519                 1.3327
 IR Inten    --      7.7933                 8.1672                 1.7294

                     43                     44                     45
                      A                      A                      A
 Frequencies --   1366.6782              1388.9674              1414.2522
 Red. masses --      1.3815                 1.3669                 1.7157
 Frc consts  --      1.5204                 1.5537                 2.0219
 IR Inten    --     11.0255                17.9693                21.1479

                     46                     47                     48
                      A                      A                      A
 Frequencies --   1424.5077              1431.7544              1440.1504
 Red. masses --      1.2891                 1.2528                 1.2245
 Frc consts  --      1.5412                 1.5131                 1.4963
 IR Inten    --      9.6776                 0.4488                 3.8928

                     49                     50                     51
                      A                      A                      A
 Frequencies --   1442.8369              1460.6225              1500.7942
 Red. masses --      1.2431                 1.4383                 1.0890
 Frc consts  --      1.5247                 1.8079                 1.4452
 IR Inten    --      6.0165                 4.8993                 1.4662

                     52                     53                     54
                      A                      A                      A
 Frequencies --   1513.3569              1516.0818              1517.4468
 Red. masses --      1.0465                 1.0551                 1.0503
 Frc consts  --      1.4121                 1.4289                 1.4249
 IR Inten    --      4.2880                 1.5432                 1.2565

                     55                     56                     57
                      A                      A                      A
 Frequencies --   1522.8206              1525.2201              1530.6896
 Red. masses --      1.0632                 1.0464                 1.0656
 Frc consts  --      1.4527                 1.4342                 1.4710
 IR Inten    --      5.5123                 7.7278                 0.5496

                     58                     59                     60
                      A                      A                      A
 Frequencies --   1531.6789              1544.8321              1748.2018
 Red. masses --      1.0671                 1.0635                 6.2152
 Frc consts  --      1.4750                 1.4954                11.1915
 IR Inten    --      1.8364                 5.0753                 0.7321

                     61                     62                     63
                      A                      A                      A
 Frequencies --   3030.7271              3034.4954              3038.4119
 Red. masses --      1.0404                 1.0534                 1.0392
 Frc consts  --      5.6307                 5.7149                 5.6523
 IR Inten    --     35.3983                 6.1775                10.2778

                     64                     65                     66
                      A                      A                      A
 Frequencies --   3040.6304              3046.1553              3055.9222
 Red. masses --      1.0382                 1.0425                 1.0848
 Frc consts  --      5.6554                 5.6996                 5.9685
 IR Inten    --     59.2875                34.2871                14.1034

                     67                     68                     69
                      A                      A                      A
 Frequencies --   3071.9416              3079.1082              3099.7476
 Red. masses --      1.1000                 1.1018                 1.0988
 Frc consts  --      6.1158                 6.1546                 6.2206
 IR Inten    --     26.2339                16.8107                 3.3352

                     70                     71                     72
                      A                      A                      A
 Frequencies --   3104.7974              3108.6472              3122.3218
 Red. masses --      1.1017                 1.0993                 1.1014
 Frc consts  --      6.2571                 6.2591                 6.3261
 IR Inten    --     35.3355                69.8996                34.3861

                     73                     74                     75
                      A                      A                      A
 Frequencies --   3126.4820              3127.1338              3143.7363
 Red. masses --      1.0955                 1.1002                 1.0873
 Frc consts  --      6.3095                 6.3390                 6.3315
 IR Inten    --      3.7231                34.7468                36.1151

                     76                     77                     78
                      A                      A                      A
 Frequencies --   3151.0337              3172.2871              3732.7011
 Red. masses --      1.0994                 1.0928                 1.0659
 Frc consts  --      6.4313                 6.4796                 8.7505
 IR Inten    --     15.5190                29.7348                 5.6794

 - Thermochemistry -
 -------------------
 Temperature   298.150 Kelvin.  Pressure   1.00000 Atm.
 Atom     1 has atomic number  6 and mass  12.00000

 Molecular mass:   142.13577 amu.
 Principal axes and moments of inertia in atomic units:
                           1         2         3
     Eigenvalues --  1009.637282148.621952555.74627
           X            0.99999  -0.00484  -0.00085
           Y            0.00482   0.99969  -0.02461
           Z            0.00097   0.02461   0.99970
 This molecule is an asymmetric top.
 Rotational symmetry number  1.
 Warning -- assumption of classical behavior for rotation
           may cause significant error
 Rotational temperatures (Kelvin)      0.08579     0.04031     0.03389
 Rotational constants (GHZ):           1.78751     0.83995     0.70615
 Zero-point vibrational energy     670946.1 (Joules/Mol)
                                  160.35997 (Kcal/Mol)
 Warning -- explicit consideration of  20 degrees of freedom as
           vibrations may cause significant error
 Vibrational temperatures:     58.64    83.03   166.56   187.43   234.40
          (Kelvin)            300.68   331.66   357.79   361.52   382.62
                              412.48   434.12   482.81   507.24   571.58
                              617.85   676.30   710.53   791.43   879.05
                             1073.56  1114.54  1197.11  1303.73  1322.93
                             1345.94  1363.47  1401.69  1440.00  1453.40
                             1473.74  1516.54  1545.64  1554.27  1616.92
                             1673.39  1694.70  1736.59  1762.79  1856.10
                             1899.55  1925.52  1966.35  1998.41  2034.79
                             2049.55  2059.98  2072.06  2075.92  2101.51
                             2159.31  2177.38  2181.30  2183.27  2191.00
                             2194.45  2202.32  2203.74  2222.67  2515.27
                             4360.54  4365.96  4371.60  4374.79  4382.74
                             4396.79  4419.84  4430.15  4459.85  4467.11
                             4472.65  4492.32  4498.31  4499.25  4523.14
                             4533.63  4564.21  5370.52

 Zero-point correction=                           0.255550 (Hartree/Particle)
 Thermal correction to Energy=                    0.268461
 Thermal correction to Enthalpy=                  0.269405
 Thermal correction to Gibbs Free Energy=         0.217114
 Sum of electronic and zero-point Energies=           -428.790791
 Sum of electronic and thermal Energies=              -428.777881
 Sum of electronic and thermal Enthalpies=            -428.776936
 Sum of electronic and thermal Free Energies=         -428.829227

                     E (Thermal)             CV                S
                      KCal/Mol        Cal/Mol-Kelvin    Cal/Mol-Kelvin
 Total                  168.462             47.985            110.055
 Electronic               0.000              0.000              0.000
 Translational            0.889              2.981             40.766
 Rotational               0.889              2.981             30.095
 Vibrational            166.684             42.023             39.194
 Vibration     1          0.594              1.981              5.222
 Vibration     2          0.596              1.974              4.534
 Vibration     3          0.608              1.936              3.170
 Vibration     4          0.612              1.923              2.942
 Vibration     5          0.623              1.888              2.516
 Vibration     6          0.642              1.827              2.053
 Vibration     7          0.652              1.794              1.875
 Vibration     8          0.662              1.765              1.740
 Vibration     9          0.663              1.761              1.722
 Vibration    10          0.672              1.736              1.622
 Vibration    11          0.684              1.698              1.493
 Vibration    12          0.694              1.670              1.407
 Vibration    13          0.717              1.604              1.233
 Vibration    14          0.729              1.570              1.155
 Vibration    15          0.764              1.476              0.973
 Vibration    16          0.791              1.406              0.861
 Vibration    17          0.827              1.316              0.737
 Vibration    18          0.849              1.264              0.674
 Vibration    19          0.905              1.140              0.544
 Vibration    20          0.970              1.009              0.431

 Optimization completed.
    -- Stationary point found.

 1\1\GINC-NODE207\Freq\RB3LYP\6-31G(d)\C9H18O1\VSC10255\08-Dec-2020\0\\
 #N Geom=AllCheck Guess=TCheck SCRF=Check GenChk RB3LYP/6-31G(d) Freq\\
 CID_90315790_JID_151_neutraal\\0,1\C,0.8317188729,0.0127692559,-0.1987
 991102\C,0.5364378599,0.7550219063,1.074918149\C,-0.0250738278,1.96172
 17437,1.2056277117\C,-0.5380176506,2.8527601034,0.1025751356\C,-2.0733
 75809,2.7451855548,0.0188730817\C,-0.1411186212,4.3309316434,0.2881875
 594\C,1.3564416526,4.6551471942,0.4257967477\C,2.2188819544,3.88869751
 15,-0.5841389121\C,1.5694116142,6.1685388548,0.2746985913\O,1.71317615

 Normal termination of Gaussian 16 at Tue Dec  8 10:24:35 2020.

 ----------------------------------------------------------------------
 # B3LYP/6-311++G(d,p) empiricaldispersion=gd3bj scf=xqc pop=npa geom=c
 heck
 ----------------------------------------------------------------------

 -------------------------------------
 CID_90315790_JID_151_Energie_neutraal
 -------------------------------------
 Structure from the checkpoint file:  "JID_151.chk"
 Charge =  0 Multiplicity = 1

 SCF Done:  E(RB3LYP) =  -429.179610652     A.U. after   13 cycles
 Normal termination of Gaussian 16 at Tue Dec  8 10:26:47 2020.

 ----------------------------------------------------------------------
 # B3LYP/6-311++G(d,p) empiricaldispersion=gd3bj scf=xqc pop=npa geom=c
 heck
 ----------------------------------------------------------------------

 -----------------------------------
 CID_90315790_JID_151_Energie_kation
 -----------------------------------
 Structure from the checkpoint file:  "JID_151.chk"
 Charge =  1 Multiplicity = 2

 SCF Done:  E(UB3LYP) =  -428.872685985     A.U. after   17 cycles
 Normal termination of Gaussian 16 at Tue Dec  8 10:30:46 2020.
 Gaussian 16:  ES64L-G16RevA.03 25-Dec-2016

 ----------------------------------
 CID_90315790_JID_151_Energie_anion
 ----------------------------------
 Structure from the checkpoint file:  "JID_151.chk"
 Charge = -1 Multiplicity = 2

                         Standard orientation:
 ---------------------------------------------------------------------
 Center     Atomic      Atomic             Coordinates (Angstroms)
 Number     Number       Type             X           Y           Z
 ---------------------------------------------------------------------
      1          6           0        2.905319   -1.319104    0.621382
      2          6           0        2.286215   -0.860576   -0.669722
      3          6           0        1.348544    0.078047   -0.837846
      4          6           0        0.715431    0.935418    0.228862
      5          6           0        1.353255    2.338586    0.214619
      6          6           0       -0.811896    1.069347    0.066665
      7          6           0       -1.640664   -0.226065    0.024366
      8          6           0       -1.202115   -1.239295    1.088442
      9          6           0       -3.129854    0.112461    0.186405
     10          8           0       -1.431520   -0.775122   -1.288773
     11          1           0        2.490836   -0.809220    1.495462
     12          1           0        3.989869   -1.144446    0.619849
     13          1           0        2.764026   -2.399191    0.763960
     14          1           0        2.656919   -1.367479   -1.561090
     15          1           0        1.006543    0.284142   -1.850625
     16          1           0        0.914628    0.497136    1.213525
     17          1           0        1.210560    2.820590   -0.760264
     18          1           0        0.904032    2.985609    0.978243
     19          1           0        2.429999    2.277244    0.402406
     20          1           0       -1.185022    1.688816    0.892600
     21          1           0       -1.030921    1.617716   -0.859258
     22          1           0       -1.257784   -0.809977    2.095309
     23          1           0       -1.858179   -2.119660    1.069571
     24          1           0       -0.178121   -1.571531    0.902044
     25          1           0       -3.437431    0.840442   -0.571327
     26          1           0       -3.742912   -0.788909    0.060713
     27          1           0       -3.343042    0.527722    1.178126
     28          1           0       -1.827248   -1.660937   -1.298088
 ---------------------------------------------------------------------

 SCF Done:  E(UB3LYP) =  -429.164138636     A.U. after   29 cycles

 The electronic state is 2-A.
 Alpha  occ. eigenvalues --  -19.00536 -10.11878 -10.06975 -10.06024 -10.05967
 Alpha  occ. eigenvalues --  -10.05776 -10.05681 -10.05580 -10.04886 -10.04627
 Alpha  occ. eigenvalues --   -0.90998  -0.71687  -0.67678  -0.65009  -0.58303
 Alpha  occ. eigenvalues --   -0.57849  -0.57642  -0.50109  -0.46074  -0.42072
 Alpha  occ. eigenvalues --   -0.38384  -0.37121  -0.34851  -0.33845  -0.33003
 Alpha  occ. eigenvalues --   -0.30857  -0.30652  -0.29630  -0.28744  -0.28147
 Alpha  occ. eigenvalues --   -0.27184  -0.26368  -0.26179  -0.25049  -0.24050
 Alpha  occ. eigenvalues --   -0.22227  -0.21325  -0.20596  -0.16748  -0.13333
 Alpha  occ. eigenvalues --    0.04678
 Alpha virt. eigenvalues --    0.06973   0.07531   0.08411   0.09264   0.09608
 Alpha virt. eigenvalues --    0.10258   0.10524   0.10803   0.11703   0.12067
 Alpha virt. eigenvalues --    0.12313   0.12492   0.13536   0.14059   0.14294

  Beta  occ. eigenvalues --  -19.00506 -10.11875 -10.06965 -10.05995 -10.05958
  Beta  occ. eigenvalues --  -10.05754 -10.05662 -10.05577 -10.04850 -10.04583
  Beta  occ. eigenvalues --   -0.90933  -0.71663  -0.67644  -0.64974  -0.58232
  Beta  occ. eigenvalues --   -0.57800  -0.57589  -0.50052  -0.46010  -0.42033
  Beta  occ. eigenvalues --   -0.38335  -0.37084  -0.34812  -0.33814  -0.32955
  Beta  occ. eigenvalues --   -0.30817  -0.30614  -0.29592  -0.28706  -0.28112
  Beta  occ. eigenvalues --   -0.27152  -0.26327  -0.26151  -0.25013  -0.24009
  Beta  occ. eigenvalues --   -0.22187  -0.21297  -0.20561  -0.16717  -0.13315
  Beta virt. eigenvalues --    0.06922   0.07894   0.08207   0.08863   0.09889
  Beta virt. eigenvalues --    0.10202   0.10547   0.11115   0.11246   0.12049
  Beta virt. eigenvalues --    0.12288   0.12710   0.12844   0.13934   0.14299

 Mulliken charges and spin densities:
               1          2
     1  C    0.858764  -1.528927
     2  C   -0.229412  -0.062487
     3  C   -0.784911   0.710664
     4  C   -0.815697   1.706203
     5  C    0.836527  -1.522069
     6  C    2.047405  -2.992511
     7  C   -2.711994   3.095695
     8  C    0.822446  -1.622901
     9  C    1.033818  -1.496498
    10  O   -0.130475  -0.032738
    11  H   -0.405439   0.533621
    12  H   -0.187447   0.326232
    13  H   -0.202444   0.353096
    14  H   -0.143794   0.285438
    15  H    0.053616   0.127775
    16  H    0.377720  -0.230255
    17  H   -0.040387   0.172848
    18  H   -0.244625   0.375888
    19  H    0.031417   0.111175
    20  H   -0.254736   0.413590
    21  H    0.327950  -0.130588
    22  H   -0.339580   0.515613
    23  H   -0.777093   0.918159
    24  H    0.602519  -0.420600
    25  H   -0.133606   0.278329
    26  H   -0.335785   0.475748
    27  H   -0.163136   0.301405
    28  H   -0.091621   0.338095
 Sum of Mulliken charges =  -1.00000   1.00000

 Dipole moment (field-independent basis, Debye):
    X=              1.9004    Y=              2.4339    Z=             -2.5041  Tot=              3.9757
 Quadrupole moment (field-independent basis, Debye-Ang):
   XX=           -124.7478   YY=           -108.2987   ZZ=           -100.2064
   XY=             -4.1210   XZ=              0.0620   YZ=             -0.6492

 Summary of Natural Population Analysis:

                                       Natural Population
                Natural  -----------------------------------------------
    Atom  No    Charge         Core      Valence    Rydberg      Total
 -----------------------------------------------------------------------
      C    1   -0.30386      0.99965     2.29855    0.00567     3.30386
      C    2   -0.09794      0.99952     2.08829    0.01013     3.09794
      C    3   -0.08197      0.99950     2.07142    0.01105     3.08197
      C    4   -0.13282      0.99958     2.12256    0.01068     3.13282
      C    5   -0.27673      0.99965     2.27091    0.00618     3.27673
      C    6   -0.18862      0.99956     2.17796    0.01110     3.18862
      C    7    0.12560      0.99955     1.86037    0.01448     2.87440
      C    8   -0.30081      0.99961     2.29390    0.00729     3.30081
      C    9   -0.29246      0.99962     2.28588    0.00696     3.29246
      O   10   -0.37768      0.99989     3.37113    0.00667     4.37768
      H   11    0.10065      0.00000     0.39805    0.00130     0.39935
      H   12    0.10100      0.00000     0.39783    0.00117     0.39900
      H   13    0.10232      0.00000     0.39649    0.00119     0.39768
      H   14    0.08904      0.00000     0.40954    0.00142     0.41096
      H   15    0.09919      0.00000     0.39958    0.00122     0.40081
      H   16    0.09904      0.00000     0.39845    0.00250     0.40096
      H   17    0.09442      0.00000     0.40462    0.00096     0.40558
      H   18    0.09812      0.00000     0.40096    0.00092     0.40188
      H   19    0.10035      0.00000     0.39881    0.00084     0.39965
      H   20    0.10208      0.00000     0.39671    0.00120     0.39792
      H   21    0.10013      0.00000     0.39848    0.00139     0.39987
      H   22    0.10335      0.00000     0.39494    0.00172     0.39665
      H   23    0.10079      0.00000     0.39719    0.00202     0.39921
      H   24    0.10640      0.00000     0.39167    0.00194     0.39360
      H   25    0.10012      0.00000     0.39880    0.00108     0.39988
      H   26    0.10003      0.00000     0.39842    0.00155     0.39997
      H   27    0.10079      0.00000     0.39788    0.00133     0.39921
      H   28    0.22945      0.00000     0.26668    0.00387     0.27055
 =======================================================================
   * Total *   -0.00000      9.99613    29.88609    0.11779    40.00000

 Normal termination of Gaussian 16 at Tue Dec  8 10:42:32 2020.
