 Gaussian 16, Revision A.03,

 -----------------------------------------------------------
 # opt freq B3LYP/6-31G(d) empiricaldispersion=gd3bj scf=xqc
 -----------------------------------------------------------

 ------------------------------
 CID_84772324_JID_4359_neutraal
 ------------------------------
 Symbolic Z-matrix:
 Charge =  0 Multiplicity = 1

 SCF Done:  E(RB3LYP) =  -648.250334858     A.U. after   14 cycles
 SCF Done:  E(RB3LYP) =  -648.255972499     A.U. after   12 cycles
 SCF Done:  E(RB3LYP) =  -648.256057936     A.U. after   12 cycles
 SCF Done:  E(RB3LYP) =  -648.256696801     A.U. after   12 cycles
 SCF Done:  E(RB3LYP) =  -648.257271499     A.U. after   12 cycles
 SCF Done:  E(RB3LYP) =  -648.257320076     A.U. after   11 cycles
 SCF Done:  E(RB3LYP) =  -648.257345434     A.U. after   10 cycles
 SCF Done:  E(RB3LYP) =  -648.257393909     A.U. after   11 cycles
 SCF Done:  E(RB3LYP) =  -648.257421538     A.U. after   11 cycles
 SCF Done:  E(RB3LYP) =  -648.257506510     A.U. after   11 cycles
 SCF Done:  E(RB3LYP) =  -648.262574881     A.U. after   11 cycles
 SCF Done:  E(RB3LYP) =  -648.262595066     A.U. after   10 cycles
 SCF Done:  E(RB3LYP) =  -648.262603326     A.U. after   10 cycles
 SCF Done:  E(RB3LYP) =  -648.262604429     A.U. after    8 cycles
 SCF Done:  E(RB3LYP) =  -648.262604578     A.U. after    8 cycles
 Optimization completed.
    -- Stationary point found.
 Normal termination of Gaussian 16 at Thu Dec 10 09:31:32 2020.

 --------------------------------------------------------------------
 #N Geom=AllCheck Guess=TCheck SCRF=Check GenChk RB3LYP/6-31G(d) Freq
 --------------------------------------------------------------------

 Structure from the checkpoint file:  "JID_4359.chk"
 ------------------------------
 CID_84772324_JID_4359_neutraal
 ------------------------------
 Charge =  0 Multiplicity = 1

 SCF Done:  E(RB3LYP) =  -648.262604578     A.U. after    1 cycles

  Exact polarizability: 147.612  -8.088 127.138  10.988  -2.097  72.994
 Approx polarizability: 211.761 -11.520 236.706  25.768  -1.722 110.489

                      1                      2                      3
                      A                      A                      A
 Frequencies --     41.5192                78.5840               101.0521
 Red. masses --      4.3819                 3.9670                 3.3636
 Frc consts  --      0.0045                 0.0144                 0.0202
 IR Inten    --      1.0230                 1.1040                 2.0467

                      4                      5                      6
                      A                      A                      A
 Frequencies --    143.3352               188.0169               227.7392
 Red. masses --      7.3013                 4.1602                 5.3770
 Frc consts  --      0.0884                 0.0866                 0.1643
 IR Inten    --      2.6949                 1.5978                 0.1057

                      7                      8                      9
                      A                      A                      A
 Frequencies --    253.0055               290.0555               308.9104
 Red. masses --      1.1245                 3.1685                 3.4288
 Frc consts  --      0.0424                 0.1571                 0.1928
 IR Inten    --      0.2045                 1.3754                 2.6846

                     10                     11                     12
                      A                      A                      A
 Frequencies --    334.8936               359.4641               417.4047
 Red. masses --      1.2566                 3.2251                 3.5408
 Frc consts  --      0.0830                 0.2455                 0.3635
 IR Inten    --     36.9936                 4.2638                 1.3938

                     13                     14                     15
                      A                      A                      A
 Frequencies --    422.4430               453.2146               517.9555
 Red. masses --      2.9054                 4.4076                 4.0246
 Frc consts  --      0.3055                 0.5334                 0.6361
 IR Inten    --      2.8290                 3.8238                 1.5750

                     16                     17                     18
                      A                      A                      A
 Frequencies --    540.3589               568.6819               604.4418
 Red. masses --      3.7243                 6.1855                 4.0171
 Frc consts  --      0.6407                 1.1786                 0.8647
 IR Inten    --      4.1139                 1.8465                 1.5760

                     19                     20                     21
                      A                      A                      A
 Frequencies --    643.6361               657.8099               681.3184
 Red. masses --      1.2618                 3.7349                 3.5302
 Frc consts  --      0.3080                 0.9522                 0.9655
 IR Inten    --    149.7683                17.9765                24.1278

                     22                     23                     24
                      A                      A                      A
 Frequencies --    772.3137               785.7619               807.1985
 Red. masses --      4.0037                 4.1978                 1.7475
 Frc consts  --      1.4070                 1.5270                 0.6709
 IR Inten    --      5.0131                 1.1336                21.9300

                     25                     26                     27
                      A                      A                      A
 Frequencies --    819.2918               833.7107               850.6166
 Red. masses --      4.9257                 1.3891                 3.0161
 Frc consts  --      1.9480                 0.5689                 1.2858
 IR Inten    --     19.6164                21.2877                23.0929

                     28                     29                     30
                      A                      A                      A
 Frequencies --    880.9684               908.7115               934.4431
 Red. masses --      6.1304                 1.7046                 1.3718
 Frc consts  --      2.8032                 0.8293                 0.7057
 IR Inten    --     40.1484                86.3376                 0.9962

                     31                     32                     33
                      A                      A                      A
 Frequencies --    948.7861               967.7366              1019.7872
 Red. masses --      1.3684                 1.4006                 1.4236
 Frc consts  --      0.7258                 0.7728                 0.8723
 IR Inten    --     23.6491                 0.5152                 3.3624

                     34                     35                     36
                      A                      A                      A
 Frequencies --   1052.0401              1082.9465              1102.5985
 Red. masses --      2.2359                 4.7132                 2.2933
 Frc consts  --      1.4581                 3.2567                 1.6427
 IR Inten    --      2.5668               103.3149                24.2855

                     37                     38                     39
                      A                      A                      A
 Frequencies --   1113.0242              1127.8025              1182.0529
 Red. masses --      2.9925                 4.0741                 1.7872
 Frc consts  --      2.1842                 3.0531                 1.4713
 IR Inten    --      7.5669                38.2036                11.3462

                     40                     41                     42
                      A                      A                      A
 Frequencies --   1209.2062              1219.6364              1232.8889
 Red. masses --      2.0137                 1.8280                 1.5616
 Frc consts  --      1.7348                 1.6021                 1.3985
 IR Inten    --     22.1486                 9.0311                 8.4568

                     43                     44                     45
                      A                      A                      A
 Frequencies --   1293.5144              1311.4548              1327.8828
 Red. masses --      1.4880                 1.9686                 2.9479
 Frc consts  --      1.4669                 1.9949                 3.0626
 IR Inten    --     14.3554                 5.9942                13.3798

                     46                     47                     48
                      A                      A                      A
 Frequencies --   1343.9889              1350.7154              1378.3721
 Red. masses --      2.6297                 1.9543                 1.9796
 Frc consts  --      2.7986                 2.1008                 2.2160
 IR Inten    --      2.4444                 4.9397                13.5646

                     49                     50                     51
                      A                      A                      A
 Frequencies --   1405.5501              1433.0768              1441.3171
 Red. masses --      1.4202                 1.2571                 1.2760
 Frc consts  --      1.6531                 1.5211                 1.5618
 IR Inten    --     13.6468                 8.3129                 6.6812

                     52                     53                     54
                      A                      A                      A
 Frequencies --   1466.8091              1482.6227              1501.3689
 Red. masses --      1.1967                 2.9706                 2.3661
 Frc consts  --      1.5170                 3.8473                 3.1424
 IR Inten    --    105.0281                20.1954                30.1950

                     55                     56                     57
                      A                      A                      A
 Frequencies --   1522.5150              1526.4087              1618.9923
 Red. masses --      1.0503                 1.0549                 6.1139
 Frc consts  --      1.4345                 1.4481                 9.4419
 IR Inten    --      1.7074                 7.5776                19.5343

                     58                     59                     60
                      A                      A                      A
 Frequencies --   1627.2531              1665.6075              1692.7977
 Red. masses --      6.1691                 7.9697                 1.0917
 Frc consts  --      9.6247                13.0267                 1.8431
 IR Inten    --     24.4622                14.8932                35.3151

                     61                     62                     63
                      A                      A                      A
 Frequencies --   3045.1280              3050.9669              3064.3184
 Red. masses --      1.0403                 1.0811                 1.0855
 Frc consts  --      5.6838                 5.9289                 6.0057
 IR Inten    --     12.4892                24.2876                39.7110

                     64                     65                     66
                      A                      A                      A
 Frequencies --   3111.3153              3124.2101              3183.6923
 Red. masses --      1.1013                 1.1024                 1.0894
 Frc consts  --      6.2813                 6.3397                 6.5057
 IR Inten    --     27.6512                39.4537                25.0336

                     67                     68                     69
                      A                      A                      A
 Frequencies --   3205.4408              3232.0290              3289.8742
 Red. masses --      1.0909                 1.0945                 1.0984
 Frc consts  --      6.6042                 6.7363                 7.0042
 IR Inten    --     11.0932                 6.9140                 0.5713

                     70                     71                     72
                      A                      A                      A
 Frequencies --   3479.7512              3568.6837              3573.6625
 Red. masses --      1.0505                 1.0917                 1.0654
 Frc consts  --      7.4946                 8.1915                 8.0170
 IR Inten    --      0.2656                 1.6722                89.2195

 - Thermochemistry -
 -------------------
 Temperature   298.150 Kelvin.  Pressure   1.00000 Atm.
 Atom     1 has atomic number  6 and mass  12.00000

 Molecular mass:   192.08988 amu.
 Principal axes and moments of inertia in atomic units:
                           1         2         3
     Eigenvalues --  1545.463473357.271963992.62996
           X            0.99989  -0.00469  -0.01409
           Y            0.00469   0.99999   0.00014
           Z            0.01409  -0.00021   0.99990
 This molecule is an asymmetric top.
 Rotational symmetry number  1.
 Warning -- assumption of classical behavior for rotation
           may cause significant error
 Rotational temperatures (Kelvin)      0.05604     0.02580     0.02169
 Rotational constants (GHZ):           1.16777     0.53756     0.45202
 Zero-point vibrational energy     562272.9 (Joules/Mol)
                                  134.38644 (Kcal/Mol)
 Warning -- explicit consideration of  18 degrees of freedom as
           vibrations may cause significant error
 Vibrational temperatures:     59.74   113.06   145.39   206.23   270.51
          (Kelvin)            327.67   364.02   417.33   444.45   481.84
                              517.19   600.55   607.80   652.07   745.22
                              777.46   818.21   869.66   926.05   946.44
                              980.27  1111.19  1130.54  1161.38  1178.78
                             1199.52  1223.85  1267.52  1307.43  1344.46
                             1365.09  1392.36  1467.25  1513.65  1558.12
                             1586.39  1601.39  1622.66  1700.71  1739.78
                             1754.78  1773.85  1861.08  1886.89  1910.53
                             1933.70  1943.38  1983.17  2022.27  2061.88
                             2073.73  2110.41  2133.16  2160.14  2190.56
                             2196.16  2329.37  2341.25  2396.44  2435.56
                             4381.26  4389.66  4408.87  4476.49  4495.04
                             4580.62  4611.91  4650.17  4733.40  5006.59
                             5134.54  5141.70

 Zero-point correction=                           0.214158 (Hartree/Particle)
 Thermal correction to Energy=                    0.226170
 Thermal correction to Enthalpy=                  0.227114
 Thermal correction to Gibbs Free Energy=         0.175866
 Sum of electronic and zero-point Energies=           -648.048446
 Sum of electronic and thermal Energies=              -648.036435
 Sum of electronic and thermal Enthalpies=            -648.035490
 Sum of electronic and thermal Free Energies=         -648.086739

                     E (Thermal)             CV                S
                      KCal/Mol        Cal/Mol-Kelvin    Cal/Mol-Kelvin
 Total                  141.924             47.433            107.861
 Electronic               0.000              0.000              0.000
 Translational            0.889              2.981             41.664
 Rotational               0.889              2.981             31.405
 Vibrational            140.146             41.472             34.792
 Vibration     1          0.594              1.981              5.185
 Vibration     2          0.600              1.964              3.926
 Vibration     3          0.604              1.948              3.434
 Vibration     4          0.616              1.910              2.759
 Vibration     5          0.633              1.856              2.247
 Vibration     6          0.651              1.799              1.897
 Vibration     7          0.664              1.758              1.710
 Vibration     8          0.686              1.692              1.474
 Vibration     9          0.698              1.657              1.368
 Vibration    10          0.716              1.606              1.236
 Vibration    11          0.734              1.556              1.124
 Vibration    12          0.780              1.432              0.901
 Vibration    13          0.785              1.421              0.884
 Vibration    14          0.812              1.354              0.786
 Vibration    15          0.873              1.210              0.615
 Vibration    16          0.895              1.161              0.565
 Vibration    17          0.925              1.099              0.507
 Vibration    18          0.963              1.022              0.442

 Optimization completed.
    -- Stationary point found.
 Normal termination of Gaussian 16 at Thu Dec 10 09:39:35 2020.

 ----------------------------------------------------------------------
 # B3LYP/6-311++G(d,p) empiricaldispersion=gd3bj scf=xqc pop=npa geom=c
 heck
 ----------------------------------------------------------------------

 --------------------------------------
 CID_84772324_JID_4359_Energie_neutraal
 --------------------------------------
 Structure from the checkpoint file:  "JID_4359.chk"
 Charge =  0 Multiplicity = 1

 SCF Done:  E(RB3LYP) =  -648.451787879     A.U. after   15 cycles
 Normal termination of Gaussian 16 at Thu Dec 10 09:43:04 2020.

 ----------------------------------------------------------------------
 # B3LYP/6-311++G(d,p) empiricaldispersion=gd3bj scf=xqc pop=npa geom=c
 heck
 ----------------------------------------------------------------------

 ------------------------------------
 CID_84772324_JID_4359_Energie_kation
 ------------------------------------
 Structure from the checkpoint file:  "JID_4359.chk"
 Charge =  1 Multiplicity = 2

 SCF Done:  E(UB3LYP) =  -648.143932561     A.U. after   22 cycles
 Normal termination of Gaussian 16 at Thu Dec 10 09:50:32 2020.
 Gaussian 16:  ES64L-G16RevA.03 25-Dec-2016

 ----------------------------------------------------------------------
 # B3LYP/6-311++G(d,p) empiricaldispersion=gd3bj scf=xqc pop=npa geom=c
 heck
 ----------------------------------------------------------------------

 -----------------------------------
 CID_84772324_JID_4359_Energie_anion
 -----------------------------------
 Structure from the checkpoint file:  "JID_4359.chk"
 Charge = -1 Multiplicity = 2

                         Standard orientation:
 ---------------------------------------------------------------------
 Center     Atomic      Atomic             Coordinates (Angstroms)
 Number     Number       Type             X           Y           Z
 ---------------------------------------------------------------------
      1          6           0       -2.676354    0.777651    1.513644
      2          6           0       -2.621489   -0.248107    0.382615
      3          6           0       -1.823358    0.235623   -0.858517
      4          6           0       -0.433373    0.715664   -0.521109
      5          6           0       -0.031155    2.006457   -0.401782
      6          8           0        1.300676    2.124925   -0.053682
      7          6           0        1.772258    0.850107    0.046832
      8          6           0        0.751125   -0.075919   -0.234010
      9          6           0        1.094905   -1.435819   -0.195109
     10          7           0        2.324767   -1.848011    0.117245
     11          6           0        3.267474   -0.924331    0.390953
     12          6           0        3.061938    0.454824    0.370336
     13          8           0       -1.795357   -0.808423   -1.814960
     14          7           0       -2.077602   -1.562432    0.766725
     15          1           0       -1.678816    0.954350    1.930260
     16          1           0       -3.329860    0.427340    2.320272
     17          1           0       -3.065249    1.740328    1.159665
     18          1           0       -3.637133   -0.438230    0.014951
     19          1           0       -2.374580    1.075302   -1.299786
     20          1           0       -0.550737    2.943760   -0.534164
     21          1           0        0.363025   -2.206314   -0.419377
     22          1           0        4.251362   -1.316380    0.638665
     23          1           0        3.853248    1.162837    0.588866
     24          1           0       -1.800383   -1.620953   -1.267345
     25          1           0       -1.232280   -1.444990    1.324186
     26          1           0       -2.743136   -2.072857    1.342043
 ---------------------------------------------------------------------

 SCF Done:  E(UB3LYP) =  -648.444751179     A.U. after   33 cycles
 SCF Done:  E(UB3LYP) =  -648.444751179     a.u. after    1 cycles

 The electronic state is 2-A.
 Alpha  occ. eigenvalues --  -19.07887 -19.00066 -14.19833 -14.19193 -10.12795
 Alpha  occ. eigenvalues --  -10.11655 -10.10856 -10.09686 -10.08847 -10.08298
 Alpha  occ. eigenvalues --  -10.06851 -10.06768 -10.06601 -10.05478  -1.00334
 Alpha  occ. eigenvalues --   -0.91186  -0.82326  -0.78763  -0.70731  -0.68528
 Alpha  occ. eigenvalues --   -0.64872  -0.62625  -0.57284  -0.54148  -0.51009
 Alpha  occ. eigenvalues --   -0.49504  -0.46527  -0.42397  -0.40626  -0.39492
 Alpha  occ. eigenvalues --   -0.37049  -0.35979  -0.35245  -0.34445  -0.33867
 Alpha  occ. eigenvalues --   -0.32702  -0.31994  -0.30215  -0.29817  -0.28622
 Alpha  occ. eigenvalues --   -0.27822  -0.27261  -0.24388  -0.23899  -0.22063
 Alpha  occ. eigenvalues --   -0.18622  -0.16696  -0.15913  -0.15579  -0.14622
 Alpha  occ. eigenvalues --   -0.12014   0.04580
 Alpha virt. eigenvalues --    0.06328   0.07808   0.07988   0.09329   0.09399
 Alpha virt. eigenvalues --    0.09786   0.10293   0.11356   0.11791   0.12274
 Alpha virt. eigenvalues --    0.12623   0.13526   0.14300   0.14931   0.15519

  Beta  occ. eigenvalues --  -19.07848 -19.00058 -14.19804 -14.19242 -10.12825
  Beta  occ. eigenvalues --  -10.11645 -10.10649 -10.09670 -10.08748 -10.08098
  Beta  occ. eigenvalues --  -10.06821 -10.06655 -10.06601 -10.05447  -1.00234
  Beta  occ. eigenvalues --   -0.91170  -0.82207  -0.78701  -0.70615  -0.68369
  Beta  occ. eigenvalues --   -0.64740  -0.62401  -0.57189  -0.53868  -0.50918
  Beta  occ. eigenvalues --   -0.49355  -0.46436  -0.42308  -0.40504  -0.39366
  Beta  occ. eigenvalues --   -0.36969  -0.35874  -0.34962  -0.34397  -0.33752
  Beta  occ. eigenvalues --   -0.32634  -0.31909  -0.30156  -0.29761  -0.28555
  Beta  occ. eigenvalues --   -0.27761  -0.26786  -0.24326  -0.23847  -0.21976
  Beta  occ. eigenvalues --   -0.18214  -0.16495  -0.15609  -0.15539  -0.14629
  Beta  occ. eigenvalues --   -0.11125
  Beta virt. eigenvalues --    0.07326   0.07984   0.08101   0.08637   0.09676
  Beta virt. eigenvalues --    0.09940   0.10145   0.10372   0.11662   0.12081
  Beta virt. eigenvalues --    0.12652   0.12972   0.13657   0.14760   0.15059

 Mulliken charges and spin densities:
               1          2
     1  C    0.700797  -1.408346
     2  C    0.012150   0.021934
     3  C   -0.206468  -0.144726
     4  C    0.523303  -0.102473
     5  C    0.878684  -0.956961
     6  O   -0.095671   0.015905
     7  C   -0.263355   0.083086
     8  C   -0.016307   0.677991
     9  C   -0.699227  -0.084710
    10  N   -0.030984  -0.026425
    11  C   -0.421550   0.062741
    12  C    0.012848  -0.171396
    13  O   -0.192780   0.027508
    14  N   -0.525489   0.039390
    15  H    0.071860   0.086663
    16  H   -0.481102   0.634258
    17  H   -0.094089   0.229040
    18  H   -0.574248   0.812881
    19  H   -0.249130   0.482693
    20  H   -0.183155   0.355218
    21  H    0.124251   0.023758
    22  H    0.133287   0.003673
    23  H    0.138707   0.016750
    24  H    0.278818  -0.018741
    25  H    0.264346  -0.040620
    26  H   -0.105495   0.380910
 Sum of Mulliken charges =  -1.00000   1.00000

 Dipole moment (field-independent basis, Debye):
    X=              5.6855    Y=              1.5797    Z=              0.6236  Tot=              5.9337
 Quadrupole moment (field-independent basis, Debye-Ang):
   XX=           -144.4828   YY=           -114.2744   ZZ=           -112.1455
   XY=              3.6208   XZ=              6.6493   YZ=              2.7485

 Summary of Natural Population Analysis:

                                       Natural Population
                Natural  -----------------------------------------------
    Atom  No    Charge         Core      Valence    Rydberg      Total
 -----------------------------------------------------------------------
      C    1   -0.29493      0.99964     2.28854    0.00675     3.29493
      C    2   -0.02281      0.99960     2.00848    0.01472     3.02281
      C    3    0.05866      0.99950     1.92511    0.01672     2.94134
      C    4   -0.06932      0.99947     2.05786    0.01200     3.06932
      C    5    0.11119      0.99941     1.87572    0.01367     2.88881
      O    6   -0.24011      0.99986     3.23275    0.00751     4.24011
      C    7    0.16288      0.99936     1.82490    0.01286     2.83712
      C    8   -0.06923      0.99944     2.06072    0.00906     3.06923
      C    9    0.06645      0.99956     1.91897    0.01502     2.93355
      N   10   -0.25197      0.99972     2.74197    0.01028     3.75197
      C   11    0.03207      0.99961     1.95448    0.01383     2.96793
      C   12   -0.13151      0.99951     2.12306    0.00893     3.13151
      O   13   -0.37589      0.99990     3.36982    0.00617     4.37589
      N   14   -0.43848      0.99976     2.92702    0.01170     3.93848
      H   15    0.09966      0.00000     0.39898    0.00135     0.40034
      H   16    0.10235      0.00000     0.39598    0.00167     0.39765
      H   17    0.10161      0.00000     0.39706    0.00133     0.39839
      H   18    0.09771      0.00000     0.39867    0.00361     0.40229
      H   19    0.09225      0.00000     0.40543    0.00232     0.40775
      H   20    0.09249      0.00000     0.40628    0.00123     0.40751
      H   21    0.08989      0.00000     0.40746    0.00265     0.41011
      H   22    0.08237      0.00000     0.41651    0.00112     0.41763
      H   23    0.10300      0.00000     0.39589    0.00112     0.39700
      H   24    0.23888      0.00000     0.25765    0.00348     0.26112
      H   25    0.17870      0.00000     0.31922    0.00208     0.32130
      H   26    0.18406      0.00000     0.31370    0.00224     0.31594
 =======================================================================
   * Total *    0.00000     13.99433    36.82225    0.18342    51.00000

 Normal termination of Gaussian 16 at Thu Dec 10 10:01:22 2020.
