 Gaussian 16, Revision A.03,

 -----------------------------------------------------------
 # opt freq B3LYP/6-31G(d) empiricaldispersion=gd3bj scf=xqc
 -----------------------------------------------------------

 ------------------------------
 CID_67926707_JID_2129_neutraal
 ------------------------------
 Symbolic Z-matrix:
 Charge =  0 Multiplicity = 1

 SCF Done:  E(RB3LYP) =  -534.840660428     A.U. after   15 cycles
 SCF Done:  E(RB3LYP) =  -534.864614518     A.U. after   13 cycles
 SCF Done:  E(RB3LYP) =  -534.865516559     A.U. after   12 cycles
 SCF Done:  E(RB3LYP) =  -534.865996370     A.U. after   12 cycles
 SCF Done:  E(RB3LYP) =  -534.867170647     A.U. after   13 cycles
 SCF Done:  E(RB3LYP) =  -534.868554213     A.U. after   13 cycles
 SCF Done:  E(RB3LYP) =  -534.870333942     A.U. after   12 cycles
 SCF Done:  E(RB3LYP) =  -534.871442805     A.U. after   12 cycles
 SCF Done:  E(RB3LYP) =  -534.871747601     A.U. after   13 cycles
 SCF Done:  E(RB3LYP) =  -534.871980344     A.U. after   12 cycles
 SCF Done:  E(RB3LYP) =  -534.875209633     A.U. after   11 cycles
 SCF Done:  E(RB3LYP) =  -534.875224903     A.U. after   10 cycles
 SCF Done:  E(RB3LYP) =  -534.875230381     A.U. after    9 cycles
 SCF Done:  E(RB3LYP) =  -534.875231518     A.U. after    8 cycles
 SCF Done:  E(RB3LYP) =  -534.875231597     A.U. after    7 cycles
 Optimization completed.
    -- Stationary point found.
 Normal termination of Gaussian 16 at Wed Dec  9 16:55:53 2020.

 --------------------------------------------------------------------
 #N Geom=AllCheck Guess=TCheck SCRF=Check GenChk RB3LYP/6-31G(d) Freq
 --------------------------------------------------------------------

 Structure from the checkpoint file:  "JID_2129.chk"
 ------------------------------
 CID_67926707_JID_2129_neutraal
 ------------------------------
 Charge =  0 Multiplicity = 1

 SCF Done:  E(RB3LYP) =  -534.875231597     A.U. after    1 cycles

  Exact polarizability: 137.713   5.373  88.613  -5.463   9.127  83.383
 Approx polarizability: 188.864  17.870 136.928 -14.940  18.522 131.627

                      1                      2                      3
                      A                      A                      A
 Frequencies --     52.7996                62.8757               120.3267
 Red. masses --      3.2086                 3.5607                 4.6339
 Frc consts  --      0.0053                 0.0083                 0.0395
 IR Inten    --      3.8751                 2.9723                 4.8432

                      4                      5                      6
                      A                      A                      A
 Frequencies --    136.3400               162.0940               180.1907
 Red. masses --      3.9166                 2.0217                 1.7928
 Frc consts  --      0.0429                 0.0313                 0.0343
 IR Inten    --      4.7685                 4.1270                 2.5996

                      7                      8                      9
                      A                      A                      A
 Frequencies --    184.7703               219.6964               254.8700
 Red. masses --      2.6738                 2.7012                 1.1762
 Frc consts  --      0.0538                 0.0768                 0.0450
 IR Inten    --      1.4849                 2.1574                49.9170

                     10                     11                     12
                      A                      A                      A
 Frequencies --    291.0935               330.4792               373.2044
 Red. masses --      2.2969                 3.1716                 3.1418
 Frc consts  --      0.1147                 0.2041                 0.2578
 IR Inten    --      3.9523                 4.8525                 2.5725

                     13                     14                     15
                      A                      A                      A
 Frequencies --    398.0475               419.3615               487.1757
 Red. masses --      5.6894                 3.7938                 4.3125
 Frc consts  --      0.5311                 0.3931                 0.6030
 IR Inten    --      4.7455                 8.2624                 4.9374

                     16                     17                     18
                      A                      A                      A
 Frequencies --    556.7131               583.0811               617.9215
 Red. masses --      5.3463                 4.7240                 5.6439
 Frc consts  --      0.9763                 0.9463                 1.2697
 IR Inten    --      1.9031                 2.2443                 5.2869

                     19                     20                     21
                      A                      A                      A
 Frequencies --    645.0863               673.4408               738.9897
 Red. masses --      3.5631                 3.1474                 3.8024
 Frc consts  --      0.8736                 0.8410                 1.2234
 IR Inten    --     12.9590                 5.4271                 8.9805

                     22                     23                     24
                      A                      A                      A
 Frequencies --    773.3143               832.9447               858.2516
 Red. masses --      1.5793                 1.8191                 1.3774
 Frc consts  --      0.5565                 0.7436                 0.5978
 IR Inten    --     10.1994                25.1219               110.9570

                     25                     26                     27
                      A                      A                      A
 Frequencies --    872.6000               929.9818               975.6346
 Red. masses --      1.7431                 2.5682                 1.2670
 Frc consts  --      0.7820                 1.3087                 0.7105
 IR Inten    --      3.5205                14.3909                 0.6052

                     28                     29                     30
                      A                      A                      A
 Frequencies --    984.1471              1028.6142              1051.2909
 Red. masses --      2.5851                 2.7847                 2.7186
 Frc consts  --      1.4752                 1.7359                 1.7702
 IR Inten    --     23.4103                21.1695                26.7277

                     31                     32                     33
                      A                      A                      A
 Frequencies --   1064.0151              1086.0572              1108.4520
 Red. masses --      2.5259                 2.3823                 2.7205
 Frc consts  --      1.6849                 1.6556                 1.9694
 IR Inten    --      2.0159                 6.9162                20.5557

                     34                     35                     36
                      A                      A                      A
 Frequencies --   1163.9803              1184.5294              1197.8524
 Red. masses --      1.9482                 1.3485                 1.8592
 Frc consts  --      1.5552                 1.1148                 1.5717
 IR Inten    --      5.0933                26.2826                73.3201

                     37                     38                     39
                      A                      A                      A
 Frequencies --   1224.5540              1246.0664              1260.4005
 Red. masses --      1.4561                 1.6115                 1.9413
 Frc consts  --      1.2865                 1.4742                 1.8170
 IR Inten    --      3.4665                88.6196                82.1914

                     40                     41                     42
                      A                      A                      A
 Frequencies --   1287.4700              1322.1554              1357.0347
 Red. masses --      1.3318                 1.4848                 1.3151
 Frc consts  --      1.3007                 1.5292                 1.4269
 IR Inten    --     10.7826                 2.3319                 7.6557

                     43                     44                     45
                      A                      A                      A
 Frequencies --   1380.4208              1425.5898              1446.2356
 Red. masses --      1.5847                 1.3753                 1.7182
 Frc consts  --      1.7791                 1.6468                 2.1174
 IR Inten    --      4.4586                 7.2595                21.2860

                     46                     47                     48
                      A                      A                      A
 Frequencies --   1499.1282              1505.4772              1517.2234
 Red. masses --      1.1299                 1.1314                 1.0514
 Frc consts  --      1.4961                 1.5108                 1.4260
 IR Inten    --      4.8507                 3.7248                 5.3891

                     49                     50                     51
                      A                      A                      A
 Frequencies --   1526.3655              1535.0873              1673.3611
 Red. masses --      1.0841                 1.0522                 7.6505
 Frc consts  --      1.4881                 1.4609                12.6217
 IR Inten    --      5.2037                11.4486                 6.3982

                     52                     53                     54
                      A                      A                      A
 Frequencies --   1694.8340              1739.9394              2357.9142
 Red. masses --      1.0926                 6.6608                12.6903
 Frc consts  --      1.8492                11.8807                41.5697
 IR Inten    --     30.6807                38.9297                15.3630

                     55                     56                     57
                      A                      A                      A
 Frequencies --   2992.4141              3019.9176              3021.9131
 Red. masses --      1.0720                 1.0689                 1.0370
 Frc consts  --      5.6557                 5.7436                 5.5793
 IR Inten    --     58.7048                15.9609                60.5084

                     58                     59                     60
                      A                      A                      A
 Frequencies --   3077.2902              3115.0636              3117.9192
 Red. masses --      1.1059                 1.0915                 1.0905
 Frc consts  --      6.1702                 6.2401                 6.2460
 IR Inten    --     46.7571                11.6674                 1.2592

                     61                     62                     63
                      A                      A                      A
 Frequencies --   3152.8925              3191.7118              3209.3079
 Red. masses --      1.1001                 1.0853                 1.0918
 Frc consts  --      6.4432                 6.5140                 6.6257
 IR Inten    --     33.9545                 3.0892                 8.4932

                     64                     65                     66
                      A                      A                      A
 Frequencies --   3211.6239              3485.7334              3573.8939
 Red. masses --      1.0972                 1.0502                 1.0930
 Frc consts  --      6.6681                 7.5181                 8.2250
 IR Inten    --     10.3599                 0.3247                 1.3682

 - Thermochemistry -
 -------------------
 Temperature   298.150 Kelvin.  Pressure   1.00000 Atm.
 Atom     1 has atomic number  6 and mass  12.00000

 Molecular mass:   164.09496 amu.
 Principal axes and moments of inertia in atomic units:
                           1         2         3
     Eigenvalues --   904.542873315.055123590.92526
           X            0.99950  -0.03002   0.01038
           Y            0.02965   0.99897   0.03449
           Z           -0.01140  -0.03416   0.99935
 This molecule is an asymmetric top.
 Rotational symmetry number  1.
 Warning -- assumption of classical behavior for rotation
           may cause significant error
 Rotational temperatures (Kelvin)      0.09575     0.02613     0.02412
 Rotational constants (GHZ):           1.99520     0.54441     0.50258
 Zero-point vibrational energy     524976.2 (Joules/Mol)
                                  125.47232 (Kcal/Mol)
 Warning -- explicit consideration of  18 degrees of freedom as
           vibrations may cause significant error
 Vibrational temperatures:     75.97    90.46   173.12   196.16   233.22
          (Kelvin)            259.25   265.84   316.09   366.70   418.82
                              475.49   536.96   572.70   603.37   700.94
                              800.99   838.92   889.05   928.14   968.93
                             1063.24  1112.63  1198.42  1234.83  1255.48
                             1338.04  1403.72  1415.97  1479.95  1512.57
                             1530.88  1562.59  1594.82  1674.71  1704.27
                             1723.44  1761.86  1792.81  1813.44  1852.38
                             1902.29  1952.47  1986.12  2051.11  2080.81
                             2156.91  2166.05  2182.95  2196.10  2208.65
                             2407.59  2438.49  2503.38  3392.51  4305.42
                             4344.99  4347.86  4427.53  4481.88  4485.99
                             4536.31  4592.16  4617.48  4620.81  5015.19
                             5142.04

 Zero-point correction=                           0.199953 (Hartree/Particle)
 Thermal correction to Energy=                    0.212174
 Thermal correction to Enthalpy=                  0.213118
 Thermal correction to Gibbs Free Energy=         0.161628
 Sum of electronic and zero-point Energies=           -534.675279
 Sum of electronic and thermal Energies=              -534.663057
 Sum of electronic and thermal Enthalpies=            -534.662113
 Sum of electronic and thermal Free Energies=         -534.713604

                     E (Thermal)             CV                S
                      KCal/Mol        Cal/Mol-Kelvin    Cal/Mol-Kelvin
 Total                  133.141             45.284            108.371
 Electronic               0.000              0.000              0.000
 Translational            0.889              2.981             41.194
 Rotational               0.889              2.981             30.755
 Vibrational            131.364             39.323             36.422
 Vibration     1          0.596              1.976              4.710
 Vibration     2          0.597              1.972              4.365
 Vibration     3          0.609              1.932              3.095
 Vibration     4          0.614              1.917              2.855
 Vibration     5          0.622              1.889              2.525
 Vibration     6          0.629              1.867              2.326
 Vibration     7          0.631              1.861              2.280
 Vibration     8          0.647              1.811              1.962
 Vibration     9          0.665              1.755              1.697
 Vibration    10          0.687              1.690              1.468
 Vibration    11          0.713              1.615              1.258
 Vibration    12          0.745              1.527              1.067
 Vibration    13          0.764              1.474              0.970
 Vibration    14          0.782              1.428              0.894
 Vibration    15          0.843              1.278              0.691
 Vibration    16          0.912              1.125              0.530
 Vibration    17          0.940              1.068              0.480
 Vibration    18          0.978              0.994              0.420

                           ! Non-Optimized Parameters !
 Normal termination of Gaussian 16 at Wed Dec  9 17:01:28 2020.

 ----------------------------------------------------------------------
 # B3LYP/6-311++G(d,p) empiricaldispersion=gd3bj scf=xqc pop=npa geom=c
 heck
 ----------------------------------------------------------------------

 --------------------------------------
 CID_67926707_JID_2129_Energie_neutraal
 --------------------------------------
 Structure from the checkpoint file:  "JID_2129.chk"
 Charge =  0 Multiplicity = 1

 SCF Done:  E(RB3LYP) =  -535.033228902     A.U. after   15 cycles
 Normal termination of Gaussian 16 at Wed Dec  9 17:03:30 2020.

 ----------------------------------------------------------------------
 # B3LYP/6-311++G(d,p) empiricaldispersion=gd3bj scf=xqc pop=npa geom=c
 heck
 ----------------------------------------------------------------------

 ------------------------------------
 CID_67926707_JID_2129_Energie_kation
 ------------------------------------
 Structure from the checkpoint file:  "JID_2129.chk"
 Charge =  1 Multiplicity = 2

 SCF Done:  E(UB3LYP) =  -534.727304369     A.U. after   23 cycles
 Normal termination of Gaussian 16 at Wed Dec  9 17:07:52 2020.
 Gaussian 16:  ES64L-G16RevA.03 25-Dec-2016

 ----------------------------------------------------------------------
 # B3LYP/6-311++G(d,p) empiricaldispersion=gd3bj scf=xqc pop=npa geom=c
 heck
 ----------------------------------------------------------------------

 -----------------------------------
 CID_67926707_JID_2129_Energie_anion
 -----------------------------------
 Structure from the checkpoint file:  "JID_2129.chk"
 Charge = -1 Multiplicity = 2

                         Standard orientation:
 ---------------------------------------------------------------------
 Center     Atomic      Atomic             Coordinates (Angstroms)
 Number     Number       Type             X           Y           Z
 ---------------------------------------------------------------------
      1          6           0       -3.986448    0.322907   -0.162377
      2          8           0       -2.980780   -0.603920    0.235201
      3          6           0       -1.691732   -0.185854   -0.023391
      4          6           0       -0.949910   -0.769272   -0.975741
      5          6           0        0.461383   -0.312820   -1.237433
      6          6           0        1.136654    0.260286    0.036782
      7          6           0        0.178153    1.142752    0.824239
      8          6           0       -1.136703    0.884939    0.812482
      9          6           0        1.609108   -0.897214    0.975655
     10          7           0        2.581380   -1.750053    0.301718
     11          6           0        2.327494    1.029848   -0.353760
     12          7           0        3.291746    1.609672   -0.640746
     13          1           0       -4.944363   -0.116902    0.122869
     14          1           0       -3.962987    0.484018   -1.248493
     15          1           0       -3.874697    1.293613    0.340152
     16          1           0       -1.383223   -1.545832   -1.598364
     17          1           0        0.453275    0.457453   -2.023150
     18          1           0        1.086572   -1.134391   -1.597389
     19          1           0        0.601645    1.911887    1.463035
     20          1           0       -1.815624    1.444751    1.449459
     21          1           0        1.964316   -0.446630    1.916423
     22          1           0        0.720878   -1.491729    1.207961
     23          1           0        3.485818   -1.284113    0.255434
     24          1           0        2.714752   -2.611527    0.824913
 ---------------------------------------------------------------------

 SCF Done:  E(UB3LYP) =  -535.027459625     A.U. after   33 cycles
 SCF Done:  E(UB3LYP) =  -535.027459625     a.u. after    1 cycles

 The electronic state is 2-A.
 Alpha  occ. eigenvalues --  -19.00893 -14.19372 -14.18732 -10.09761 -10.09742
 Alpha  occ. eigenvalues --  -10.09201 -10.08619 -10.07556 -10.05126 -10.02809
 Alpha  occ. eigenvalues --  -10.02720 -10.01505  -0.92308  -0.79829  -0.77789
 Alpha  occ. eigenvalues --   -0.71709  -0.64292  -0.61621  -0.57971  -0.53718
 Alpha  occ. eigenvalues --   -0.49707  -0.47424  -0.40519  -0.39344  -0.37993
 Alpha  occ. eigenvalues --   -0.36291  -0.34728  -0.33501  -0.32912  -0.30078
 Alpha  occ. eigenvalues --   -0.29384  -0.28566  -0.27281  -0.26660  -0.25736
 Alpha  occ. eigenvalues --   -0.24216  -0.23551  -0.22367  -0.20830  -0.19502
 Alpha  occ. eigenvalues --   -0.17658  -0.14605  -0.13686  -0.08865   0.05223
 Alpha virt. eigenvalues --    0.06913   0.07668   0.09661   0.10402   0.10712
 Alpha virt. eigenvalues --    0.10849   0.11620   0.12829   0.12981   0.13633
 Alpha virt. eigenvalues --    0.14106   0.14502   0.14827   0.14971   0.16358

  Beta  occ. eigenvalues --  -19.00888 -14.19372 -14.18691 -10.09758 -10.09707
  Beta  occ. eigenvalues --  -10.09181 -10.08574 -10.07517 -10.05138 -10.02648
  Beta  occ. eigenvalues --  -10.02392 -10.01189  -0.92256  -0.79783  -0.77717
  Beta  occ. eigenvalues --   -0.71408  -0.64020  -0.61110  -0.57843  -0.53578
  Beta  occ. eigenvalues --   -0.49609  -0.46758  -0.40322  -0.39205  -0.37869
  Beta  occ. eigenvalues --   -0.36178  -0.34511  -0.33396  -0.32766  -0.29892
  Beta  occ. eigenvalues --   -0.29227  -0.28424  -0.27219  -0.26501  -0.25501
  Beta  occ. eigenvalues --   -0.24144  -0.23465  -0.22200  -0.20720  -0.19366
  Beta  occ. eigenvalues --   -0.16694  -0.14364  -0.13435  -0.07259
  Beta virt. eigenvalues --    0.07629   0.08015   0.09744   0.10287   0.10605
  Beta virt. eigenvalues --    0.10876   0.11254   0.11688   0.12803   0.13071
  Beta virt. eigenvalues --    0.13681   0.14159   0.14612   0.14797   0.14974

 Mulliken charges and spin densities:
               1          2
     1  C    0.497873  -0.776178
     2  O   -0.175219   0.023959
     3  C   -1.257461   0.240728
     4  C    0.347514   0.382195
     5  C   -0.968542  -0.000195
     6  C    2.115664   0.051925
     7  C   -0.915129   0.259923
     8  C    0.689712  -0.118895
     9  C   -0.752738  -0.175081
    10  N   -0.309615  -0.045805
    11  C   -0.667260  -0.096885
    12  N   -0.321411   0.010214
    13  H   -0.293323   0.430260
    14  H   -0.027670   0.146920
    15  H   -0.167753   0.279037
    16  H    0.163894  -0.020692
    17  H    0.145141   0.011559
    18  H    0.198571   0.001727
    19  H    0.142995  -0.017053
    20  H    0.152326  -0.026209
    21  H    0.151514   0.005713
    22  H    0.210284   0.002710
    23  H    0.138630   0.095526
    24  H   -0.097996   0.334596
 Sum of Mulliken charges =  -1.00000   1.00000

 Dipole moment (field-independent basis, Debye):
    X=              0.7140    Y=             -0.2168    Z=              0.8591  Tot=              1.1379
 Quadrupole moment (field-independent basis, Debye-Ang):
   XX=           -142.0155   YY=            -99.0304   ZZ=            -84.6836
   XY=             -2.1059   XZ=              4.2968   YZ=              3.2732

 Summary of Natural Population Analysis:

                                       Natural Population
                Natural  -----------------------------------------------
    Atom  No    Charge         Core      Valence    Rydberg      Total
 -----------------------------------------------------------------------
      C    1   -0.09365      0.99960     2.08448    0.00957     3.09365
      O    2   -0.29572      0.99986     3.28430    0.01155     4.29572
      C    3    0.13597      0.99931     1.84988    0.01484     2.86403
      C    4   -0.06152      0.99948     2.05206    0.00998     3.06152
      C    5   -0.19387      0.99960     2.18518    0.00908     3.19387
      C    6   -0.10449      0.99947     2.09297    0.01205     3.10449
      C    7   -0.03013      0.99952     2.01941    0.01119     3.03013
      C    8   -0.10391      0.99948     2.09403    0.01040     3.10391
      C    9   -0.07565      0.99960     2.06266    0.01339     3.07565
      N   10   -0.42722      0.99977     2.91630    0.01116     3.92722
      C   11    0.18172      0.99963     1.79519    0.02346     2.81828
      N   12   -0.20819      0.99979     2.69709    0.01131     3.70819
      H   13    0.08667      0.00000     0.41128    0.00204     0.41333
      H   14    0.07851      0.00000     0.42005    0.00144     0.42149
      H   15    0.07868      0.00000     0.41989    0.00143     0.42132
      H   16    0.09265      0.00000     0.40640    0.00094     0.40735
      H   17    0.10313      0.00000     0.39587    0.00100     0.39687
      H   18    0.11377      0.00000     0.38510    0.00113     0.38623
      H   19    0.09122      0.00000     0.40757    0.00121     0.40878
      H   20    0.09598      0.00000     0.40298    0.00104     0.40402
      H   21    0.08096      0.00000     0.41771    0.00133     0.41904
      H   22    0.10266      0.00000     0.39629    0.00105     0.39734
      H   23    0.17489      0.00000     0.32293    0.00218     0.32511
      H   24    0.17750      0.00000     0.32000    0.00250     0.32250
 =======================================================================
   * Total *    0.00000     11.99510    31.83963    0.16527    44.00000

 Normal termination of Gaussian 16 at Wed Dec  9 17:14:21 2020.
