 Gaussian 16, Revision A.03,

 -----------------------------------------------------------
 # opt freq B3LYP/6-31G(d) empiricaldispersion=gd3bj scf=xqc
 -----------------------------------------------------------

 -------------------------------
 CID_148632736_JID_8618_neutraal
 -------------------------------
 Symbolic Z-matrix:
 Charge =  0 Multiplicity = 1

 SCF Done:  E(RB3LYP) =  -842.591443225     A.U. after   15 cycles
 SCF Done:  E(RB3LYP) =  -842.594389374     A.U. after   13 cycles
 SCF Done:  E(RB3LYP) =  -842.597918587     A.U. after   13 cycles
 SCF Done:  E(RB3LYP) =  -842.597976631     A.U. after   13 cycles
 SCF Done:  E(RB3LYP) =  -842.601414594     A.U. after   13 cycles
 SCF Done:  E(RB3LYP) =  -842.600563891     A.U. after   13 cycles
 SCF Done:  E(RB3LYP) =  -842.601660179     A.U. after   12 cycles
 SCF Done:  E(RB3LYP) =  -842.602186756     A.U. after   12 cycles
 SCF Done:  E(RB3LYP) =  -842.602202114     A.U. after   11 cycles
 SCF Done:  E(RB3LYP) =  -842.602224257     A.U. after   10 cycles
 SCF Done:  E(RB3LYP) =  -842.602229923     A.U. after    9 cycles
 SCF Done:  E(RB3LYP) =  -842.602232519     A.U. after    9 cycles
 SCF Done:  E(RB3LYP) =  -842.602233387     A.U. after    8 cycles
 SCF Done:  E(RB3LYP) =  -842.602234015     A.U. after    8 cycles
 SCF Done:  E(RB3LYP) =  -842.602234216     A.U. after    7 cycles
 Optimization completed.
    -- Stationary point found.
 Normal termination of Gaussian 16 at Fri Dec 11 21:25:34 2020.

 --------------------------------------------------------------------
 #N Geom=AllCheck Guess=TCheck SCRF=Check GenChk RB3LYP/6-31G(d) Freq
 --------------------------------------------------------------------

 Structure from the checkpoint file:  "JID_8618.chk"
 -------------------------------
 CID_148632736_JID_8618_neutraal
 -------------------------------
 Charge =  0 Multiplicity = 1

 SCF Done:  E(RB3LYP) =  -842.602234216     A.U. after    1 cycles

  Exact polarizability: 145.017   9.532 161.937   0.626   7.883 148.034
 Approx polarizability: 200.899  17.611 260.724   2.612  19.046 246.901

                      1                      2                      3
                      A                      A                      A
 Frequencies --     34.1034                49.2401                61.5780
 Red. masses --      4.6804                 3.1272                 3.8460
 Frc consts  --      0.0032                 0.0045                 0.0086
 IR Inten    --      0.0868                 0.1315                 0.0870

                      4                      5                      6
                      A                      A                      A
 Frequencies --     69.2749                84.8572               139.4863
 Red. masses --      6.8051                 5.9813                 5.4780
 Frc consts  --      0.0192                 0.0254                 0.0628
 IR Inten    --      0.7342                 0.9340                 2.7009

                      7                      8                      9
                      A                      A                      A
 Frequencies --    155.4764               180.3941               226.7985
 Red. masses --      3.2744                 5.0151                 2.2758
 Frc consts  --      0.0466                 0.0962                 0.0690
 IR Inten    --      0.7769                 1.2397                 0.2232

                     10                     11                     12
                      A                      A                      A
 Frequencies --    242.1299               249.0549               284.2618
 Red. masses --      3.3037                 3.3744                 4.1046
 Frc consts  --      0.1141                 0.1233                 0.1954
 IR Inten    --      1.7927                 2.7410                 3.2826

                     13                     14                     15
                      A                      A                      A
 Frequencies --    330.1707               342.3833               379.1284
 Red. masses --      4.3214                 2.3209                 3.3766
 Frc consts  --      0.2776                 0.1603                 0.2860
 IR Inten    --      6.7258                 3.5897                 7.9960

                     16                     17                     18
                      A                      A                      A
 Frequencies --    382.6372               412.1396               416.6328
 Red. masses --      2.2145                 4.0996                 6.0644
 Frc consts  --      0.1910                 0.4103                 0.6202
 IR Inten    --     65.4906                 9.8353                29.8180

                     19                     20                     21
                      A                      A                      A
 Frequencies --    426.0469               452.9995               458.2817
 Red. masses --      4.3489                 2.5348                 2.3638
 Frc consts  --      0.4651                 0.3065                 0.2925
 IR Inten    --      3.7802                21.1324                62.4638

                     22                     23                     24
                      A                      A                      A
 Frequencies --    482.1522               492.2331               516.0964
 Red. masses --      1.4605                 1.8721                 1.5259
 Frc consts  --      0.2000                 0.2672                 0.2395
 IR Inten    --     51.8257                65.8448                29.7393

                     25                     26                     27
                      A                      A                      A
 Frequencies --    520.7978               525.4007               536.2251
 Red. masses --      1.2501                 3.1895                 3.4333
 Frc consts  --      0.1998                 0.5187                 0.5816
 IR Inten    --    219.9417                32.0335                 1.2733

                     28                     29                     30
                      A                      A                      A
 Frequencies --    578.8945               622.6272               633.6884
 Red. masses --      4.2596                 2.1812                 1.4601
 Frc consts  --      0.8410                 0.4982                 0.3454
 IR Inten    --      8.2463                18.2242                78.0951

                     31                     32                     33
                      A                      A                      A
 Frequencies --    709.0312               740.0598               767.3800
 Red. masses --      2.1654                 2.7095                 2.7896
 Frc consts  --      0.6414                 0.8743                 0.9678
 IR Inten    --     15.6971                39.1320                17.2013

                     34                     35                     36
                      A                      A                      A
 Frequencies --    786.7301               807.4220               815.2526
 Red. masses --      3.6172                 1.4548                 1.5483
 Frc consts  --      1.3191                 0.5588                 0.6063
 IR Inten    --     29.2837                 0.2969                24.8820

                     37                     38                     39
                      A                      A                      A
 Frequencies --    822.9607               838.1506               868.1026
 Red. masses --      3.0483                 3.8890                 1.8719
 Frc consts  --      1.2164                 1.6097                 0.8311
 IR Inten    --      2.1557                10.6213                 2.0237

                     40                     41                     42
                      A                      A                      A
 Frequencies --    881.4392               913.9948               916.9021
 Red. masses --      4.6997                 1.9216                 1.8451
 Frc consts  --      2.1513                 0.9458                 0.9140
 IR Inten    --     22.6984                 2.1409                 6.0386

                     43                     44                     45
                      A                      A                      A
 Frequencies --    944.4105               973.4204               979.6594
 Red. masses --      1.4941                 1.6846                 1.9797
 Frc consts  --      0.7852                 0.9405                 1.1195
 IR Inten    --      0.0541                 3.6947                 1.4624

                     46                     47                     48
                      A                      A                      A
 Frequencies --   1011.7633              1018.7116              1049.2236
 Red. masses --      2.9431                 2.4354                 2.0587
 Frc consts  --      1.7751                 1.4891                 1.3353
 IR Inten    --      2.6263                10.0216                 1.9676

                     49                     50                     51
                      A                      A                      A
 Frequencies --   1050.4357              1078.2255              1095.1509
 Red. masses --      2.5669                 1.3222                 4.0113
 Frc consts  --      1.6687                 0.9057                 2.8345
 IR Inten    --      4.5336                 1.0563                70.6718

                     52                     53                     54
                      A                      A                      A
 Frequencies --   1099.7469              1110.9008              1123.5001
 Red. masses --      1.1447                 2.8756                 2.7210
 Frc consts  --      0.8157                 2.0909                 2.0236
 IR Inten    --      2.0395                 2.8763                13.8370

                     55                     56                     57
                      A                      A                      A
 Frequencies --   1141.4177              1178.6154              1183.6731
 Red. masses --      1.3060                 4.1878                 2.5569
 Frc consts  --      1.0025                 3.4275                 2.1107
 IR Inten    --      9.6709                79.6155                 4.1676

                     58                     59                     60
                      A                      A                      A
 Frequencies --   1214.6159              1226.4970              1247.4003
 Red. masses --      1.1570                 1.4924                 1.6580
 Frc consts  --      1.0056                 1.3227                 1.5200
 IR Inten    --     10.1883                 3.5852                32.6167

                     61                     62                     63
                      A                      A                      A
 Frequencies --   1291.1666              1300.9075              1305.5989
 Red. masses --      1.3159                 1.2733                 1.2746
 Frc consts  --      1.2925                 1.2696                 1.2801
 IR Inten    --      0.3147                 3.0220                 5.8311

                     64                     65                     66
                      A                      A                      A
 Frequencies --   1307.6497              1327.9893              1340.1776
 Red. masses --      1.5302                 1.4185                 2.3167
 Frc consts  --      1.5417                 1.4739                 2.4516
 IR Inten    --     10.8505                17.3684                20.4297

                     67                     68                     69
                      A                      A                      A
 Frequencies --   1351.3218              1363.6723              1369.2120
 Red. masses --      1.2855                 1.4538                 1.3167
 Frc consts  --      1.3830                 1.5929                 1.4543
 IR Inten    --      0.3199                25.7435                16.7863

                     70                     71                     72
                      A                      A                      A
 Frequencies --   1385.4557              1386.0627              1392.2809
 Red. masses --      1.4180                 1.4339                 1.5976
 Frc consts  --      1.6036                 1.6231                 1.8246
 IR Inten    --      3.3078                11.9730                40.2711

                     73                     74                     75
                      A                      A                      A
 Frequencies --   1400.9512              1403.9468              1413.9852
 Red. masses --      1.4691                 1.4801                 1.8987
 Frc consts  --      1.6988                 1.7189                 2.2366
 IR Inten    --      1.7955                 4.5456                15.9226

                     76                     77                     78
                      A                      A                      A
 Frequencies --   1449.1171              1451.4453              1457.0827
 Red. masses --      1.3302                 1.7965                 1.2265
 Frc consts  --      1.6458                 2.2299                 1.5342
 IR Inten    --     26.7778                 9.0008                81.4596

                     79                     80                     81
                      A                      A                      A
 Frequencies --   1512.2032              1515.4992              1519.6758
 Red. masses --      1.0868                 1.0995                 1.0981
 Frc consts  --      1.4643                 1.4879                 1.4942
 IR Inten    --      1.9768                 7.1501                 7.7284

                     82                     83                     84
                      A                      A                      A
 Frequencies --   1523.4597              1527.8498              1540.6870
 Red. masses --      1.0872                 1.3225                 1.1642
 Frc consts  --      1.4867                 1.8189                 1.6282
 IR Inten    --     24.7827               119.0834                28.2978

                     85                     86                     87
                      A                      A                      A
 Frequencies --   1637.0964              1672.1957              1717.1758
 Red. masses --      1.7194                 2.5901                 5.6538
 Frc consts  --      2.7151                 4.2673                 9.8225
 IR Inten    --     19.0980               186.4788               147.2000

                     88                     89                     90
                      A                      A                      A
 Frequencies --   1733.7642              3020.9340              3028.4954
 Red. masses --      7.3127                 1.0688                 1.0680
 Frc consts  --     12.9511                 5.7470                 5.7714
 IR Inten    --    187.6853                16.0465                15.4251

                     91                     92                     93
                      A                      A                      A
 Frequencies --   3033.4187              3046.2390              3050.8922
 Red. masses --      1.0608                 1.0622                 1.0849
 Frc consts  --      5.7508                 5.8076                 5.9497
 IR Inten    --     32.2808                27.5780                18.4086

                     94                     95                     96
                      A                      A                      A
 Frequencies --   3060.8899              3077.9945              3078.6275
 Red. masses --      1.0623                 1.0966                 1.0937
 Frc consts  --      5.8638                 6.1212                 6.1074
 IR Inten    --     13.4667                59.4263                56.6014

                     97                     98                     99
                      A                      A                      A
 Frequencies --   3081.0575              3082.5762              3093.9064
 Red. masses --      1.0843                 1.1004                 1.1021
 Frc consts  --      6.0647                 6.1605                 6.2155
 IR Inten    --     10.5650                24.8177                45.2172

                    100                    101                    102
                      A                      A                      A
 Frequencies --   3107.2708              3165.8201              3172.6197
 Red. masses --      1.1041                 1.0832                 1.0860
 Frc consts  --      6.2806                 6.3962                 6.4403
 IR Inten    --     36.7796                 2.7625                15.4798

                    103                    104                    105
                      A                      A                      A
 Frequencies --   3186.2521              3206.4184              3454.7392
 Red. masses --      1.0899                 1.0954                 1.0639
 Frc consts  --      6.5193                 6.6353                 7.4810
 IR Inten    --     18.4081                14.2225                85.1846

                    106                    107                    108
                      A                      A                      A
 Frequencies --   3562.1101              3611.0027              3678.8717
 Red. masses --      1.0461                 1.0659                 1.1009
 Frc consts  --      7.8207                 8.1891                 8.7785
 IR Inten    --     51.5448               126.8524                31.0268

 - Thermochemistry -
 -------------------
 Temperature   298.150 Kelvin.  Pressure   1.00000 Atm.
 Atom     1 has atomic number  6 and mass  12.00000

 Molecular mass:   252.14739 amu.
 Principal axes and moments of inertia in atomic units:
                           1         2         3
     Eigenvalues --  3473.313394407.786005457.10820
           X            0.99985   0.01738  -0.00018
           Y           -0.01737   0.99970   0.01737
           Z            0.00048  -0.01737   0.99985
 This molecule is an asymmetric top.
 Rotational symmetry number  1.
 Warning -- assumption of classical behavior for rotation
           may cause significant error
 Rotational temperatures (Kelvin)      0.02494     0.01965     0.01587
 Rotational constants (GHZ):           0.51960     0.40944     0.33071
 Zero-point vibrational energy     862972.6 (Joules/Mol)
                                  206.25540 (Kcal/Mol)
 Warning -- explicit consideration of  28 degrees of freedom as
           vibrations may cause significant error
 Vibrational temperatures:     49.07    70.85    88.60    99.67   122.09
          (Kelvin)            200.69   223.70   259.55   326.31   348.37
                              358.33   408.99   475.04   492.61   545.48
                              550.53   592.98   599.44   612.99   651.77
                              659.37   693.71   708.21   742.55   749.31
                              755.93   771.51   832.90   895.82   911.74
                             1020.14  1064.78  1104.09  1131.93  1161.70
                             1172.97  1184.06  1205.91  1249.01  1268.19
                             1315.03  1319.22  1358.80  1400.53  1409.51
                             1455.70  1465.70  1509.60  1511.34  1551.33
                             1575.68  1582.29  1598.34  1616.47  1642.25
                             1695.76  1703.04  1747.56  1764.66  1794.73
                             1857.70  1871.72  1878.47  1881.42  1910.68
                             1928.22  1944.25  1962.02  1969.99  1993.36
                             1994.24  2003.18  2015.66  2019.97  2034.41
                             2084.96  2088.31  2096.42  2175.72  2180.47
                             2186.47  2191.92  2198.24  2216.71  2355.42
                             2405.92  2470.63  2494.50  4346.45  4357.33
                             4364.41  4382.86  4389.55  4403.94  4428.55
                             4429.46  4432.95  4435.14  4451.44  4470.67
                             4554.91  4564.69  4584.31  4613.32  4970.60
                             5125.08  5195.43  5293.08

 Zero-point correction=                           0.328689 (Hartree/Particle)
 Thermal correction to Energy=                    0.345551
 Thermal correction to Enthalpy=                  0.346495
 Thermal correction to Gibbs Free Energy=         0.284444
 Sum of electronic and zero-point Energies=           -842.273545
 Sum of electronic and thermal Energies=              -842.256683
 Sum of electronic and thermal Enthalpies=            -842.255739
 Sum of electronic and thermal Free Energies=         -842.317790

                     E (Thermal)             CV                S
                      KCal/Mol        Cal/Mol-Kelvin    Cal/Mol-Kelvin
 Total                  216.836             67.515            130.597
 Electronic               0.000              0.000              0.000
 Translational            0.889              2.981             42.475
 Rotational               0.889              2.981             32.791
 Vibrational            215.059             61.553             55.331
 Vibration     1          0.594              1.983              5.575
 Vibration     2          0.595              1.978              4.848
 Vibration     3          0.597              1.973              4.406
 Vibration     4          0.598              1.969              4.174
 Vibration     5          0.601              1.960              3.775
 Vibration     6          0.615              1.914              2.811
 Vibration     7          0.620              1.897              2.604
 Vibration     8          0.629              1.866              2.324
 Vibration     9          0.650              1.800              1.904
 Vibration    10          0.658              1.776              1.787
 Vibration    11          0.662              1.764              1.737
 Vibration    12          0.683              1.703              1.508
 Vibration    13          0.713              1.615              1.259
 Vibration    14          0.722              1.591              1.201
 Vibration    15          0.749              1.515              1.043
 Vibration    16          0.752              1.507              1.029
 Vibration    17          0.776              1.444              0.919
 Vibration    18          0.780              1.434              0.903
 Vibration    19          0.788              1.414              0.872
 Vibration    20          0.812              1.354              0.787
 Vibration    21          0.816              1.343              0.771
 Vibration    22          0.838              1.290              0.704
 Vibration    23          0.848              1.267              0.678
 Vibration    24          0.871              1.214              0.619
 Vibration    25          0.876              1.204              0.608
 Vibration    26          0.880              1.194              0.598
 Vibration    27          0.891              1.170              0.573
 Vibration    28          0.935              1.077              0.487

                           ! Non-Optimized Parameters !
 Normal termination of Gaussian 16 at Fri Dec 11 21:47:30 2020.

 ----------------------------------------------------------------------
 # B3LYP/6-311++G(d,p) empiricaldispersion=gd3bj scf=xqc pop=npa geom=c
 heck
 ----------------------------------------------------------------------

 ---------------------------------------
 CID_148632736_JID_8618_Energie_neutraal
 ---------------------------------------
 Structure from the checkpoint file:  "JID_8618.chk"
 Charge =  0 Multiplicity = 1

 SCF Done:  E(RB3LYP) =  -842.859646670     A.U. after   15 cycles
 Normal termination of Gaussian 16 at Fri Dec 11 21:57:01 2020.

 ----------------------------------------------------------------------
 # B3LYP/6-311++G(d,p) empiricaldispersion=gd3bj scf=xqc pop=npa geom=c
 heck
 ----------------------------------------------------------------------

 -------------------------------------
 CID_148632736_JID_8618_Energie_kation
 -------------------------------------
 Structure from the checkpoint file:  "JID_8618.chk"
 Charge =  1 Multiplicity = 2

 SCF Done:  E(UB3LYP) =  -842.589484643     A.U. after   21 cycles
 Normal termination of Gaussian 16 at Fri Dec 11 22:16:01 2020.
 Gaussian 16:  ES64L-G16RevA.03 25-Dec-2016

 ----------------------------------------------------------------------
 # B3LYP/6-311++G(d,p) empiricaldispersion=gd3bj scf=xqc pop=npa geom=c
 heck
 ----------------------------------------------------------------------

 ------------------------------------
 CID_148632736_JID_8618_Energie_anion
 ------------------------------------
 Structure from the checkpoint file:  "JID_8618.chk"
 Charge = -1 Multiplicity = 2

                         Standard orientation:
 ---------------------------------------------------------------------
 Center     Atomic      Atomic             Coordinates (Angstroms)
 Number     Number       Type             X           Y           Z
 ---------------------------------------------------------------------
      1          6           0       -3.633771   -0.742496    0.155279
      2          6           0       -2.715280   -1.146935   -1.005742
      3          6           0       -1.765440   -0.005306   -1.392549
      4          6           0       -0.963437    0.449583   -0.169472
      5          6           0       -1.873232    0.881036    0.987702
      6          6           0       -2.820417   -0.265650    1.366128
      7          7           0        0.003388    1.490599   -0.540407
      8          6           0        1.186520    1.723191    0.134448
      9          8           0        1.582208    2.882303    0.262722
     10          6           0        2.041073    0.534011    0.597636
     11          6           0        1.595026    0.023541    1.952099
     12          6           0        1.147799   -1.233678    2.124476
     13          6           0        1.002762   -2.186748    1.038368
     14          6           0        1.422278   -1.868265   -0.211868
     15          6           0        2.235743   -0.597215   -0.461274
     16          8           0        2.087069   -0.137199   -1.801573
     17          7           0        1.319295   -2.662453   -1.324815
     18          8           0       -0.652843    2.690443   -0.902903
     19          1           0       -4.279692   -1.582729    0.437666
     20          1           0       -4.296899    0.069054   -0.176783
     21          1           0       -2.118725   -2.021146   -0.705422
     22          1           0       -3.307821   -1.452333   -1.876269
     23          1           0       -2.333044    0.843423   -1.792239
     24          1           0       -1.072791   -0.331497   -2.178751
     25          1           0       -0.364600   -0.394066    0.170234
     26          1           0       -2.445782    1.764752    0.685516
     27          1           0       -1.251785    1.163765    1.844970
     28          1           0       -3.489283    0.054453    2.173883
     29          1           0       -2.228860   -1.104788    1.759338
     30          1           0        3.015411    1.017989    0.715098
     31          1           0        1.650081    0.724959    2.778708
     32          1           0        0.842027   -1.555205    3.117367
     33          1           0        0.523278   -3.142718    1.231727
     34          1           0        3.284718   -0.910282   -0.396246
     35          1           0        1.277436    0.408610   -1.832560
     36          1           0        0.641396   -3.411357   -1.316109
     37          1           0        1.430848   -2.171954   -2.203592
     38          1           0       -0.023908    3.359254   -0.537342
 ---------------------------------------------------------------------

 SCF Done:  E(UB3LYP) =  -842.855429438     A.U. after   33 cycles
 SCF Done:  E(UB3LYP) =  -842.855429437     a.u. after    1 cycles

 The electronic state is 2-A.
 Alpha  occ. eigenvalues --  -19.05539 -19.01852 -18.99830 -14.28602 -14.20681
 Alpha  occ. eigenvalues --  -10.16646 -10.12371 -10.10505 -10.08490 -10.08200
 Alpha  occ. eigenvalues --  -10.06925 -10.06888 -10.06860 -10.06655 -10.06372
 Alpha  occ. eigenvalues --  -10.04738 -10.03959 -10.03301  -1.00195  -0.92620
 Alpha  occ. eigenvalues --   -0.92132  -0.80586  -0.78138  -0.72608  -0.70835
 Alpha  occ. eigenvalues --   -0.64840  -0.64567  -0.62739  -0.60899  -0.54368
 Alpha  occ. eigenvalues --   -0.52606  -0.51618  -0.48660  -0.48194  -0.46235
 Alpha  occ. eigenvalues --   -0.43079  -0.42380  -0.40501  -0.40118  -0.38000
 Alpha  occ. eigenvalues --   -0.36482  -0.35980  -0.34984  -0.34346  -0.34074
 Alpha  occ. eigenvalues --   -0.33308  -0.32331  -0.31418  -0.30932  -0.30201
 Alpha  occ. eigenvalues --   -0.28667  -0.28111  -0.27584  -0.26250  -0.25555
 Alpha  occ. eigenvalues --   -0.25158  -0.25012  -0.24479  -0.23570  -0.22590
 Alpha  occ. eigenvalues --   -0.21892  -0.21050  -0.20803  -0.18364  -0.17568
 Alpha  occ. eigenvalues --   -0.16391  -0.13642  -0.07490   0.04345
 Alpha virt. eigenvalues --    0.06040   0.07192   0.07793   0.08532   0.09210
 Alpha virt. eigenvalues --    0.09452   0.09912   0.10098   0.10683   0.10966
 Alpha virt. eigenvalues --    0.11445   0.12344   0.12684   0.12956   0.13011

  Beta  occ. eigenvalues --  -19.05530 -19.01829 -18.99742 -14.28600 -14.20613
  Beta  occ. eigenvalues --  -10.16516 -10.12369 -10.10484 -10.08235 -10.08215
  Beta  occ. eigenvalues --  -10.06923 -10.06874 -10.06847 -10.06643 -10.06365
  Beta  occ. eigenvalues --  -10.04624 -10.03829 -10.03336  -1.00140  -0.92538
  Beta  occ. eigenvalues --   -0.92002  -0.80328  -0.78087  -0.72552  -0.70648
  Beta  occ. eigenvalues --   -0.64790  -0.64482  -0.62640  -0.60591  -0.54250
  Beta  occ. eigenvalues --   -0.52551  -0.51589  -0.48610  -0.47840  -0.46192
  Beta  occ. eigenvalues --   -0.42903  -0.42280  -0.40447  -0.39986  -0.37850
  Beta  occ. eigenvalues --   -0.36429  -0.35852  -0.34841  -0.34317  -0.34001
  Beta  occ. eigenvalues --   -0.33179  -0.32207  -0.31297  -0.30858  -0.30123
  Beta  occ. eigenvalues --   -0.28626  -0.27977  -0.27394  -0.26115  -0.25471
  Beta  occ. eigenvalues --   -0.25106  -0.24931  -0.24290  -0.23302  -0.22457
  Beta  occ. eigenvalues --   -0.21773  -0.20966  -0.20684  -0.18101  -0.17368
  Beta  occ. eigenvalues --   -0.15994  -0.13475  -0.06824
  Beta virt. eigenvalues --    0.06480   0.07566   0.07865   0.08004   0.08844
  Beta virt. eigenvalues --    0.09471   0.09747   0.10141   0.10299   0.10746
  Beta virt. eigenvalues --    0.11574   0.11633   0.12508   0.12816   0.12973

 Mulliken charges and spin densities:
               1          2
     1  C    0.408775  -0.980358
     2  C   -0.088432  -0.167012
     3  C   -0.455754   0.185665
     4  C   -0.030175   0.379149
     5  C   -0.702742   0.117964
     6  C   -0.458345   0.158806
     7  N   -0.064637  -0.097341
     8  C   -0.032708  -0.239654
     9  O   -0.313821   0.032242
    10  C   -0.113092   0.385085
    11  C   -0.222364   0.040739
    12  C   -0.125404  -0.189066
    13  C   -0.123325   0.169020
    14  C   -0.258336   0.001223
    15  C    0.339903  -0.874795
    16  O   -0.198017   0.013032
    17  N   -0.266789   0.047561
    18  O    0.026296   0.014530
    19  H   -0.396132   0.567016
    20  H    0.200931  -0.090003
    21  H    0.320728  -0.198486
    22  H   -0.447759   0.632100
    23  H    0.080579   0.118902
    24  H    0.059023   0.054733
    25  H    0.856325  -0.651179
    26  H    0.095641   0.081130
    27  H    0.180897   0.019723
    28  H   -0.010754   0.178285
    29  H    0.216354  -0.075914
    30  H    0.138435   0.130018
    31  H    0.142756  -0.002341
    32  H    0.094782   0.022120
    33  H   -0.292028   0.418114
    34  H   -0.078575   0.311716
    35  H    0.218181   0.065713
    36  H   -0.067970   0.313779
    37  H    0.150938   0.089102
    38  H    0.216615   0.018679
 Sum of Mulliken charges =  -1.00000   1.00000

 Dipole moment (field-independent basis, Debye):
    X=             -1.5348    Y=              2.0631    Z=              1.0390  Tot=              2.7733
 Quadrupole moment (field-independent basis, Debye-Ang):
   XX=           -166.5287   YY=           -156.1196   ZZ=           -136.9321
   XY=             -5.4806   XZ=             -1.5069   YZ=             -0.0300

 Summary of Natural Population Analysis:

                                       Natural Population
                Natural  -----------------------------------------------
    Atom  No    Charge         Core      Valence    Rydberg      Total
 -----------------------------------------------------------------------
      C    1   -0.18939      0.99963     2.18130    0.00846     3.18939
      C    2   -0.19091      0.99963     2.18260    0.00869     3.19091
      C    3   -0.19172      0.99960     2.18229    0.00983     3.19172
      C    4   -0.02779      0.99952     2.01522    0.01305     3.02779
      C    5   -0.19390      0.99960     2.18679    0.00751     3.19390
      C    6   -0.19123      0.99963     2.18356    0.00804     3.19123
      N    7   -0.11532      0.99957     2.60201    0.01375     3.61532
      C    8    0.36293      0.99961     1.61430    0.02316     2.63707
      O    9   -0.32599      0.99987     3.31972    0.00640     4.32599
      C   10   -0.16943      0.99953     2.15695    0.01295     3.16943
      C   11   -0.10497      0.99953     2.09553    0.00992     3.10497
      C   12   -0.08062      0.99953     2.07008    0.01101     3.08062
      C   13   -0.19733      0.99948     2.18642    0.01143     3.19733
      C   14    0.13848      0.99948     1.84900    0.01305     2.86152
      C   15    0.05784      0.99951     1.92693    0.01572     2.94216
      O   16   -0.38007      0.99990     3.37347    0.00670     4.38007
      N   17   -0.38645      0.99969     2.87769    0.00908     3.88645
      O   18   -0.29077      0.99990     3.28445    0.00641     4.29077
      H   19    0.09885      0.00000     0.40002    0.00113     0.40115
      H   20    0.09119      0.00000     0.40771    0.00110     0.40881
      H   21    0.09520      0.00000     0.40308    0.00173     0.40480
      H   22    0.09858      0.00000     0.40034    0.00108     0.40142
      H   23    0.10001      0.00000     0.39865    0.00135     0.39999
      H   24    0.10065      0.00000     0.39790    0.00144     0.39935
      H   25    0.12688      0.00000     0.36899    0.00413     0.37312
      H   26    0.09987      0.00000     0.39883    0.00129     0.40013
      H   27    0.10586      0.00000     0.39306    0.00108     0.39414
      H   28    0.09620      0.00000     0.40301    0.00079     0.40380
      H   29    0.09760      0.00000     0.40096    0.00143     0.40240
      H   30    0.12073      0.00000     0.37780    0.00147     0.37927
      H   31    0.09565      0.00000     0.40341    0.00094     0.40435
      H   32    0.09449      0.00000     0.40466    0.00085     0.40551
      H   33    0.09654      0.00000     0.40184    0.00162     0.40346
      H   34    0.09961      0.00000     0.39886    0.00153     0.40039
      H   35    0.23571      0.00000     0.26060    0.00369     0.26429
      H   36    0.18613      0.00000     0.31227    0.00160     0.31387
      H   37    0.19596      0.00000     0.30182    0.00222     0.30404
      H   38    0.24091      0.00000     0.25554    0.00355     0.25909
 =======================================================================
   * Total *    0.00000     17.99320    49.77763    0.22917    68.00000

 Normal termination of Gaussian 16 at Fri Dec 11 22:45:25 2020.
