 Gaussian 16, Revision A.03,

 -----------------------------------------------------------
 # opt freq B3LYP/6-31G(d) empiricaldispersion=gd3bj scf=xqc
 -----------------------------------------------------------

 ------------------------------
 CID_84652763_JID_2076_neutraal
 ------------------------------
 Symbolic Z-matrix:
 Charge =  0 Multiplicity = 1

 SCF Done:  E(RB3LYP) =  -552.170354998     A.U. after   16 cycles
 SCF Done:  E(RB3LYP) =  -552.176505714     A.U. after   13 cycles
 SCF Done:  E(RB3LYP) =  -552.175912474     A.U. after   13 cycles
 SCF Done:  E(RB3LYP) =  -552.178076391     A.U. after   13 cycles
 SCF Done:  E(RB3LYP) =  -552.178996624     A.U. after   12 cycles
 SCF Done:  E(RB3LYP) =  -552.179193137     A.U. after   12 cycles
 SCF Done:  E(RB3LYP) =  -552.179320091     A.U. after   12 cycles
 SCF Done:  E(RB3LYP) =  -552.179431644     A.U. after   11 cycles
 SCF Done:  E(RB3LYP) =  -552.179491574     A.U. after   11 cycles
 SCF Done:  E(RB3LYP) =  -552.179498405     A.U. after   10 cycles
 SCF Done:  E(RB3LYP) =  -552.179502101     A.U. after    9 cycles
 SCF Done:  E(RB3LYP) =  -552.179502938     A.U. after    9 cycles
 SCF Done:  E(RB3LYP) =  -552.179504071     A.U. after    9 cycles
 SCF Done:  E(RB3LYP) =  -552.179505612     A.U. after   10 cycles
 SCF Done:  E(RB3LYP) =  -552.179506147     A.U. after    9 cycles
 SCF Done:  E(RB3LYP) =  -552.179506176     A.U. after    7 cycles
 Optimization completed.
    -- Stationary point found.
 Normal termination of Gaussian 16 at Wed Dec  9 16:49:17 2020.

 --------------------------------------------------------------------
 #N Geom=AllCheck Guess=TCheck SCRF=Check GenChk RB3LYP/6-31G(d) Freq
 --------------------------------------------------------------------

 Structure from the checkpoint file:  "JID_2076.chk"
 ------------------------------
 CID_84652763_JID_2076_neutraal
 ------------------------------
 Charge =  0 Multiplicity = 1

 SCF Done:  E(RB3LYP) =  -552.179506176     A.U. after    1 cycles

  Exact polarizability: 141.461   1.223 110.104   5.147  -4.482  66.281
 Approx polarizability: 210.554   9.621 170.652  14.037  -9.639  99.975

                      1                      2                      3
                      A                      A                      A
 Frequencies --     23.0641                50.9267                98.0318
 Red. masses --      3.2585                 2.3715                 3.5515
 Frc consts  --      0.0010                 0.0036                 0.0201
 IR Inten    --      1.2401                 0.6242                 2.4075

                      4                      5                      6
                      A                      A                      A
 Frequencies --    117.4482               146.1318               183.9123
 Red. masses --      2.6449                 3.9379                 3.1397
 Frc consts  --      0.0215                 0.0495                 0.0626
 IR Inten    --      3.1613                 1.0285                 1.2624

                      7                      8                      9
                      A                      A                      A
 Frequencies --    228.1168               279.0085               301.6221
 Red. masses --      1.4386                 2.4921                 2.3291
 Frc consts  --      0.0441                 0.1143                 0.1248
 IR Inten    --      2.2517                14.4509                 4.7912

                     10                     11                     12
                      A                      A                      A
 Frequencies --    314.4342               339.3331               380.2961
 Red. masses --      3.0100                 1.3902                 4.1676
 Frc consts  --      0.1753                 0.0943                 0.3551
 IR Inten    --      9.3336                67.5477                10.1879

                     13                     14                     15
                      A                      A                      A
 Frequencies --    413.1176               491.2584               516.4855
 Red. masses --      2.8980                 2.9059                 4.2710
 Frc consts  --      0.2914                 0.4132                 0.6713
 IR Inten    --      2.6280                 5.7484                 8.6632

                     16                     17                     18
                      A                      A                      A
 Frequencies --    538.7449               572.1195               614.3159
 Red. masses --      3.8992                 3.0950                 5.1649
 Frc consts  --      0.6668                 0.5969                 1.1484
 IR Inten    --      9.7291                 0.2461                 3.0572

                     19                     20                     21
                      A                      A                      A
 Frequencies --    697.3466               733.4707               790.2671
 Red. masses --      4.3938                 3.0771                 3.4865
 Frc consts  --      1.2589                 0.9753                 1.2829
 IR Inten    --      7.5017                 2.1204                 5.0693

                     22                     23                     24
                      A                      A                      A
 Frequencies --    803.5591               860.2324               869.5562
 Red. masses --      1.4452                 1.6240                 2.3991
 Frc consts  --      0.5498                 0.7080                 1.0688
 IR Inten    --      0.2252                31.2178                59.3354

                     25                     26                     27
                      A                      A                      A
 Frequencies --    906.6300               942.1403               966.4061
 Red. masses --      2.0571                 1.6452                 2.2913
 Frc consts  --      0.9963                 0.8604                 1.2608
 IR Inten    --     67.8196                62.0523                26.3186

                     28                     29                     30
                      A                      A                      A
 Frequencies --   1008.2236              1016.8277              1062.5910
 Red. masses --      1.2786                 2.3568                 2.5254
 Frc consts  --      0.7658                 1.4357                 1.6800
 IR Inten    --      0.0643                10.3102                16.9417

                     31                     32                     33
                      A                      A                      A
 Frequencies --   1101.4806              1118.5370              1124.0739
 Red. masses --      1.9771                 1.5275                 2.1051
 Frc consts  --      1.4133                 1.1260                 1.5672
 IR Inten    --      0.1125                 0.0207                 4.2986

                     34                     35                     36
                      A                      A                      A
 Frequencies --   1138.3951              1171.9472              1198.4807
 Red. masses --      2.1114                 1.3823                 2.4441
 Frc consts  --      1.6121                 1.1186                 2.0684
 IR Inten    --      2.9946                26.2448                14.9991

                     37                     38                     39
                      A                      A                      A
 Frequencies --   1233.5936              1243.8958              1304.3571
 Red. masses --      1.2844                 1.7166                 1.1542
 Frc consts  --      1.1515                 1.5649                 1.1570
 IR Inten    --      5.5403                 4.3076                 0.0314

                     40                     41                     42
                      A                      A                      A
 Frequencies --   1318.5113              1338.8042              1382.4144
 Red. masses --      1.8190                 4.0799                 1.3377
 Frc consts  --      1.8631                 4.3085                 1.5062
 IR Inten    --      7.6056                34.6298                 6.9182

                     43                     44                     45
                      A                      A                      A
 Frequencies --   1393.8532              1403.3574              1444.3387
 Red. masses --      1.5037                 1.4688                 1.2668
 Frc consts  --      1.7212                 1.7043                 1.5571
 IR Inten    --     19.0401                 1.1966                 2.0950

                     46                     47                     48
                      A                      A                      A
 Frequencies --   1456.0023              1463.6755              1489.0220
 Red. masses --      1.4054                 2.5264                 1.0983
 Frc consts  --      1.7554                 3.1890                 1.4347
 IR Inten    --     10.8981                 0.3118                10.0804

                     49                     50                     51
                      A                      A                      A
 Frequencies --   1507.7922              1522.6608              1531.3978
 Red. masses --      1.1094                 1.0395                 1.0634
 Frc consts  --      1.4860                 1.4200                 1.4693
 IR Inten    --      0.8350                 6.1186                 5.4999

                     52                     53                     54
                      A                      A                      A
 Frequencies --   1545.1871              1578.9925              1666.6833
 Red. masses --      1.0958                 6.0247                 5.4802
 Frc consts  --      1.5415                 8.8501                 8.9692
 IR Inten    --      1.2356                24.2026               122.7359

                     55                     56                     57
                      A                      A                      A
 Frequencies --   1692.3662              1759.9097              2950.0954
 Red. masses --      1.2118                 6.2146                 1.0744
 Frc consts  --      2.0449                11.3409                 5.5093
 IR Inten    --     81.8261               281.5290                73.9320

                     58                     59                     60
                      A                      A                      A
 Frequencies --   3024.7073              3048.1961              3048.2673
 Red. masses --      1.0604                 1.0990                 1.0895
 Frc consts  --      5.7161                 6.0165                 5.9648
 IR Inten    --     23.1611                24.6019                44.1106

                     61                     62                     63
                      A                      A                      A
 Frequencies --   3066.3096              3107.0218              3135.2284
 Red. masses --      1.0354                 1.0606                 1.1030
 Frc consts  --      5.7359                 6.0322                 6.3881
 IR Inten    --     22.3164                15.8345                32.8228

                     64                     65                     66
                      A                      A                      A
 Frequencies --   3141.4138              3170.5489              3189.8068
 Red. masses --      1.1027                 1.1064                 1.0903
 Frc consts  --      6.4114                 6.5531                 6.5360
 IR Inten    --     23.9383                 4.1844                11.4994

                     67                     68                     69
                      A                      A                      A
 Frequencies --   3234.0475              3469.8673              3563.7415
 Red. masses --      1.0949                 1.0497                 1.0938
 Frc consts  --      6.7472                 7.4462                 8.1844
 IR Inten    --      3.0011                44.8243                18.2060

 - Thermochemistry -
 -------------------
 Temperature   298.150 Kelvin.  Pressure   1.00000 Atm.
 Atom     1 has atomic number  6 and mass  12.00000

 Molecular mass:   167.10586 amu.
 Principal axes and moments of inertia in atomic units:
                           1         2         3
     Eigenvalues --  1153.010762873.507423807.34298
           X            0.99999  -0.00202  -0.00281
           Y            0.00200   0.99999  -0.00499
           Z            0.00282   0.00498   0.99998
 This molecule is an asymmetric top.
 Rotational symmetry number  1.
 Warning -- assumption of classical behavior for rotation
           may cause significant error
 Rotational temperatures (Kelvin)      0.07512     0.03014     0.02275
 Rotational constants (GHZ):           1.56524     0.62806     0.47402
 Zero-point vibrational energy     559521.0 (Joules/Mol)
                                  133.72872 (Kcal/Mol)
 Warning -- explicit consideration of  18 degrees of freedom as
           vibrations may cause significant error
 Vibrational temperatures:     33.18    73.27   141.05   168.98   210.25
          (Kelvin)            264.61   328.21   401.43   433.97   452.40
                              488.22   547.16   594.38   706.81   743.11
                              775.13   823.15   883.86  1003.33  1055.30
                             1137.02  1156.14  1237.68  1251.10  1304.44
                             1355.53  1390.44  1450.61  1462.99  1528.83
                             1584.78  1609.33  1617.29  1637.90  1686.17
                             1724.35  1774.87  1789.69  1876.68  1897.04
                             1926.24  1988.99  2005.44  2019.12  2078.08
                             2094.86  2105.90  2142.37  2169.38  2190.77
                             2203.34  2223.18  2271.82  2397.99  2434.94
                             2532.12  4244.53  4351.88  4385.67  4385.78
                             4411.74  4470.31  4510.89  4519.79  4561.71
                             4589.42  4653.07  4992.37  5127.43

 Zero-point correction=                           0.213110 (Hartree/Particle)
 Thermal correction to Energy=                    0.225094
 Thermal correction to Enthalpy=                  0.226038
 Thermal correction to Gibbs Free Energy=         0.173940
 Sum of electronic and zero-point Energies=           -551.966396
 Sum of electronic and thermal Energies=              -551.954413
 Sum of electronic and thermal Enthalpies=            -551.953468
 Sum of electronic and thermal Free Energies=         -552.005567

                     E (Thermal)             CV                S
                      KCal/Mol        Cal/Mol-Kelvin    Cal/Mol-Kelvin
 Total                  141.248             44.466            109.650
 Electronic               0.000              0.000              0.000
 Translational            0.889              2.981             41.249
 Rotational               0.889              2.981             30.912
 Vibrational            139.471             38.504             37.489
 Vibration     1          0.593              1.985              6.351
 Vibration     2          0.595              1.977              4.781
 Vibration     3          0.603              1.951              3.493
 Vibration     4          0.608              1.935              3.142
 Vibration     5          0.617              1.907              2.722
 Vibration     6          0.631              1.862              2.288
 Vibration     7          0.651              1.798              1.894
 Vibration     8          0.679              1.712              1.540
 Vibration     9          0.694              1.671              1.408
 Vibration    10          0.702              1.646              1.339
 Vibration    11          0.719              1.597              1.215
 Vibration    12          0.750              1.512              1.038
 Vibration    13          0.777              1.442              0.916
 Vibration    14          0.847              1.269              0.680
 Vibration    15          0.872              1.213              0.618
 Vibration    16          0.894              1.164              0.568
 Vibration    17          0.928              1.092              0.500
 Vibration    18          0.974              1.002              0.426

 Optimization completed.
    -- Stationary point found.
 Normal termination of Gaussian 16 at Wed Dec  9 16:54:34 2020.

 ----------------------------------------------------------------------
 # B3LYP/6-311++G(d,p) empiricaldispersion=gd3bj scf=xqc pop=npa geom=c
 heck
 ----------------------------------------------------------------------

 --------------------------------------
 CID_84652763_JID_2076_Energie_neutraal
 --------------------------------------
 Structure from the checkpoint file:  "JID_2076.chk"
 Charge =  0 Multiplicity = 1

 SCF Done:  E(RB3LYP) =  -552.340939896     A.U. after   15 cycles
 Normal termination of Gaussian 16 at Wed Dec  9 16:56:34 2020.

 ----------------------------------------------------------------------
 # B3LYP/6-311++G(d,p) empiricaldispersion=gd3bj scf=xqc pop=npa geom=c
 heck
 ----------------------------------------------------------------------

 ------------------------------------
 CID_84652763_JID_2076_Energie_kation
 ------------------------------------
 Structure from the checkpoint file:  "JID_2076.chk"
 Charge =  1 Multiplicity = 2

 SCF Done:  E(UB3LYP) =  -552.038000113     A.U. after   24 cycles
 Normal termination of Gaussian 16 at Wed Dec  9 17:00:56 2020.
 Gaussian 16:  ES64L-G16RevA.03 25-Dec-2016

 ----------------------------------------------------------------------
 # B3LYP/6-311++G(d,p) empiricaldispersion=gd3bj scf=xqc pop=npa geom=c
 heck
 ----------------------------------------------------------------------

 -----------------------------------
 CID_84652763_JID_2076_Energie_anion
 -----------------------------------
 Structure from the checkpoint file:  "JID_2076.chk"
 Charge = -1 Multiplicity = 2

                         Standard orientation:
 ---------------------------------------------------------------------
 Center     Atomic      Atomic             Coordinates (Angstroms)
 Number     Number       Type             X           Y           Z
 ---------------------------------------------------------------------
      1          6           0       -3.298251   -1.747946    0.000067
      2          6           0       -3.173708   -0.245458   -0.245022
      3          6           0       -1.776548    0.307684   -0.082875
      4          7           0       -0.820025   -0.521311    0.244777
      5          7           0        0.432711   -0.047053    0.393529
      6          6           0        0.838385    1.277795    0.186998
      7          8           0        2.022657    1.610505    0.276961
      8          6           0       -0.255400    2.175918   -0.134332
      9          6           0       -1.518924    1.703826   -0.275993
     10          6           0        1.428442   -1.062794    0.774124
     11          6           0        2.273929   -1.574546   -0.402616
     12          7           0        3.529955   -0.834613   -0.503272
     13          1           0       -2.664940   -2.312742   -0.690177
     14          1           0       -4.335910   -2.068091   -0.137917
     15          1           0       -2.985886   -2.007939    1.015593
     16          1           0       -3.525349   -0.000137   -1.257647
     17          1           0       -3.841993    0.302497    0.434894
     18          1           0        0.004598    3.219971   -0.269183
     19          1           0       -2.342591    2.365371   -0.532812
     20          1           0        2.087842   -0.628480    1.529745
     21          1           0        0.845248   -1.871424    1.214299
     22          1           0        2.510014   -2.630652   -0.216534
     23          1           0        1.635572   -1.552951   -1.305322
     24          1           0        3.995340   -1.050255   -1.382267
     25          1           0        3.330763    0.164762   -0.485706
 ---------------------------------------------------------------------

 SCF Done:  E(UB3LYP) =  -552.348157094     A.U. after   31 cycles

 The electronic state is 2-A.
 Alpha  occ. eigenvalues --  -18.91675 -14.20642 -14.15937 -14.15780 -10.09674
 Alpha  occ. eigenvalues --  -10.06455 -10.06063 -10.04593 -10.04252 -10.04118
 Alpha  occ. eigenvalues --   -9.99999  -9.98767  -0.88522  -0.83770  -0.75205
 Alpha  occ. eigenvalues --   -0.70010  -0.63596  -0.62445  -0.58332  -0.52441
 Alpha  occ. eigenvalues --   -0.49409  -0.45951  -0.45190  -0.36776  -0.36592
 Alpha  occ. eigenvalues --   -0.34386  -0.32952  -0.32592  -0.30558  -0.29582
 Alpha  occ. eigenvalues --   -0.28508  -0.27172  -0.26093  -0.24244  -0.23996
 Alpha  occ. eigenvalues --   -0.23640  -0.22736  -0.22317  -0.21280  -0.19438
 Alpha  occ. eigenvalues --   -0.13984  -0.13377  -0.11337  -0.08672  -0.07153
 Alpha  occ. eigenvalues --    0.05737
 Alpha virt. eigenvalues --    0.08302   0.08975   0.10023   0.10783   0.11354
 Alpha virt. eigenvalues --    0.11830   0.12449   0.12636   0.13710   0.14546
 Alpha virt. eigenvalues --    0.15234   0.15490   0.16122   0.16858   0.17967

  Beta  occ. eigenvalues --  -18.91621 -14.20269 -14.15776 -14.15336 -10.09687
  Beta  occ. eigenvalues --  -10.06431 -10.06082 -10.04584 -10.04330 -10.04117
  Beta  occ. eigenvalues --   -9.99662  -9.98356  -0.88068  -0.83288  -0.75169
  Beta  occ. eigenvalues --   -0.69618  -0.63440  -0.61530  -0.58162  -0.52158
  Beta  occ. eigenvalues --   -0.49191  -0.45724  -0.44477  -0.36710  -0.36315
  Beta  occ. eigenvalues --   -0.34087  -0.32799  -0.32494  -0.30462  -0.29283
  Beta  occ. eigenvalues --   -0.27631  -0.26927  -0.26014  -0.24161  -0.23850
  Beta  occ. eigenvalues --   -0.23532  -0.22455  -0.22041  -0.21147  -0.18130
  Beta  occ. eigenvalues --   -0.13267  -0.11328  -0.11001  -0.08317  -0.05377
  Beta virt. eigenvalues --    0.08207   0.08911   0.09959   0.10731   0.11276
  Beta virt. eigenvalues --    0.11752   0.12201   0.12583   0.13316   0.13666
  Beta virt. eigenvalues --    0.14489   0.15156   0.15492   0.16177   0.17287

 Mulliken charges and spin densities:
               1          2
     1  C   -0.551274  -0.046469
     2  C   -0.260791   0.035046
     3  C   -0.173984  -0.107815
     4  N   -0.251654   0.304625
     5  N    0.374728   0.114888
     6  C   -0.234508   0.035306
     7  O   -0.415733   0.018101
     8  C   -0.168090   0.302201
     9  C   -0.058890   0.277886
    10  C   -0.321302   0.009941
    11  C   -0.218395  -0.143781
    12  N   -0.371607  -0.005508
    13  H    0.136835   0.008574
    14  H    0.096399   0.004443
    15  H    0.129498   0.014110
    16  H    0.110987   0.006974
    17  H    0.118414  -0.002519
    18  H    0.121179  -0.025666
    19  H    0.114510  -0.019445
    20  H    0.182038   0.012086
    21  H    0.086968   0.062512
    22  H   -0.023248   0.131432
    23  H    0.153962  -0.016582
    24  H    0.172422   0.020056
    25  H    0.251536   0.009604
 Sum of Mulliken charges =  -1.00000   1.00000

 Dipole moment (field-independent basis, Debye):
    X=             -3.1039    Y=             -2.8057    Z=             -1.4028  Tot=              4.4130
 Quadrupole moment (field-independent basis, Debye-Ang):
   XX=           -106.2788   YY=            -94.9061   ZZ=            -79.8552
   XY=             -3.6984   XZ=             -4.5741   YZ=              0.2709

 Summary of Natural Population Analysis:

                                       Natural Population
                Natural  -----------------------------------------------
    Atom  No    Charge         Core      Valence    Rydberg      Total
 -----------------------------------------------------------------------
      C    1   -0.28391      0.99968     2.27944    0.00479     3.28391
      C    2   -0.19176      0.99962     2.18604    0.00610     3.19176
      C    3    0.05683      0.99959     1.92907    0.01451     2.94317
      N    4   -0.06645      0.99964     2.55355    0.01326     3.56645
      N    5   -0.09095      0.99964     2.57739    0.01392     3.59095
      C    6    0.30388      0.99960     1.67398    0.02254     2.69612
      O    7   -0.36475      0.99987     3.35850    0.00637     4.36475
      C    8   -0.05840      0.99953     2.04885    0.01002     3.05840
      C    9   -0.05077      0.99952     2.04241    0.00884     3.05077
      C   10   -0.09176      0.99962     2.08083    0.01131     3.09176
      C   11   -0.09042      0.99964     2.08122    0.00956     3.09042
      N   12   -0.43569      0.99977     2.92512    0.01080     3.93569
      H   13    0.10038      0.00000     0.39821    0.00141     0.39962
      H   14    0.08540      0.00000     0.41373    0.00087     0.41460
      H   15    0.10035      0.00000     0.39825    0.00140     0.39965
      H   16    0.09085      0.00000     0.40772    0.00143     0.40915
      H   17    0.09058      0.00000     0.40798    0.00143     0.40942
      H   18    0.08879      0.00000     0.40945    0.00176     0.41121
      H   19    0.08431      0.00000     0.41449    0.00120     0.41569
      H   20    0.10289      0.00000     0.39497    0.00215     0.39711
      H   21    0.10219      0.00000     0.39611    0.00170     0.39781
      H   22    0.07896      0.00000     0.41873    0.00231     0.42104
      H   23    0.08019      0.00000     0.41791    0.00190     0.41981
      H   24    0.16354      0.00000     0.33448    0.00198     0.33646
      H   25    0.19572      0.00000     0.30177    0.00251     0.30428
 =======================================================================
   * Total *    0.00000     11.99572    32.85021    0.15407    45.00000

 Normal termination of Gaussian 16 at Wed Dec  9 17:07:16 2020.
