 Gaussian 16, Revision A.03,

 -----------------------------------------------------------
 # opt freq B3LYP/6-31G(d) empiricaldispersion=gd3bj scf=xqc
 -----------------------------------------------------------

 ------------------------------
 CID_79333617_JID_1072_neutraal
 ------------------------------
 Symbolic Z-matrix:
 Charge =  0 Multiplicity = 1

 SCF Done:  E(RB3LYP) =  -475.722076514     A.U. after   14 cycles
 SCF Done:  E(RB3LYP) =  -475.727956372     A.U. after   12 cycles
 SCF Done:  E(RB3LYP) =  -475.729684048     A.U. after   12 cycles
 SCF Done:  E(RB3LYP) =  -475.731140924     A.U. after   15 cycles
 SCF Done:  E(RB3LYP) =  -475.732801150     A.U. after   12 cycles
 SCF Done:  E(RB3LYP) =  -475.733260444     A.U. after   11 cycles
 SCF Done:  E(RB3LYP) =  -475.733413201     A.U. after   12 cycles
 SCF Done:  E(RB3LYP) =  -475.733503018     A.U. after   11 cycles
 SCF Done:  E(RB3LYP) =  -475.733517755     A.U. after    9 cycles
 SCF Done:  E(RB3LYP) =  -475.733519335     A.U. after    8 cycles
 SCF Done:  E(RB3LYP) =  -475.733519853     A.U. after    7 cycles
 SCF Done:  E(RB3LYP) =  -475.733520390     A.U. after    7 cycles
 SCF Done:  E(RB3LYP) =  -475.733520464     A.U. after    6 cycles
 Optimization completed.
    -- Stationary point found.

 1\1\GINC-NODE200\FOpt\RB3LYP\6-31G(d)\C8H11N3\VSC10255\08-Dec-2020\0\\
 # opt freq B3LYP/6-31G(d) empiricaldispersion=gd3bj scf=xqc\\CID_79333
 617_JID_1072_neutraal\\0,1\C,1.1629766434,0.4511290915,0.0300546896\C,
 0.4860910472,0.6825620889,-1.3010402334\C,0.827370375,1.8504035304,-2.
 176412526\C,1.1709933,0.4548570507,-2.6577439225\C,2.6026248322,0.0270
 400326,-2.6916682652\N,3.5166440498,0.7508218997,-2.0180653333\C,4.781
 0279699,0.3274575184,-2.0703403432\C,5.1658687719,-0.8040995388,-2.785
 9764073\C,4.1445768728,-1.4827741192,-3.4450588237\N,2.8711940742,-1.0

 Normal termination of Gaussian 16 at Tue Dec  8 19:12:17 2020.

 --------------------------------------------------------------------
 #N Geom=AllCheck Guess=TCheck SCRF=Check GenChk RB3LYP/6-31G(d) Freq
 --------------------------------------------------------------------

 Structure from the checkpoint file:  "JID_1072.chk"
 ------------------------------
 CID_79333617_JID_1072_neutraal
 ------------------------------
 Charge =  0 Multiplicity = 1

 SCF Done:  E(RB3LYP) =  -475.733520464     A.U. after    1 cycles

  Exact polarizability: 128.805  -0.575  95.316   4.764   8.350  69.564
 Approx polarizability: 184.122  -2.419 153.815   9.531  23.970 108.783

                      1                      2                      3
                      A                      A                      A
 Frequencies --     53.1535               106.8837               180.6137
 Red. masses --      4.2617                 3.6533                 2.0191
 Frc consts  --      0.0071                 0.0246                 0.0388
 IR Inten    --      0.0503                 1.0868                 5.6490

                      4                      5                      6
                      A                      A                      A
 Frequencies --    195.8066               211.0420               253.5448
 Red. masses --      1.4454                 1.9744                 2.1829
 Frc consts  --      0.0327                 0.0518                 0.0827
 IR Inten    --      0.2643                17.2725                 2.2242

                      7                      8                      9
                      A                      A                      A
 Frequencies --    282.3626               344.8623               396.3961
 Red. masses --      1.6897                 3.6040                 3.1145
 Frc consts  --      0.0794                 0.2525                 0.2883
 IR Inten    --     21.5753                 7.0839                 1.1506

                     10                     11                     12
                      A                      A                      A
 Frequencies --    413.0375               450.6588               471.5143
 Red. masses --      4.1986                 2.2886                 3.7729
 Frc consts  --      0.4220                 0.2739                 0.4942
 IR Inten    --      0.0871                 4.8585                13.3875

                     13                     14                     15
                      A                      A                      A
 Frequencies --    524.8844               579.4132               650.3240
 Red. masses --      3.9526                 2.7547                 7.9521
 Frc consts  --      0.6416                 0.5449                 1.9815
 IR Inten    --      1.7647                 4.9326                 8.2280

                     16                     17                     18
                      A                      A                      A
 Frequencies --    746.6287               771.2324               817.9684
 Red. masses --      5.2575                 2.8647                 1.3289
 Frc consts  --      1.7268                 1.0039                 0.5238
 IR Inten    --      1.5793                10.2761                 8.4376

                     19                     20                     21
                      A                      A                      A
 Frequencies --    847.0956               870.1803               902.5248
 Red. masses --      5.5186                 2.9575                 1.2850
 Frc consts  --      2.3332                 1.3194                 0.6167
 IR Inten    --     13.5491               100.1924                 5.6603

                     22                     23                     24
                      A                      A                      A
 Frequencies --    937.7767               971.7525               997.4983
 Red. masses --      1.6239                 1.7315                 1.4296
 Frc consts  --      0.8414                 0.9633                 0.8381
 IR Inten    --     74.2053                64.7767                 0.1642

                     25                     26                     27
                      A                      A                      A
 Frequencies --   1000.5820              1011.0576              1024.7973
 Red. masses --      1.3786                 9.2053                 1.1889
 Frc consts  --      0.8132                 5.5442                 0.7356
 IR Inten    --      0.0072                 0.2902                21.1932

                     28                     29                     30
                      A                      A                      A
 Frequencies --   1078.5411              1102.7553              1119.8362
 Red. masses --      1.2695                 2.5748                 1.5241
 Frc consts  --      0.8701                 1.8448                 1.1261
 IR Inten    --      7.0174                 2.9561                 1.0537

                     31                     32                     33
                      A                      A                      A
 Frequencies --   1131.1754              1138.9197              1197.9051
 Red. masses --      1.7967                 1.6986                 2.4377
 Frc consts  --      1.3545                 1.2981                 2.0610
 IR Inten    --     10.4491                19.9340                49.1506

                     34                     35                     36
                      A                      A                      A
 Frequencies --   1215.0644              1257.7212              1282.5571
 Red. masses --      1.7428                 7.4039                 1.9086
 Frc consts  --      1.5160                 6.9004                 1.8498
 IR Inten    --      2.5322                 0.5768                 8.6864

                     37                     38                     39
                      A                      A                      A
 Frequencies --   1300.0160              1322.0539              1383.6694
 Red. masses --      1.3569                 1.7819                 2.5995
 Frc consts  --      1.3511                 1.8350                 2.9323
 IR Inten    --      7.3524                 1.0374                 6.3176

                     40                     41                     42
                      A                      A                      A
 Frequencies --   1414.6174              1449.1882              1470.5370
 Red. masses --      1.4226                 1.3930                 2.8653
 Frc consts  --      1.6774                 1.7237                 3.6507
 IR Inten    --      9.7253                 1.4484               169.7738

                     43                     44                     45
                      A                      A                      A
 Frequencies --   1478.3218              1502.8565              1529.6780
 Red. masses --      1.8356                 1.5210                 1.0898
 Frc consts  --      2.3636                 2.0241                 1.5024
 IR Inten    --      1.4733                13.9220                 2.0650

                     46                     47                     48
                      A                      A                      A
 Frequencies --   1536.1376              1609.6750              1639.0427
 Red. masses --      1.0473                 6.0326                 5.1587
 Frc consts  --      1.4560                 9.2094                 8.1653
 IR Inten    --      6.5689                70.7766               131.5826

                     49                     50                     51
                      A                      A                      A
 Frequencies --   1710.6338              3045.2248              3098.0145
 Red. masses --      1.0949                 1.0391                 1.1020
 Frc consts  --      1.8877                 5.6772                 6.2315
 IR Inten    --     22.8854                43.3902                31.0648

                     52                     53                     54
                      A                      A                      A
 Frequencies --   3145.0953              3159.6151              3168.5248
 Red. masses --      1.0958                 1.0536                 1.0899
 Frc consts  --      6.3866                 6.1972                 6.4468
 IR Inten    --      2.6544                10.3885                16.5841

                     55                     56                     57
                      A                      A                      A
 Frequencies --   3169.6786              3171.7116              3227.8275
 Red. masses --      1.0898                 1.0915                 1.0958
 Frc consts  --      6.4511                 6.4691                 6.7267
 IR Inten    --     21.5834                33.5060                12.8700

                     58                     59                     60
                      A                      A                      A
 Frequencies --   3250.9386              3453.1672              3531.3031
 Red. masses --      1.1185                 1.0509                 1.0894
 Frc consts  --      6.9646                 7.3836                 8.0041
 IR Inten    --      4.3001                 1.7250                 1.0052

 - Thermochemistry -
 -------------------
 Temperature   298.150 Kelvin.  Pressure   1.00000 Atm.
 Atom     1 has atomic number  6 and mass  12.00000

 Molecular mass:   149.09530 amu.
 Principal axes and moments of inertia in atomic units:
                           1         2         3
     Eigenvalues --   891.818542022.367282482.54841
           X            0.99995   0.01014  -0.00172
           Y           -0.01017   0.99978  -0.01816
           Z            0.00153   0.01818   0.99983
 This molecule is an asymmetric top.
 Rotational symmetry number  1.
 Warning -- assumption of classical behavior for rotation
           may cause significant error
 Rotational temperatures (Kelvin)      0.09712     0.04283     0.03489
 Rotational constants (GHZ):           2.02366     0.89239     0.72697
 Zero-point vibrational energy     486315.5 (Joules/Mol)
                                  116.23219 (Kcal/Mol)
 Warning -- explicit consideration of  14 degrees of freedom as
           vibrations may cause significant error
 Vibrational temperatures:     76.48   153.78   259.86   281.72   303.64
          (Kelvin)            364.79   406.26   496.18   570.33   594.27
                              648.40   678.40   755.19   833.65   935.67
                             1074.23  1109.63  1176.87  1218.78  1252.00
                             1298.53  1349.25  1398.14  1435.18  1439.61
                             1454.69  1474.45  1551.78  1586.62  1611.19
                             1627.51  1638.65  1723.52  1748.21  1809.58
                             1845.31  1870.43  1902.14  1990.79  2035.32
                             2085.06  2115.77  2126.98  2162.28  2200.87
                             2210.16  2315.96  2358.22  2461.22  4381.40
                             4457.35  4525.09  4545.98  4558.80  4560.46
                             4563.39  4644.12  4677.38  4968.34  5080.76

 Zero-point correction=                           0.185228 (Hartree/Particle)
 Thermal correction to Energy=                    0.195152
 Thermal correction to Enthalpy=                  0.196097
 Thermal correction to Gibbs Free Energy=         0.150016
 Sum of electronic and zero-point Energies=           -475.548293
 Sum of electronic and thermal Energies=              -475.538368
 Sum of electronic and thermal Enthalpies=            -475.537424
 Sum of electronic and thermal Free Energies=         -475.583504

                     E (Thermal)             CV                S
                      KCal/Mol        Cal/Mol-Kelvin    Cal/Mol-Kelvin
 Total                  122.460             38.430             96.984
 Electronic               0.000              0.000              0.000
 Translational            0.889              2.981             40.909
 Rotational               0.889              2.981             29.883
 Vibrational            120.683             32.468             26.192
 Vibration     1          0.596              1.976              4.696
 Vibration     2          0.606              1.944              3.325
 Vibration     3          0.630              1.866              2.322
 Vibration     4          0.636              1.846              2.172
 Vibration     5          0.643              1.824              2.035
 Vibration     6          0.665              1.757              1.706
 Vibration     7          0.681              1.706              1.519
 Vibration     8          0.723              1.586              1.190
 Vibration     9          0.763              1.478              0.976
 Vibration    10          0.777              1.442              0.916
 Vibration    11          0.809              1.359              0.794
 Vibration    12          0.828              1.313              0.733
 Vibration    13          0.880              1.195              0.599
 Vibration    14          0.936              1.076              0.486

 Optimization completed.
    -- Stationary point found.

 1\1\GINC-NODE200\Freq\RB3LYP\6-31G(d)\C8H11N3\VSC10255\08-Dec-2020\0\\
 #N Geom=AllCheck Guess=TCheck SCRF=Check GenChk RB3LYP/6-31G(d) Freq\\
 CID_79333617_JID_1072_neutraal\\0,1\C,1.1629766434,0.4511290915,0.0300
 546896\C,0.4860910472,0.6825620889,-1.3010402334\C,0.827370375,1.85040
 35304,-2.176412526\C,1.1709933,0.4548570507,-2.6577439225\C,2.60262483
 22,0.0270400326,-2.6916682652\N,3.5166440498,0.7508218997,-2.018065333
 3\C,4.7810279699,0.3274575184,-2.0703403432\C,5.1658687719,-0.80409953
 88,-2.7859764073\C,4.1445768728,-1.4827741192,-3.4450588237\N,2.871194

 Normal termination of Gaussian 16 at Tue Dec  8 19:16:36 2020.

 ----------------------------------------------------------------------
 # B3LYP/6-311++G(d,p) empiricaldispersion=gd3bj scf=xqc pop=npa geom=c
 heck
 ----------------------------------------------------------------------

 --------------------------------------
 CID_79333617_JID_1072_Energie_neutraal
 --------------------------------------
 Structure from the checkpoint file:  "JID_1072.chk"
 Charge =  0 Multiplicity = 1

 SCF Done:  E(RB3LYP) =  -475.864854778     A.U. after   15 cycles
 Normal termination of Gaussian 16 at Tue Dec  8 19:18:21 2020.

 ----------------------------------------------------------------------
 # B3LYP/6-311++G(d,p) empiricaldispersion=gd3bj scf=xqc pop=npa geom=c
 heck
 ----------------------------------------------------------------------

 ------------------------------------
 CID_79333617_JID_1072_Energie_kation
 ------------------------------------
 Structure from the checkpoint file:  "JID_1072.chk"
 Charge =  1 Multiplicity = 2

 SCF Done:  E(UB3LYP) =  -475.548967933     A.U. after   26 cycles
 Normal termination of Gaussian 16 at Tue Dec  8 19:22:49 2020.
 Gaussian 16:  ES64L-G16RevA.03 25-Dec-2016

 -----------------------------------
 CID_79333617_JID_1072_Energie_anion
 -----------------------------------
 Structure from the checkpoint file:  "JID_1072.chk"
 Charge = -1 Multiplicity = 2

                         Standard orientation:
 ---------------------------------------------------------------------
 Center     Atomic      Atomic             Coordinates (Angstroms)
 Number     Number       Type             X           Y           Z
 ---------------------------------------------------------------------
      1          6           0        1.831308    1.664962   -1.067125
      2          6           0        2.181590    0.367970   -0.375270
      3          6           0        2.053476    0.196020    1.108180
      4          6           0        1.137259   -0.600912    0.201123
      5          6           0       -0.311689   -0.241366    0.130244
      6          7           0       -0.713861    0.948313    0.615994
      7          6           0       -2.015002    1.229980    0.524710
      8          6           0       -2.937074    0.349651   -0.036950
      9          6           0       -2.418750   -0.851970   -0.511790
     10          7           0       -1.120782   -1.157066   -0.435221
     11          7           0        1.480645   -1.996409    0.042999
     12          1           0        1.543262    1.492605   -2.111509
     13          1           0        2.699203    2.335514   -1.066633
     14          1           0        1.007990    2.177064   -0.564143
     15          1           0        2.999235   -0.188075   -0.828440
     16          1           0        2.811175   -0.378557    1.631575
     17          1           0        1.592184    1.002555    1.668767
     18          1           0       -2.327655    2.195097    0.920694
     19          1           0       -3.993426    0.586208   -0.099841
     20          1           0       -3.063194   -1.600152   -0.971276
     21          1           0        1.065161   -2.525532    0.810661
     22          1           0        1.017339   -2.346607   -0.794988
 ---------------------------------------------------------------------

 SCF Done:  E(UB3LYP) =  -475.853489331     A.U. after   33 cycles
 SCF Done:  E(UB3LYP) =  -475.854579952     a.u. after    7 cycles

 The electronic state is 2-A.
 Alpha  occ. eigenvalues --  -14.17822 -14.15955 -14.15479 -10.10073 -10.08927
 Alpha  occ. eigenvalues --  -10.06495 -10.05974 -10.05590 -10.05245 -10.04615
 Alpha  occ. eigenvalues --  -10.03679  -0.84030  -0.78917  -0.73885  -0.70659
 Alpha  occ. eigenvalues --   -0.64317  -0.59632  -0.52684  -0.50772  -0.46928
 Alpha  occ. eigenvalues --   -0.43766  -0.39194  -0.37494  -0.36028  -0.35261
 Alpha  occ. eigenvalues --   -0.33440  -0.30340  -0.29826  -0.28955  -0.27231
 Alpha  occ. eigenvalues --   -0.26743  -0.25997  -0.24015  -0.18943  -0.18156
 Alpha  occ. eigenvalues --   -0.17444  -0.16247  -0.13647  -0.12351  -0.10223
 Alpha  occ. eigenvalues --    0.05691
 Alpha virt. eigenvalues --    0.07934   0.08280   0.09181   0.09668   0.10482
 Alpha virt. eigenvalues --    0.10645   0.11176   0.11788   0.12092   0.13205
 Alpha virt. eigenvalues --    0.13860   0.15180   0.16231   0.17052   0.17763

  Beta  occ. eigenvalues --  -14.17817 -14.15764 -14.15180 -10.10117 -10.08926
  Beta  occ. eigenvalues --  -10.06496 -10.05716 -10.05262 -10.05246 -10.04601
  Beta  occ. eigenvalues --  -10.03755  -0.83673  -0.78844  -0.73343  -0.70599
  Beta  occ. eigenvalues --   -0.64001  -0.59609  -0.52627  -0.50089  -0.46897
  Beta  occ. eigenvalues --   -0.43633  -0.39124  -0.37330  -0.35942  -0.35134
  Beta  occ. eigenvalues --   -0.33343  -0.30260  -0.29722  -0.28606  -0.26778
  Beta  occ. eigenvalues --   -0.26381  -0.25848  -0.23989  -0.18897  -0.17883
  Beta  occ. eigenvalues --   -0.15988  -0.15560  -0.13609  -0.11747  -0.09944
  Beta virt. eigenvalues --    0.07831   0.08980   0.09311   0.09927   0.10675
  Beta virt. eigenvalues --    0.10871   0.11303   0.11420   0.12027   0.12079
  Beta virt. eigenvalues --    0.13269   0.13737   0.15147   0.16091   0.16922

 Mulliken charges and spin densities:
               1          2
     1  C   -0.270990  -0.431720
     2  C    0.089821   0.202762
     3  C   -0.514348  -0.050147
     4  C    1.248249  -1.394762
     5  C   -0.749361   0.133628
     6  N   -0.191335   0.219032
     7  C   -0.262870   0.499913
     8  C    1.265466  -1.548968
     9  C   -0.343765   0.576748
    10  N   -0.162619   0.165737
    11  N   -0.307900   0.028850
    12  H    0.103640   0.019359
    13  H   -0.053694   0.173600
    14  H    0.135484   0.025199
    15  H    0.104491   0.087796
    16  H    0.117957   0.017731
    17  H    0.117483   0.033398
    18  H   -0.307983   0.448331
    19  H   -0.956183   1.112651
    20  H   -0.431808   0.573410
    21  H    0.167328   0.059292
    22  H    0.202938   0.048162
 Sum of Mulliken charges =  -1.00000   1.00000

 Dipole moment (field-independent basis, Debye):
    X=              6.7861    Y=             -0.7557    Z=              0.5488  Tot=              6.8500
 Quadrupole moment (field-independent basis, Debye-Ang):
   XX=           -126.7193   YY=            -89.8987   ZZ=            -85.0474
   XY=              3.9821   XZ=             -1.1616   YZ=             -4.5790

 Summary of Natural Population Analysis:

                                       Natural Population
                Natural  -----------------------------------------------
    Atom  No    Charge         Core      Valence    Rydberg      Total
 -----------------------------------------------------------------------
      C    1   -0.29170      0.99965     2.28728    0.00478     3.29170
      C    2   -0.10186      0.99957     2.09310    0.00918     3.10186
      C    3   -0.19416      0.99958     2.18618    0.00839     3.19416
      C    4    0.03322      0.99949     1.95416    0.01313     2.96678
      C    5    0.19924      0.99953     1.78164    0.01958     2.80076
      N    6   -0.23377      0.99967     2.72295    0.01115     3.73377
      C    7    0.08487      0.99959     1.89992    0.01562     2.91513
      C    8   -0.16617      0.99955     2.15690    0.00972     3.16617
      C    9    0.09589      0.99959     1.88865    0.01586     2.90411
      N   10   -0.24869      0.99968     2.73683    0.01219     3.74869
      N   11   -0.41938      0.99976     2.91150    0.00813     3.91938
      H   12    0.09607      0.00000     0.40287    0.00106     0.40393
      H   13    0.09265      0.00000     0.40619    0.00116     0.40735
      H   14    0.11628      0.00000     0.38237    0.00135     0.38372
      H   15    0.10175      0.00000     0.39684    0.00141     0.39825
      H   16    0.10052      0.00000     0.39848    0.00100     0.39948
      H   17    0.11322      0.00000     0.38536    0.00142     0.38678
      H   18    0.08175      0.00000     0.41706    0.00119     0.41825
      H   19    0.10351      0.00000     0.39380    0.00269     0.39649
      H   20    0.08130      0.00000     0.41727    0.00143     0.41870
      H   21    0.17273      0.00000     0.32549    0.00178     0.32727
      H   22    0.18273      0.00000     0.31495    0.00232     0.31727
 =======================================================================
   * Total *    0.00000     10.99566    28.85979    0.14455    40.00000

 Normal termination of Gaussian 16 at Tue Dec  8 19:54:00 2020.
