 Gaussian 16, Revision A.03,

 -----------------------------------------------------------
 # opt freq B3LYP/6-31G(d) empiricaldispersion=gd3bj scf=xqc
 -----------------------------------------------------------

 -------------------------------
 CID_130780768_JID_1816_neutraal
 -------------------------------
 Symbolic Z-matrix:
 Charge =  0 Multiplicity = 1

 SCF Done:  E(RB3LYP) =  -511.553081537     A.U. after   16 cycles
 SCF Done:  E(RB3LYP) =  -511.560090958     A.U. after   14 cycles
 SCF Done:  E(RB3LYP) =  -511.558200500     A.U. after   14 cycles
 SCF Done:  E(RB3LYP) =  -511.561780068     A.U. after   13 cycles
 SCF Done:  E(RB3LYP) =  -511.559612461     A.U. after   14 cycles
 SCF Done:  E(RB3LYP) =  -511.562028769     A.U. after   13 cycles
 SCF Done:  E(RB3LYP) =  -511.562575129     A.U. after   13 cycles
 SCF Done:  E(RB3LYP) =  -511.562619577     A.U. after   12 cycles
 SCF Done:  E(RB3LYP) =  -511.562639877     A.U. after   12 cycles
 SCF Done:  E(RB3LYP) =  -511.562725130     A.U. after   11 cycles
 SCF Done:  E(RB3LYP) =  -511.562744829     A.U. after   11 cycles
 SCF Done:  E(RB3LYP) =  -511.562750483     A.U. after   11 cycles
 SCF Done:  E(RB3LYP) =  -511.562754633     A.U. after    9 cycles
 SCF Done:  E(RB3LYP) =  -511.562755408     A.U. after    9 cycles
 SCF Done:  E(RB3LYP) =  -511.562755414     A.U. after    8 cycles
 Optimization completed.
    -- Stationary point found.
 Normal termination of Gaussian 16 at Tue Dec  8 21:15:03 2020.

 --------------------------------------------------------------------
 #N Geom=AllCheck Guess=TCheck SCRF=Check GenChk RB3LYP/6-31G(d) Freq
 --------------------------------------------------------------------

 Structure from the checkpoint file:  "JID_1816.chk"
 -------------------------------
 CID_130780768_JID_1816_neutraal
 -------------------------------
 Charge =  0 Multiplicity = 1

 SCF Done:  E(RB3LYP) =  -511.562755414     A.U. after    1 cycles

  Exact polarizability: 160.758  18.157  77.785  11.464  -3.448  68.400
 Approx polarizability: 264.550  36.013 121.746  30.964  -8.437 109.295

                      1                      2                      3
                      A                      A                      A
 Frequencies --     31.3757                68.7671               109.1744
 Red. masses --      5.7860                 6.1833                 4.3560
 Frc consts  --      0.0034                 0.0172                 0.0306
 IR Inten    --      0.5532                 7.2475                 3.1682

                      4                      5                      6
                      A                      A                      A
 Frequencies --    132.8097               160.4626               205.2261
 Red. masses --      4.8557                 2.3044                 1.3214
 Frc consts  --      0.0505                 0.0350                 0.0328
 IR Inten    --      0.2341                 2.3615                 0.4904

                      7                      8                      9
                      A                      A                      A
 Frequencies --    242.5350               256.9829               292.2748
 Red. masses --      3.7392                 3.3484                 4.6854
 Frc consts  --      0.1296                 0.1303                 0.2358
 IR Inten    --      0.7484                 2.4591                 7.8389

                     10                     11                     12
                      A                      A                      A
 Frequencies --    351.3579               379.3021               443.0983
 Red. masses --      4.3886                 3.4076                 1.1862
 Frc consts  --      0.3192                 0.2889                 0.1372
 IR Inten    --      5.6102                 0.2740                93.7263

                     13                     14                     15
                      A                      A                      A
 Frequencies --    479.9988               516.0504               527.5812
 Red. masses --      4.1449                 1.4732                 4.0716
 Frc consts  --      0.5627                 0.2312                 0.6677
 IR Inten    --      3.4692                51.8023                13.7317

                     16                     17                     18
                      A                      A                      A
 Frequencies --    538.0932               575.3677               582.9166
 Red. masses --      2.4930                 2.5085                 1.4101
 Frc consts  --      0.4253                 0.4893                 0.2823
 IR Inten    --     34.5099                 7.1028                84.2690

                     19                     20                     21
                      A                      A                      A
 Frequencies --    631.8046               637.5780               676.1135
 Red. masses --      2.5525                 1.2718                 2.5577
 Frc consts  --      0.6003                 0.3046                 0.6889
 IR Inten    --      5.6320                43.6220                55.4209

                     22                     23                     24
                      A                      A                      A
 Frequencies --    756.1359               767.5105               850.6890
 Red. masses --      5.9275                 3.9238                 3.1551
 Frc consts  --      1.9967                 1.3618                 1.3452
 IR Inten    --     27.8975                95.7427                24.4879

                     25                     26                     27
                      A                      A                      A
 Frequencies --    875.7470               948.1032               974.8457
 Red. masses --      1.4553                 1.9589                 1.9192
 Frc consts  --      0.6576                 1.0375                 1.0746
 IR Inten    --      4.1887                15.9572                32.6062

                     28                     29                     30
                      A                      A                      A
 Frequencies --   1014.6301              1073.5460              1078.1323
 Red. masses --      2.2914                 1.7183                 3.2238
 Frc consts  --      1.3899                 1.1668                 2.2078
 IR Inten    --      4.0026                 3.5385                85.6521

                     31                     32                     33
                      A                      A                      A
 Frequencies --   1099.0394              1135.4286              1247.2387
 Red. masses --      2.0530                 1.6986                 2.4514
 Frc consts  --      1.4610                 1.2902                 2.2468
 IR Inten    --     32.5162                10.1435                13.5956

                     34                     35                     36
                      A                      A                      A
 Frequencies --   1378.5208              1399.2332              1427.6223
 Red. masses --      1.6383                 3.0814                 1.4125
 Frc consts  --      1.8343                 3.5545                 1.6962
 IR Inten    --     24.2360               202.5969                12.5101

                     37                     38                     39
                      A                      A                      A
 Frequencies --   1441.0687              1465.9063              1507.7866
 Red. masses --      1.2436                 1.2674                 1.0629
 Frc consts  --      1.5216                 1.6046                 1.4237
 IR Inten    --      5.6617                 7.4529                 3.8644

                     40                     41                     42
                      A                      A                      A
 Frequencies --   1519.9969              1646.6211              1649.4334
 Red. masses --      1.0680                 1.3191                 4.9454
 Frc consts  --      1.4538                 2.1072                 7.9273
 IR Inten    --     10.0213               117.2004                13.0241

                     43                     44                     45
                      A                      A                      A
 Frequencies --   1676.2863              1819.6212              2213.7304
 Red. masses --      5.7687                 6.8416                 6.1953
 Frc consts  --      9.5505                13.3465                17.8880
 IR Inten    --     11.5345               486.5214                 0.1981

                     46                     47                     48
                      A                      A                      A
 Frequencies --   3067.6210              3135.6676              3144.4224
 Red. masses --      1.0362                 1.1012                 1.1019
 Frc consts  --      5.7453                 6.3796                 6.4189
 IR Inten    --     17.4105                11.6330                 5.6791

                     49                     50                     51
                      A                      A                      A
 Frequencies --   3165.2146              3167.5467              3494.4052
 Red. masses --      1.0878                 1.0876                 1.1552
 Frc consts  --      6.4209                 6.4292                 8.3110
 IR Inten    --     11.1414                 1.6145                83.3779

                     52                     53                     54
                      A                      A                      A
 Frequencies --   3583.6536              3586.5974              3698.5096
 Red. masses --      1.0472                 1.0754                 1.1019
 Frc consts  --      7.9235                 8.1505                 8.8805
 IR Inten    --     24.7588                42.2242                47.8683

 - Thermochemistry -
 -------------------
 Temperature   298.150 Kelvin.  Pressure   1.00000 Atm.
 Atom     1 has atomic number  6 and mass  12.00000

 Molecular mass:   151.07456 amu.
 Principal axes and moments of inertia in atomic units:
                           1         2         3
     Eigenvalues --   830.873562933.695343012.04608
           X            0.99998   0.00603   0.00287
           Y           -0.00612   0.99949   0.03148
           Z           -0.00268  -0.03150   0.99950
 This molecule is an asymmetric top.
 Rotational symmetry number  1.
 Warning -- assumption of classical behavior for rotation
           may cause significant error
 Rotational temperatures (Kelvin)      0.10424     0.02952     0.02876
 Rotational constants (GHZ):           2.17210     0.61518     0.59917
 Zero-point vibrational energy     411810.8 (Joules/Mol)
                                   98.42513 (Kcal/Mol)
 Warning -- explicit consideration of  18 degrees of freedom as
           vibrations may cause significant error
 Vibrational temperatures:     45.14    98.94   157.08   191.08   230.87
          (Kelvin)            295.27   348.95   369.74   420.52   505.53
                              545.73   637.52   690.61   742.48   759.07
                              774.20   827.83   838.69   909.03   917.33
                              972.78  1087.91  1104.28  1223.95  1260.00
                             1364.11  1402.59  1459.83  1544.59  1551.19
                             1581.27  1633.63  1794.50  1983.38  2013.18
                             2054.03  2073.38  2109.11  2169.37  2186.94
                             2369.12  2373.17  2411.80  2618.03  3185.06
                             4413.62  4511.53  4524.12  4554.04  4557.39
                             5027.67  5156.08  5160.31  5321.33

 Zero-point correction=                           0.156850 (Hartree/Particle)
 Thermal correction to Energy=                    0.168482
 Thermal correction to Enthalpy=                  0.169427
 Thermal correction to Gibbs Free Energy=         0.119001
 Sum of electronic and zero-point Energies=           -511.405905
 Sum of electronic and thermal Energies=              -511.394273
 Sum of electronic and thermal Enthalpies=            -511.393329
 Sum of electronic and thermal Free Energies=         -511.443755

                     E (Thermal)             CV                S
                      KCal/Mol        Cal/Mol-Kelvin    Cal/Mol-Kelvin
 Total                  105.724             42.832            106.131
 Electronic               0.000              0.000              0.000
 Translational            0.889              2.981             40.948
 Rotational               0.889              2.981             30.374
 Vibrational            103.947             36.870             34.808
 Vibration     1          0.594              1.983              5.740
 Vibration     2          0.598              1.969              4.188
 Vibration     3          0.606              1.942              3.284
 Vibration     4          0.613              1.921              2.905
 Vibration     5          0.622              1.891              2.544
 Vibration     6          0.640              1.832              2.086
 Vibration     7          0.659              1.775              1.784
 Vibration     8          0.667              1.751              1.682
 Vibration     9          0.688              1.688              1.461
 Vibration    10          0.728              1.572              1.160
 Vibration    11          0.749              1.514              1.042
 Vibration    12          0.803              1.376              0.817
 Vibration    13          0.836              1.294              0.710
 Vibration    14          0.871              1.214              0.619
 Vibration    15          0.883              1.189              0.593
 Vibration    16          0.893              1.166              0.569
 Vibration    17          0.932              1.085              0.494
 Vibration    18          0.940              1.068              0.480

                           ! Non-Optimized Parameters !
 Normal termination of Gaussian 16 at Tue Dec  8 21:18:48 2020.

 ----------------------------------------------------------------------
 # B3LYP/6-311++G(d,p) empiricaldispersion=gd3bj scf=xqc pop=npa geom=c
 heck
 ----------------------------------------------------------------------

 ---------------------------------------
 CID_130780768_JID_1816_Energie_neutraal
 ---------------------------------------
 Structure from the checkpoint file:  "JID_1816.chk"
 Charge =  0 Multiplicity = 1

 SCF Done:  E(RB3LYP) =  -511.723311679     A.U. after   15 cycles
 Normal termination of Gaussian 16 at Tue Dec  8 21:20:51 2020.

 ----------------------------------------------------------------------
 # B3LYP/6-311++G(d,p) empiricaldispersion=gd3bj scf=xqc pop=npa geom=c
 heck
 ----------------------------------------------------------------------

 -------------------------------------
 CID_130780768_JID_1816_Energie_kation
 -------------------------------------
 Structure from the checkpoint file:  "JID_1816.chk"
 Charge =  1 Multiplicity = 2

 SCF Done:  E(UB3LYP) =  -511.415363278     A.U. after   25 cycles
 Normal termination of Gaussian 16 at Tue Dec  8 21:26:02 2020.
 Gaussian 16:  ES64L-G16RevA.03 25-Dec-2016

 ----------------------------------------------------------------------
 # B3LYP/6-311++G(d,p) empiricaldispersion=gd3bj scf=xqc pop=npa geom=c
 heck
 ----------------------------------------------------------------------

 ------------------------------------
 CID_130780768_JID_1816_Energie_anion
 ------------------------------------
 Structure from the checkpoint file:  "JID_1816.chk"
 Charge = -1 Multiplicity = 2

                         Standard orientation:
 ---------------------------------------------------------------------
 Center     Atomic      Atomic             Coordinates (Angstroms)
 Number     Number       Type             X           Y           Z
 ---------------------------------------------------------------------
      1          6           0        0.012061    2.014064    0.032345
      2          6           0       -0.896466    0.819535    0.178581
      3          6           0       -2.123044    0.822251   -0.405955
      4          6           0       -3.063735   -0.236818   -0.348002
      5          6           0       -3.885239   -1.127088   -0.319572
      6          6           0       -0.543205   -0.319191    1.038822
      7          7           0        0.591879   -0.763230    1.461471
      8          7           0        1.757184   -0.176815    0.945494
      9          6           0        2.224115   -0.364393   -0.370150
     10          8           0        3.393839   -0.135021   -0.636268
     11          7           0        1.290574   -0.748392   -1.304387
     12          1           0       -0.570030    2.882652   -0.291229
     13          1           0        0.796424    1.835535   -0.708408
     14          1           0        0.506772    2.254394    0.977050
     15          1           0       -2.420645    1.695403   -0.984544
     16          1           0       -4.607121   -1.911266   -0.290000
     17          1           0       -1.390549   -0.878681    1.433758
     18          1           0        2.529498   -0.322571    1.585653
     19          1           0        0.476703   -1.268561   -1.006909
     20          1           0        1.703848   -1.037841   -2.179694
 ---------------------------------------------------------------------

 SCF Done:  E(UB3LYP) =  -511.748490733     A.U. after   21 cycles

 The electronic state is 2-A.
 Alpha  occ. eigenvalues --  -18.95644 -14.21260 -14.20388 -14.16236 -10.16456
 Alpha  occ. eigenvalues --  -10.03509 -10.02446 -10.02372 -10.01802 -10.01099
 Alpha  occ. eigenvalues --  -10.00631  -0.92454  -0.83822  -0.77628  -0.68942
 Alpha  occ. eigenvalues --   -0.65108  -0.60281  -0.54400  -0.50399  -0.46867
 Alpha  occ. eigenvalues --   -0.42646  -0.41348  -0.38728  -0.35389  -0.34722
 Alpha  occ. eigenvalues --   -0.31566  -0.30615  -0.29397  -0.27579  -0.26476
 Alpha  occ. eigenvalues --   -0.24255  -0.22997  -0.21120  -0.18544  -0.17365
 Alpha  occ. eigenvalues --   -0.15472  -0.13702  -0.12617  -0.09559  -0.07565
 Alpha  occ. eigenvalues --    0.03850
 Alpha virt. eigenvalues --    0.09251   0.09923   0.10444   0.11323   0.12687
 Alpha virt. eigenvalues --    0.13415   0.14371   0.14550   0.14791   0.15735
 Alpha virt. eigenvalues --    0.16338   0.16772   0.17047   0.18491   0.18877

  Beta  occ. eigenvalues --  -18.95616 -14.21254 -14.20389 -14.15661 -10.16407
  Beta  occ. eigenvalues --  -10.03358 -10.02506 -10.02384 -10.01558 -10.00722
  Beta  occ. eigenvalues --  -10.00378  -0.92370  -0.83324  -0.77559  -0.68410
  Beta  occ. eigenvalues --   -0.64513  -0.59963  -0.53981  -0.49950  -0.46327
  Beta  occ. eigenvalues --   -0.42331  -0.41182  -0.38370  -0.35275  -0.34483
  Beta  occ. eigenvalues --   -0.31238  -0.30489  -0.29173  -0.27166  -0.26167
  Beta  occ. eigenvalues --   -0.24115  -0.22695  -0.19955  -0.17619  -0.16236
  Beta  occ. eigenvalues --   -0.15192  -0.13341  -0.12285  -0.08388  -0.05876
  Beta virt. eigenvalues --    0.09219   0.09888   0.10407   0.10547   0.11329
  Beta virt. eigenvalues --    0.12666   0.13388   0.14361   0.14620   0.14840
  Beta virt. eigenvalues --    0.16343   0.16504   0.17049   0.17232   0.18696

 Mulliken charges and spin densities:
               1          2
     1  C   -0.722750  -0.017022
     2  C    1.410168   0.175026
     3  C   -1.024758   0.336014
     4  C    0.845735  -0.075873
     5  C   -0.916640   0.256542
     6  C   -1.164195   0.061773
     7  N   -0.180801   0.260106
     8  N   -0.167098   0.000226
     9  C    0.066421   0.014168
    10  O   -0.419695   0.008361
    11  N   -0.410234  -0.002927
    12  H    0.126423  -0.001917
    13  H    0.159534   0.018067
    14  H    0.153401   0.004426
    15  H    0.102517  -0.022202
    16  H    0.120886  -0.007937
    17  H    0.173045  -0.007062
    18  H    0.299848   0.001674
    19  H    0.267322  -0.004141
    20  H    0.280869   0.002698
 Sum of Mulliken charges =  -1.00000   1.00000

 Dipole moment (field-independent basis, Debye):
    X=              1.2748    Y=             -0.0906    Z=             -1.1250  Tot=              1.7027
 Quadrupole moment (field-independent basis, Debye-Ang):
   XX=           -113.2103   YY=            -73.3355   ZZ=            -74.9240
   XY=             -1.2003   XZ=              1.4852   YZ=              3.5730

 Summary of Natural Population Analysis:

                                       Natural Population
                Natural  -----------------------------------------------
    Atom  No    Charge         Core      Valence    Rydberg      Total
 -----------------------------------------------------------------------
      C    1   -0.29389      0.99963     2.28953    0.00473     3.29389
      C    2    0.00952      0.99948     1.98029    0.01070     2.99048
      C    3   -0.07413      0.99942     2.06554    0.00918     3.07413
      C    4   -0.01909      0.99940     2.01235    0.00734     3.01909
      C    5   -0.10613      0.99927     2.10193    0.00493     3.10613
      C    6    0.04169      0.99960     1.93937    0.01935     2.95831
      N    7   -0.09205      0.99968     2.57728    0.01510     3.59205
      N    8   -0.25080      0.99967     2.73620    0.01493     3.75080
      C    9    0.39431      0.99974     1.58166    0.02429     2.60569
      O   10   -0.35043      0.99987     3.34394    0.00662     4.35043
      N   11   -0.41612      0.99970     2.90840    0.00802     3.91612
      H   12    0.09122      0.00000     0.40780    0.00098     0.40878
      H   13    0.10516      0.00000     0.39360    0.00123     0.39484
      H   14    0.10138      0.00000     0.39756    0.00106     0.39862
      H   15    0.09063      0.00000     0.40775    0.00161     0.40937
      H   16    0.09903      0.00000     0.39999    0.00098     0.40097
      H   17    0.09262      0.00000     0.40598    0.00140     0.40738
      H   18    0.18583      0.00000     0.31220    0.00197     0.31417
      H   19    0.20299      0.00000     0.29566    0.00134     0.29701
      H   20    0.18826      0.00000     0.31034    0.00140     0.31174
 =======================================================================
   * Total *    0.00000     10.99548    28.86736    0.13716    40.00000

 Normal termination of Gaussian 16 at Tue Dec  8 21:30:57 2020.
