 Gaussian 16, Revision A.03,

 -----------------------------------------------------------
 # opt freq B3LYP/6-31G(d) empiricaldispersion=gd3bj scf=xqc
 -----------------------------------------------------------

 --------------------------------
 CID_115675232_JID_10987_neutraal
 --------------------------------
 Symbolic Z-matrix:
 Charge =  0 Multiplicity = 1

 SCF Done:  E(RB3LYP) =  -1293.71280258     A.U. after   18 cycles
 SCF Done:  E(RB3LYP) =  -1293.71288204     A.U. after   16 cycles
 SCF Done:  E(RB3LYP) =  -1293.71887625     A.U. after   15 cycles
 SCF Done:  E(RB3LYP) =  -1293.71912170     A.U. after   15 cycles
 SCF Done:  E(RB3LYP) =  -1293.72002730     A.U. after   15 cycles
 SCF Done:  E(RB3LYP) =  -1293.72009814     A.U. after   14 cycles
 SCF Done:  E(RB3LYP) =  -1293.72028385     A.U. after   15 cycles
 SCF Done:  E(RB3LYP) =  -1293.72117908     A.U. after   14 cycles
 SCF Done:  E(RB3LYP) =  -1293.72130988     A.U. after   13 cycles
 SCF Done:  E(RB3LYP) =  -1293.72135996     A.U. after   14 cycles
 SCF Done:  E(RB3LYP) =  -1293.72153152     A.U. after    9 cycles
 SCF Done:  E(RB3LYP) =  -1293.72153179     A.U. after    8 cycles
 SCF Done:  E(RB3LYP) =  -1293.72153188     A.U. after    8 cycles
 SCF Done:  E(RB3LYP) =  -1293.72153193     A.U. after    7 cycles
 SCF Done:  E(RB3LYP) =  -1293.72153196     A.U. after    7 cycles
 SCF Done:  E(RB3LYP) =  -1293.72153198     A.U. after    7 cycles
 Optimization completed.
    -- Stationary point found.
 Normal termination of Gaussian 16 at Sun Dec 13 13:45:30 2020.

 --------------------------------------------------------------------
 #N Geom=AllCheck Guess=TCheck SCRF=Check GenChk RB3LYP/6-31G(d) Freq
 --------------------------------------------------------------------

 Structure from the checkpoint file:  "JID_10987.chk"
 --------------------------------
 CID_115675232_JID_10987_neutraal
 --------------------------------
 Charge =  0 Multiplicity = 1

 SCF Done:  E(RB3LYP) =  -1293.72153198     A.U. after    1 cycles

  Exact polarizability: 264.516  -7.647 159.420 -14.144 -15.249 140.121
 Approx polarizability: 351.735  -4.648 275.615 -39.997 -44.865 248.025

                      1                      2                      3
                      A                      A                      A
 Frequencies --     21.7708                34.3967                42.3442
 Red. masses --      5.7706                 5.8790                 5.5223
 Frc consts  --      0.0016                 0.0041                 0.0058
 IR Inten    --      0.2459                 0.5805                 1.9549

                      4                      5                      6
                      A                      A                      A
 Frequencies --     71.9683                98.8837               104.7375
 Red. masses --      4.2184                 5.1201                 7.0223
 Frc consts  --      0.0129                 0.0295                 0.0454
 IR Inten    --      1.2004                 3.7224                 2.9370

                      7                      8                      9
                      A                      A                      A
 Frequencies --    118.3591               127.7188               146.4456
 Red. masses --      2.2071                 2.9838                 5.0421
 Frc consts  --      0.0182                 0.0287                 0.0637
 IR Inten    --      3.5686                 0.0848                 1.2019

                     10                     11                     12
                      A                      A                      A
 Frequencies --    155.5094               167.1932               180.2596
 Red. masses --      2.2823                 4.6392                 2.7726
 Frc consts  --      0.0325                 0.0764                 0.0531
 IR Inten    --      0.6148                 1.6457                 0.7771

                     13                     14                     15
                      A                      A                      A
 Frequencies --    194.9266               220.6574               268.2511
 Red. masses --      3.6614                 4.2332                 4.3000
 Frc consts  --      0.0820                 0.1214                 0.1823
 IR Inten    --      1.7158                 1.4384                 6.8565

                     16                     17                     18
                      A                      A                      A
 Frequencies --    295.7360               310.7505               345.9875
 Red. masses --      5.0342                 2.0803                 5.3859
 Frc consts  --      0.2594                 0.1184                 0.3799
 IR Inten    --      2.5657                 4.0318                 0.3084

                     19                     20                     21
                      A                      A                      A
 Frequencies --    364.5646               381.8571               385.8446
 Red. masses --      5.2890                 4.8850                 3.8073
 Frc consts  --      0.4142                 0.4197                 0.3340
 IR Inten    --      1.0251                 2.0930                 0.8156

                     22                     23                     24
                      A                      A                      A
 Frequencies --    401.6003               438.5001               456.7267
 Red. masses --      3.9725                 3.1769                 2.2722
 Frc consts  --      0.3775                 0.3599                 0.2793
 IR Inten    --      1.8939                14.6602                18.1891

                     25                     26                     27
                      A                      A                      A
 Frequencies --    492.6531               530.9152               556.9802
 Red. masses --      2.6363                 4.2074                 2.3144
 Frc consts  --      0.3770                 0.6987                 0.4230
 IR Inten    --      5.9375                42.0505                41.3937

                     28                     29                     30
                      A                      A                      A
 Frequencies --    570.8298               601.6202               636.6674
 Red. masses --      2.2152                 4.8903                 2.1623
 Frc consts  --      0.4253                 1.0429                 0.5164
 IR Inten    --      5.8698                27.3207                33.3555

                     31                     32                     33
                      A                      A                      A
 Frequencies --    667.8199               678.0089               689.8762
 Red. masses --      3.9544                 4.8135                 3.7316
 Frc consts  --      1.0391                 1.3037                 1.0464
 IR Inten    --      2.7558                18.9358                 3.1970

                     34                     35                     36
                      A                      A                      A
 Frequencies --    723.2776               745.0454               770.1473
 Red. masses --      3.9510                 4.6931                 4.8787
 Frc consts  --      1.2178                 1.5349                 1.7049
 IR Inten    --     48.2158                 5.0598                45.5211

                     37                     38                     39
                      A                      A                      A
 Frequencies --    777.5590               792.6012               801.3236
 Red. masses --      5.8356                 4.5925                 2.6338
 Frc consts  --      2.0788                 1.6999                 0.9964
 IR Inten    --     20.9446                 2.8398                 6.2082

                     40                     41                     42
                      A                      A                      A
 Frequencies --    834.0269               840.7669               853.1566
 Red. masses --      2.3095                 2.0223                 1.4209
 Frc consts  --      0.9465                 0.8423                 0.6094
 IR Inten    --     12.6026                18.2948                 1.7155

                     43                     44                     45
                      A                      A                      A
 Frequencies --    893.5495               918.7490               942.7641
 Red. masses --      2.2174                 3.9240                 1.8096
 Frc consts  --      1.0431                 1.9515                 0.9476
 IR Inten    --      2.4924                 3.0636                 4.3051

                     46                     47                     48
                      A                      A                      A
 Frequencies --    950.4199               962.8173               967.3982
 Red. masses --      1.8506                 2.2198                 1.3038
 Frc consts  --      0.9849                 1.2124                 0.7189
 IR Inten    --      3.6389                13.3990                 1.0822

                     49                     50                     51
                      A                      A                      A
 Frequencies --   1050.3769              1057.7485              1068.8701
 Red. masses --      2.8670                 2.1656                 1.9897
 Frc consts  --      1.8636                 1.4276                 1.3393
 IR Inten    --     53.6733                34.9235                 3.1182

                     52                     53                     54
                      A                      A                      A
 Frequencies --   1105.0905              1111.1015              1121.0248
 Red. masses --      2.0626                 1.6138                 1.8002
 Frc consts  --      1.4841                 1.1738                 1.3329
 IR Inten    --     10.2546                 4.6475                46.3727

                     55                     56                     57
                      A                      A                      A
 Frequencies --   1129.2956              1156.3218              1183.9510
 Red. masses --      1.7109                 1.3278                 1.8540
 Frc consts  --      1.2856                 1.0460                 1.5312
 IR Inten    --     19.3708                 7.0863                14.9640

                     58                     59                     60
                      A                      A                      A
 Frequencies --   1194.1037              1207.9733              1230.3217
 Red. masses --      1.8418                 1.9907                 1.3358
 Frc consts  --      1.5473                 1.7115                 1.1913
 IR Inten    --     21.3334                41.5316                 2.4998

                     61                     62                     63
                      A                      A                      A
 Frequencies --   1252.9918              1282.4728              1287.5430
 Red. masses --      1.3289                 1.3699                 1.5195
 Frc consts  --      1.2293                 1.3275                 1.4842
 IR Inten    --     20.1775                33.6424                37.0813

                     64                     65                     66
                      A                      A                      A
 Frequencies --   1307.9015              1318.3818              1341.1446
 Red. masses --      2.4623                 1.3136                 1.3144
 Frc consts  --      2.4816                 1.3452                 1.3930
 IR Inten    --    112.8108                36.6246                 8.1134

                     67                     68                     69
                      A                      A                      A
 Frequencies --   1353.8010              1380.9794              1389.7369
 Red. masses --      2.0625                 1.8731                 2.0245
 Frc consts  --      2.2272                 2.1047                 2.3038
 IR Inten    --     34.0525               143.1714               304.4025

                     70                     71                     72
                      A                      A                      A
 Frequencies --   1401.2160              1408.1606              1412.6484
 Red. masses --      1.4436                 3.3695                 1.8531
 Frc consts  --      1.6699                 3.9366                 2.1788
 IR Inten    --      5.1944               171.3934                20.5045

                     73                     74                     75
                      A                      A                      A
 Frequencies --   1435.5361              1447.4937              1482.5467
 Red. masses --      1.4848                 2.8599                 1.6644
 Frc consts  --      1.8027                 3.5305                 2.1554
 IR Inten    --     12.3080                 4.0236                59.3622

                     76                     77                     78
                      A                      A                      A
 Frequencies --   1496.5685              1497.6142              1503.6516
 Red. masses --      1.1530                 1.1559                 1.0895
 Frc consts  --      1.5215                 1.5274                 1.4514
 IR Inten    --     25.3960                23.3996                 5.5471

                     79                     80                     81
                      A                      A                      A
 Frequencies --   1511.8149              1523.8817              1527.6595
 Red. masses --      1.0909                 1.0636                 1.1262
 Frc consts  --      1.4691                 1.4552                 1.5485
 IR Inten    --      5.8450                 6.7055                 1.1936

                     82                     83                     84
                      A                      A                      A
 Frequencies --   1540.7420              1549.8572              1558.4067
 Red. masses --      1.6740                 1.3119                 2.1543
 Frc consts  --      2.3413                 1.8567                 3.0825
 IR Inten    --      7.8868                80.8908                27.8896

                     85                     86                     87
                      A                      A                      A
 Frequencies --   1620.5827              1629.0928              1674.3120
 Red. masses --      3.9799                 7.4355                 6.8864
 Frc consts  --      6.1584                11.6266                11.3740
 IR Inten    --     63.6572                91.2439               264.7619

                     88                     89                     90
                      A                      A                      A
 Frequencies --   1767.6766              3035.6909              3039.6569
 Red. masses --      8.0007                 1.0841                 1.0440
 Frc consts  --     14.7294                 5.8860                 5.6835
 IR Inten    --    300.5339                18.6826                50.3562

                     91                     92                     93
                      A                      A                      A
 Frequencies --   3040.2845              3057.9399              3066.0361
 Red. masses --      1.0621                 1.0661                 1.0649
 Frc consts  --      5.7843                 5.8736                 5.8981
 IR Inten    --     41.3120                12.6584                26.2183

                     94                     95                     96
                      A                      A                      A
 Frequencies --   3083.2979              3100.4287              3102.3056
 Red. masses --      1.0999                 1.0607                 1.0964
 Frc consts  --      6.1608                 6.0072                 6.2170
 IR Inten    --     26.7243                 8.9394                29.4625

                     97                     98                     99
                      A                      A                      A
 Frequencies --   3121.2855              3125.4895              3155.8437
 Red. masses --      1.1010                 1.0989                 1.1006
 Frc consts  --      6.3201                 6.3249                 6.4583
 IR Inten    --     11.0557                19.9461                18.0371

                    100                    101                    102
                      A                      A                      A
 Frequencies --   3159.2373              3180.4640              3218.5781
 Red. masses --      1.1051                 1.0890                 1.0923
 Frc consts  --      6.4986                 6.4904                 6.6667
 IR Inten    --      4.3391                11.4327                 8.8397

                    103                    104                    105
                      A                      A                      A
 Frequencies --   3248.5690              3582.4878              3595.7768
 Red. masses --      1.0910                 1.0754                 1.0756
 Frc consts  --      6.7833                 8.1318                 8.1941
 IR Inten    --      4.4409                16.3668                34.4912

 - Thermochemistry -
 -------------------
 Temperature   298.150 Kelvin.  Pressure   1.00000 Atm.
 Atom     1 has atomic number  6 and mass  12.00000

 Molecular mass:   295.09906 amu.
 Principal axes and moments of inertia in atomic units:
                           1         2         3
     Eigenvalues --  2532.73255********************
           X            0.99995  -0.00939   0.00217
           Y            0.00934   0.99977   0.01955
           Z           -0.00235  -0.01953   0.99981
 This molecule is an asymmetric top.
 Rotational symmetry number  1.
 Warning -- assumption of classical behavior for rotation
           may cause significant error
 Rotational temperatures (Kelvin)      0.03420     0.00719     0.00683
 Rotational constants (GHZ):           0.71257     0.14989     0.14236
 Zero-point vibrational energy     789343.5 (Joules/Mol)
                                  188.65763 (Kcal/Mol)
 Warning -- explicit consideration of  29 degrees of freedom as
           vibrations may cause significant error
 Vibrational temperatures:     31.32    49.49    60.92   103.55   142.27
          (Kelvin)            150.69   170.29   183.76   210.70   223.74
                              240.55   259.35   280.46   317.48   385.95
                              425.50   447.10   497.80   524.53   549.41
                              555.14   577.81   630.90   657.13   708.82
                              763.87   801.37   821.30   865.60   916.02
                              960.84   975.50   992.58  1040.64  1071.95
                             1108.07  1118.73  1140.38  1152.93  1199.98
                             1209.68  1227.50  1285.62  1321.87  1356.43
                             1367.44  1385.28  1391.87  1511.26  1521.86
                             1537.87  1589.98  1598.63  1612.90  1624.80
                             1663.69  1703.44  1718.05  1738.00  1770.16
                             1802.78  1845.19  1852.49  1881.78  1896.86
                             1929.61  1947.82  1986.92  1999.52  2016.04
                             2026.03  2032.49  2065.42  2082.62  2133.05
                             2153.23  2154.73  2163.42  2175.16  2192.53
                             2197.96  2216.78  2229.90  2242.20  2331.66
                             2343.90  2408.96  2543.29  4367.68  4373.39
                             4374.29  4399.69  4411.34  4436.18  4460.83
                             4463.53  4490.83  4496.88  4540.56  4545.44
                             4575.98  4630.82  4673.97  5154.40  5173.52

 Zero-point correction=                           0.300645 (Hartree/Particle)
 Thermal correction to Energy=                    0.319730
 Thermal correction to Enthalpy=                  0.320675
 Thermal correction to Gibbs Free Energy=         0.251815
 Sum of electronic and zero-point Energies=          -1293.420887
 Sum of electronic and thermal Energies=             -1293.401802
 Sum of electronic and thermal Enthalpies=           -1293.400857
 Sum of electronic and thermal Free Energies=        -1293.469717

                     E (Thermal)             CV                S
                      KCal/Mol        Cal/Mol-Kelvin    Cal/Mol-Kelvin
 Total                  200.634             71.851            144.926
 Electronic               0.000              0.000              0.000
 Translational            0.889              2.981             42.944
 Rotational               0.889              2.981             34.313
 Vibrational            198.856             65.890             67.670
 Vibration     1          0.593              1.985              6.466
 Vibration     2          0.594              1.983              5.558
 Vibration     3          0.595              1.980              5.146
 Vibration     4          0.598              1.967              4.099
 Vibration     5          0.604              1.950              3.476
 Vibration     6          0.605              1.945              3.364
 Vibration     7          0.609              1.934              3.127
 Vibration     8          0.611              1.925              2.980
 Vibration     9          0.617              1.907              2.718
 Vibration    10          0.620              1.897              2.604
 Vibration    11          0.624              1.883              2.467
 Vibration    12          0.629              1.866              2.326
 Vibration    13          0.636              1.847              2.180
 Vibration    14          0.647              1.810              1.954
 Vibration    15          0.673              1.731              1.607
 Vibration    16          0.690              1.682              1.441
 Vibration    17          0.700              1.653              1.358
 Vibration    18          0.724              1.583              1.184
 Vibration    19          0.738              1.545              1.103
 Vibration    20          0.751              1.509              1.032
 Vibration    21          0.755              1.500              1.016
 Vibration    22          0.767              1.467              0.957
 Vibration    23          0.799              1.386              0.831
 Vibration    24          0.815              1.346              0.776
 Vibration    25          0.848              1.266              0.677
 Vibration    26          0.886              1.182              0.585
 Vibration    27          0.912              1.124              0.530
 Vibration    28          0.927              1.094              0.503
 Vibration    29          0.960              1.028              0.447

 Optimization completed.
    -- Stationary point found.
 Normal termination of Gaussian 16 at Sun Dec 13 14:03:32 2020.

 ----------------------------------------------------------------------
 # B3LYP/6-311++G(d,p) empiricaldispersion=gd3bj scf=xqc pop=npa geom=c
 heck
 ----------------------------------------------------------------------

 ----------------------------------------
 CID_115675232_JID_10987_Energie_neutraal
 ----------------------------------------
 Structure from the checkpoint file:  "JID_10987.chk"
 Charge =  0 Multiplicity = 1

 SCF Done:  E(RB3LYP) =  -1294.00350446     A.U. after   19 cycles
 Normal termination of Gaussian 16 at Sun Dec 13 14:12:08 2020.

 ----------------------------------------------------------------------
 # B3LYP/6-311++G(d,p) empiricaldispersion=gd3bj scf=xqc pop=npa geom=c
 heck
 ----------------------------------------------------------------------

 --------------------------------------
 CID_115675232_JID_10987_Energie_kation
 --------------------------------------
 Structure from the checkpoint file:  "JID_10987.chk"
 Charge =  1 Multiplicity = 2

 SCF Done:  E(UB3LYP) =  -1293.71792954     A.U. after   30 cycles
 Normal termination of Gaussian 16 at Sun Dec 13 14:30:27 2020.
 Gaussian 16:  ES64L-G16RevA.03 25-Dec-2016

 ----------------------------------------------------------------------
 # B3LYP/6-311++G(d,p) empiricaldispersion=gd3bj scf=xqc pop=npa geom=c
 heck
 ----------------------------------------------------------------------

 -------------------------------------
 CID_115675232_JID_10987_Energie_anion
 -------------------------------------
 Structure from the checkpoint file:  "JID_10987.chk"
 Charge = -1 Multiplicity = 2

                         Standard orientation:
 ---------------------------------------------------------------------
 Center     Atomic      Atomic             Coordinates (Angstroms)
 Number     Number       Type             X           Y           Z
 ---------------------------------------------------------------------
      1          6           0        4.934426   -1.931504   -0.924560
      2          7           0        5.227422   -0.564492   -0.517228
      3          6           0        4.337268    0.448239   -0.251340
      4          8           0        4.675393    1.624704   -0.339659
      5          6           0        2.953633    0.077193    0.184852
      6          6           0        1.923046    0.963816   -0.121251
      7          6           0        0.626606    0.727570    0.319936
      8          6           0        0.272774   -0.436916    1.041604
      9          6           0        1.344604   -1.291767    1.377611
     10          6           0        2.647204   -1.039770    0.976631
     11          7           0       -1.008697   -0.775652    1.441113
     12          6           0       -2.211297   -0.879571    0.570951
     13          6           0       -1.895838   -0.828940   -0.931458
     14          6           0       -3.122638   -1.165804   -1.793012
     15          6           0       -4.289152   -0.204933   -1.560097
     16         16           0       -4.894531   -0.253963    0.170106
     17          6           0       -3.297830    0.123107    0.984937
     18          7           0       -0.327508    1.814369    0.089377
     19          8           0       -1.056346    2.137722    1.026073
     20          8           0       -0.312007    2.368176   -1.011369
     21          1           0        3.876758   -2.034403   -1.174051
     22          1           0        5.179869   -2.661145   -0.142017
     23          1           0        5.517334   -2.180497   -1.817113
     24          1           0        6.133428   -0.195409   -0.778903
     25          1           0        2.143100    1.870485   -0.671533
     26          1           0        1.124139   -2.188263    1.951938
     27          1           0        3.432632   -1.722778    1.282397
     28          1           0       -0.982676   -1.543550    2.099160
     29          1           0       -2.618534   -1.879155    0.770645
     30          1           0       -1.535022    0.161640   -1.224253
     31          1           0       -1.088028   -1.537445   -1.148999
     32          1           0       -2.831588   -1.124651   -2.850987
     33          1           0       -3.454098   -2.191110   -1.587621
     34          1           0       -3.997946    0.823157   -1.806620
     35          1           0       -5.146538   -0.468465   -2.186292
     36          1           0       -3.474542    0.058911    2.061894
     37          1           0       -2.997468    1.147384    0.758635
 ---------------------------------------------------------------------

 SCF Done:  E(UB3LYP) =  -1294.04067812     A.U. after   23 cycles

 The electronic state is 2-A.
 Alpha  occ. eigenvalues --  -88.73470 -18.97544 -18.95133 -18.95061 -14.32286
 Alpha  occ. eigenvalues --  -14.23814 -14.20715 -10.16287 -10.12260 -10.10860
 Alpha  occ. eigenvalues --  -10.10191 -10.09392 -10.08020 -10.07894 -10.07381
 Alpha  occ. eigenvalues --  -10.06323 -10.05618 -10.05610 -10.05205 -10.05196
 Alpha  occ. eigenvalues --   -7.82109  -5.78484  -5.78149  -5.77491  -1.03206
 Alpha  occ. eigenvalues --   -0.92846  -0.86006  -0.82313  -0.82193  -0.74243
 Alpha  occ. eigenvalues --   -0.72581  -0.65986  -0.65225  -0.65099  -0.62367
 Alpha  occ. eigenvalues --   -0.61439  -0.54699  -0.53549  -0.52032  -0.50404
 Alpha  occ. eigenvalues --   -0.48209  -0.46060  -0.44310  -0.40940  -0.40269
 Alpha  occ. eigenvalues --   -0.39335  -0.38236  -0.37370  -0.36481  -0.35754
 Alpha  occ. eigenvalues --   -0.35152  -0.34460  -0.33573  -0.32703  -0.31936
 Alpha  occ. eigenvalues --   -0.31623  -0.31157  -0.30927  -0.30689  -0.29586
 Alpha  occ. eigenvalues --   -0.28831  -0.26775  -0.26103  -0.25657  -0.25001
 Alpha  occ. eigenvalues --   -0.24167  -0.23412  -0.22520  -0.20566  -0.18167
 Alpha  occ. eigenvalues --   -0.16194  -0.15082  -0.14490  -0.14368  -0.12610
 Alpha  occ. eigenvalues --   -0.12385  -0.10508  -0.09294   0.02484
 Alpha virt. eigenvalues --    0.05986   0.07079   0.07544   0.07990   0.08747
 Alpha virt. eigenvalues --    0.09019   0.09532   0.10100   0.10280   0.10871
 Alpha virt. eigenvalues --    0.11597   0.12007   0.12695   0.12818   0.13214

  Beta  occ. eigenvalues --  -88.73469 -18.97519 -18.94654 -18.94570 -14.31558
  Beta  occ. eigenvalues --  -14.23813 -14.20678 -10.16266 -10.12260 -10.10839
  Beta  occ. eigenvalues --  -10.10190 -10.09171 -10.08018 -10.07879 -10.07352
  Beta  occ. eigenvalues --  -10.06321 -10.05685 -10.05644 -10.05143 -10.04929
  Beta  occ. eigenvalues --   -7.82108  -5.78483  -5.78147  -5.77489  -1.02069
  Beta  occ. eigenvalues --   -0.92805  -0.85091  -0.82201  -0.82110  -0.74097
  Beta  occ. eigenvalues --   -0.72475  -0.65828  -0.65069  -0.64778  -0.62322
  Beta  occ. eigenvalues --   -0.61374  -0.53985  -0.53339  -0.51997  -0.50216
  Beta  occ. eigenvalues --   -0.48033  -0.45969  -0.44016  -0.40780  -0.40243
  Beta  occ. eigenvalues --   -0.39105  -0.37816  -0.37177  -0.36360  -0.35347
  Beta  occ. eigenvalues --   -0.34273  -0.33873  -0.32713  -0.32497  -0.31621
  Beta  occ. eigenvalues --   -0.31427  -0.31030  -0.30834  -0.30403  -0.29195
  Beta  occ. eigenvalues --   -0.28692  -0.26587  -0.26021  -0.25573  -0.24468
  Beta  occ. eigenvalues --   -0.24023  -0.23329  -0.22471  -0.20453  -0.17697
  Beta  occ. eigenvalues --   -0.16150  -0.14823  -0.13937  -0.12556  -0.12192
  Beta  occ. eigenvalues --   -0.10889  -0.10001  -0.08710
  Beta virt. eigenvalues --    0.05952   0.06978   0.07511   0.08151   0.08665
  Beta virt. eigenvalues --    0.08984   0.09356   0.09879   0.10082   0.10293
  Beta virt. eigenvalues --    0.11351   0.11720   0.12627   0.12729   0.13132

 Mulliken charges and spin densities:
               1          2
     1  C   -0.428001  -0.000008
     2  N   -0.237755   0.002297
     3  C   -0.125695  -0.006753
     4  O   -0.352380   0.009131
     5  C    0.358479  -0.021298
     6  C   -0.159768  -0.007658
     7  C    0.114050   0.005650
     8  C    0.301115   0.147171
     9  C   -0.319882  -0.036605
    10  C   -0.758736   0.249759
    11  N    0.071773   0.049156
    12  C    0.258590  -0.120484
    13  C   -0.681186   0.043220
    14  C   -0.293015  -0.059239
    15  C   -0.467216  -0.000815
    16  S   -0.136985   0.014409
    17  C   -0.395313   0.016973
    18  N   -0.424331   0.248569
    19  O   -0.065667   0.178426
    20  O   -0.114548   0.184225
    21  H    0.186771  -0.001070
    22  H    0.151855   0.002299
    23  H    0.110965  -0.001621
    24  H    0.297946   0.000589
    25  H    0.250391  -0.000895
    26  H    0.072305   0.018260
    27  H    0.109617  -0.003692
    28  H    0.254559   0.005084
    29  H    0.111385   0.006616
    30  H    0.092625   0.043087
    31  H    0.149047   0.007524
    32  H    0.143330   0.007735
    33  H    0.105883   0.000564
    34  H    0.185725   0.004457
    35  H    0.205652  -0.000891
    36  H    0.168082   0.008612
    37  H    0.260335   0.007214
 Sum of Mulliken charges =  -1.00000   1.00000

 Dipole moment (field-independent basis, Debye):
    X=              0.4330    Y=            -10.3255    Z=             -1.4896  Tot=             10.4414
 Quadrupole moment (field-independent basis, Debye-Ang):
   XX=           -175.6696   YY=           -154.8802   ZZ=           -134.9011
   XY=            -11.9450   XZ=              0.3636   YZ=              0.6257

 Summary of Natural Population Analysis:

                                       Natural Population
                Natural  -----------------------------------------------
    Atom  No    Charge         Core      Valence    Rydberg      Total
 -----------------------------------------------------------------------
      C    1   -0.18061      0.99966     2.17435    0.00660     3.18061
      N    2   -0.32467      0.99968     2.81625    0.00874     3.82467
      C    3    0.34132      0.99962     1.63711    0.02196     2.65868
      O    4   -0.32490      0.99988     3.31848    0.00654     4.32490
      C    5   -0.10337      0.99945     2.09385    0.01006     3.10337
      C    6   -0.05573      0.99949     2.04779    0.00845     3.05573
      C    7    0.03156      0.99937     1.95517    0.01390     2.96844
      C    8    0.13275      0.99945     1.85619    0.01161     2.86725
      C    9   -0.14176      0.99954     2.13368    0.00853     3.14176
      C   10   -0.03998      0.99954     2.03227    0.00817     3.03998
      N   11   -0.30415      0.99966     2.79219    0.01230     3.80415
      C   12   -0.00547      0.99955     1.99323    0.01269     3.00547
      C   13   -0.20622      0.99960     2.19774    0.00889     3.20622
      C   14   -0.19002      0.99963     2.18329    0.00710     3.19002
      C   15   -0.24983      0.99960     2.24156    0.00867     3.24983
      S   16    0.06809      4.99964     2.91300    0.01927     7.93191
      C   17   -0.25254      0.99955     2.24237    0.01062     3.25254
      N   18    0.31142      0.99971     2.15929    0.02958     3.18858
      O   19   -0.19187      0.99990     3.18379    0.00818     4.19187
      O   20   -0.19235      0.99990     3.18516    0.00730     4.19235
      H   21    0.10857      0.00000     0.39058    0.00085     0.39143
      H   22    0.08617      0.00000     0.41265    0.00118     0.41383
      H   23    0.08904      0.00000     0.41003    0.00094     0.41096
      H   24    0.18621      0.00000     0.31093    0.00286     0.31379
      H   25    0.12094      0.00000     0.37782    0.00124     0.37906
      H   26    0.09003      0.00000     0.40835    0.00162     0.40997
      H   27    0.09110      0.00000     0.40745    0.00145     0.40890
      H   28    0.17691      0.00000     0.32136    0.00173     0.32309
      H   29    0.08414      0.00000     0.41324    0.00263     0.41586
      H   30    0.11585      0.00000     0.38134    0.00281     0.38415
      H   31    0.10261      0.00000     0.39604    0.00135     0.39739
      H   32    0.09751      0.00000     0.40126    0.00124     0.40249
      H   33    0.09242      0.00000     0.40613    0.00145     0.40758
      H   34    0.10393      0.00000     0.39459    0.00148     0.39607
      H   35    0.10001      0.00000     0.39886    0.00112     0.39999
      H   36    0.10628      0.00000     0.39293    0.00079     0.39372
      H   37    0.12661      0.00000     0.37109    0.00230     0.37339
 =======================================================================
   * Total *   -0.00000     23.99241    53.75141    0.25619    78.00000

 Normal termination of Gaussian 16 at Sun Dec 13 14:44:27 2020.
