 Gaussian 16, Revision A.03,

 -----------------------------------------------------------
 # opt freq B3LYP/6-31G(d) empiricaldispersion=gd3bj scf=xqc
 -----------------------------------------------------------

 -------------------------------
 CID_143954500_JID_1872_neutraal
 -------------------------------
 Symbolic Z-matrix:
 Charge =  0 Multiplicity = 1

 SCF Done:  E(RB3LYP) =  -495.573532747     A.U. after   15 cycles
 SCF Done:  E(RB3LYP) =  -495.581617928     A.U. after   14 cycles
 SCF Done:  E(RB3LYP) =  -495.580211495     A.U. after   14 cycles
 SCF Done:  E(RB3LYP) =  -495.583767803     A.U. after   13 cycles
 SCF Done:  E(RB3LYP) =  -495.584749326     A.U. after   12 cycles
 SCF Done:  E(RB3LYP) =  -495.585238194     A.U. after   14 cycles
 SCF Done:  E(RB3LYP) =  -495.586125033     A.U. after   13 cycles
 SCF Done:  E(RB3LYP) =  -495.586239353     A.U. after   11 cycles
 SCF Done:  E(RB3LYP) =  -495.586265623     A.U. after   12 cycles
 SCF Done:  E(RB3LYP) =  -495.586273599     A.U. after    9 cycles
 SCF Done:  E(RB3LYP) =  -495.586280835     A.U. after    8 cycles
 SCF Done:  E(RB3LYP) =  -495.586282070     A.U. after    8 cycles
 SCF Done:  E(RB3LYP) =  -495.586283217     A.U. after    8 cycles
 SCF Done:  E(RB3LYP) =  -495.586283868     A.U. after    8 cycles
 SCF Done:  E(RB3LYP) =  -495.586283946     A.U. after    7 cycles
 Optimization completed.
    -- Stationary point found.
 Normal termination of Gaussian 16 at Tue Dec  8 21:24:37 2020.

 --------------------------------------------------------------------
 #N Geom=AllCheck Guess=TCheck SCRF=Check GenChk RB3LYP/6-31G(d) Freq
 --------------------------------------------------------------------

 Structure from the checkpoint file:  "JID_1872.chk"
 -------------------------------
 CID_143954500_JID_1872_neutraal
 -------------------------------
 Charge =  0 Multiplicity = 1

 SCF Done:  E(RB3LYP) =  -495.586283946     A.U. after    1 cycles

  Exact polarizability: 145.738  -3.280  93.972  -0.494   6.540  60.775
 Approx polarizability: 209.178   2.932 153.688  -0.305  13.784  92.005

                      1                      2                      3
                      A                      A                      A
 Frequencies --     54.5652               104.1521               115.0005
 Red. masses --      3.6293                 3.8899                 1.8353
 Frc consts  --      0.0064                 0.0249                 0.0143
 IR Inten    --      0.0494                 3.6277                 1.0540

                      4                      5                      6
                      A                      A                      A
 Frequencies --    147.0709               164.3441               199.0742
 Red. masses --      2.5256                 2.2635                 1.9357
 Frc consts  --      0.0322                 0.0360                 0.0452
 IR Inten    --      1.8256                 2.5536                 3.5315

                      7                      8                      9
                      A                      A                      A
 Frequencies --    223.0528               241.6924               254.3656
 Red. masses --      1.7419                 2.0931                 2.5988
 Frc consts  --      0.0511                 0.0720                 0.0991
 IR Inten    --      2.6738                 1.7530                 0.6616

                     10                     11                     12
                      A                      A                      A
 Frequencies --    344.4704               372.1909               456.7871
 Red. masses --      3.4436                 3.8017                 4.0115
 Frc consts  --      0.2407                 0.3103                 0.4932
 IR Inten    --      2.9689                 1.1123                 2.5104

                     13                     14                     15
                      A                      A                      A
 Frequencies --    508.0393               547.6496               645.9986
 Red. masses --      2.8303                 3.7509                 4.0124
 Frc consts  --      0.4304                 0.6628                 0.9866
 IR Inten    --      2.9601                 3.3692                 3.4541

                     16                     17                     18
                      A                      A                      A
 Frequencies --    682.5650               700.5842               755.8426
 Red. masses --      5.2701                 4.3367                 1.6545
 Frc consts  --      1.4466                 1.2541                 0.5569
 IR Inten    --      3.1263                21.7767                37.3036

                     19                     20                     21
                      A                      A                      A
 Frequencies --    792.3925               809.1781               845.8614
 Red. masses --      3.3946                 1.3327                 4.4745
 Frc consts  --      1.2558                 0.5141                 1.8862
 IR Inten    --     13.2720                21.8679                45.2027

                     22                     23                     24
                      A                      A                      A
 Frequencies --    950.7735               973.7525              1011.9689
 Red. masses --      2.1696                 1.1806                 1.5942
 Frc consts  --      1.1555                 0.6595                 0.9619
 IR Inten    --     12.1885                 1.7122                 8.6719

                     25                     26                     27
                      A                      A                      A
 Frequencies --   1022.2907              1056.7517              1076.6063
 Red. masses --      1.8013                 4.5185                 1.4900
 Frc consts  --      1.1091                 2.9730                 1.0175
 IR Inten    --      0.0514                36.3559                 1.1955

                     28                     29                     30
                      A                      A                      A
 Frequencies --   1081.7392              1109.1371              1154.9851
 Red. masses --      1.4548                 1.8455                 1.5955
 Frc consts  --      1.0030                 1.3376                 1.2540
 IR Inten    --      2.4838                 5.2612                34.4795

                     31                     32                     33
                      A                      A                      A
 Frequencies --   1202.7605              1265.1388              1282.8829
 Red. masses --      2.9465                 5.1206                 1.4435
 Frc consts  --      2.5114                 4.8289                 1.3998
 IR Inten    --      3.1304                11.7913                 0.8443

                     34                     35                     36
                      A                      A                      A
 Frequencies --   1396.8197              1418.2793              1435.7247
 Red. masses --      2.1973                 1.3172                 2.3731
 Frc consts  --      2.5259                 1.5611                 2.8820
 IR Inten    --     57.0761                40.2426                69.4460

                     37                     38                     39
                      A                      A                      A
 Frequencies --   1447.5814              1452.1380              1481.9811
 Red. masses --      1.3381                 1.4037                 3.3484
 Frc consts  --      1.6520                 1.7439                 4.3329
 IR Inten    --      4.8210                22.3227                40.3202

                     40                     41                     42
                      A                      A                      A
 Frequencies --   1491.1058              1506.4536              1513.4197
 Red. masses --      2.9367                 1.0615                 1.1245
 Frc consts  --      3.8470                 1.4193                 1.5176
 IR Inten    --     12.3656                 3.8717                 3.9994

                     43                     44                     45
                      A                      A                      A
 Frequencies --   1522.7444              1534.9264              1601.8451
 Red. masses --      1.0688                 1.1364                 5.9314
 Frc consts  --      1.4602                 1.5775                 8.9670
 IR Inten    --     15.1156                 3.0729                 0.6212

                     46                     47                     48
                      A                      A                      A
 Frequencies --   1750.2360              1810.5320              2898.1980
 Red. masses --      6.3717                 9.8504                 1.0829
 Frc consts  --     11.5001                19.0247                 5.3591
 IR Inten    --     11.3429               257.9624               159.8397

                     49                     50                     51
                      A                      A                      A
 Frequencies --   3044.4193              3060.5866              3095.6686
 Red. masses --      1.0406                 1.0380                 1.0975
 Frc consts  --      5.6825                 5.7285                 6.1969
 IR Inten    --     15.0803                22.1983                16.5889

                     52                     53                     54
                      A                      A                      A
 Frequencies --   3118.1904              3143.7814              3144.2328
 Red. masses --      1.0987                 1.0995                 1.1023
 Frc consts  --      6.2942                 6.4028                 6.4205
 IR Inten    --     11.3766                10.9553                 5.8406

                     55                     56                     57
                      A                      A                      A
 Frequencies --   3179.6852              3223.4315              3268.7569
 Red. masses --      1.0876                 1.0945                 1.0972
 Frc consts  --      6.4787                 6.7002                 6.9069
 IR Inten    --     10.5180                15.1866                 1.1815

 - Thermochemistry -
 -------------------
 Temperature   298.150 Kelvin.  Pressure   1.00000 Atm.
 Atom     1 has atomic number  6 and mass  12.00000

 Molecular mass:   150.07931 amu.
 Principal axes and moments of inertia in atomic units:
                           1         2         3
     Eigenvalues --   796.404562667.737073153.73992
           X            0.99989  -0.01313   0.00753
           Y            0.01310   0.99990   0.00481
           Z           -0.00759  -0.00471   0.99996
 This molecule is an asymmetric top.
 Rotational symmetry number  1.
 Warning -- assumption of classical behavior for rotation
           may cause significant error
 Rotational temperatures (Kelvin)      0.10876     0.03247     0.02746
 Rotational constants (GHZ):           2.26611     0.67651     0.57225
 Zero-point vibrational energy     446771.7 (Joules/Mol)
                                  106.78101 (Kcal/Mol)
 Warning -- explicit consideration of  14 degrees of freedom as
           vibrations may cause significant error
 Vibrational temperatures:     78.51   149.85   165.46   211.60   236.45
          (Kelvin)            286.42   320.92   347.74   365.98   495.62
                              535.50   657.21   730.96   787.95   929.45
                              982.06  1007.98  1087.49  1140.08  1164.23
                             1217.01  1367.95  1401.01  1456.00  1470.85
                             1520.43  1549.00  1556.38  1595.80  1661.77
                             1730.50  1820.25  1845.78  2009.71  2040.59
                             2065.69  2082.75  2089.30  2132.24  2145.37
                             2167.45  2177.47  2190.89  2208.42  2304.70
                             2518.20  2604.95  4169.86  4380.24  4403.50
                             4453.98  4486.38  4523.20  4523.85  4574.86
                             4637.80  4703.01

 Zero-point correction=                           0.170166 (Hartree/Particle)
 Thermal correction to Energy=                    0.181038
 Thermal correction to Enthalpy=                  0.181982
 Thermal correction to Gibbs Free Energy=         0.133407
 Sum of electronic and zero-point Energies=           -495.416118
 Sum of electronic and thermal Energies=              -495.405246
 Sum of electronic and thermal Enthalpies=            -495.404302
 Sum of electronic and thermal Free Energies=         -495.452877

                     E (Thermal)             CV                S
                      KCal/Mol        Cal/Mol-Kelvin    Cal/Mol-Kelvin
 Total                  113.603             39.393            102.234
 Electronic               0.000              0.000              0.000
 Translational            0.889              2.981             40.928
 Rotational               0.889              2.981             30.284
 Vibrational            111.825             33.432             31.022
 Vibration     1          0.596              1.976              4.645
 Vibration     2          0.605              1.946              3.375
 Vibration     3          0.608              1.937              3.183
 Vibration     4          0.617              1.906              2.710
 Vibration     5          0.623              1.886              2.499
 Vibration     6          0.637              1.841              2.142
 Vibration     7          0.649              1.806              1.934
 Vibration     8          0.658              1.776              1.790
 Vibration     9          0.665              1.755              1.700
 Vibration    10          0.723              1.587              1.191
 Vibration    11          0.744              1.529              1.071
 Vibration    12          0.815              1.346              0.776
 Vibration    13          0.863              1.232              0.638
 Vibration    14          0.903              1.145              0.549

 Optimization completed.
    -- Stationary point found.
 Normal termination of Gaussian 16 at Tue Dec  8 21:28:46 2020.

 ----------------------------------------------------------------------
 # B3LYP/6-311++G(d,p) empiricaldispersion=gd3bj scf=xqc pop=npa geom=c
 heck
 ----------------------------------------------------------------------

 ---------------------------------------
 CID_143954500_JID_1872_Energie_neutraal
 ---------------------------------------
 Structure from the checkpoint file:  "JID_1872.chk"
 Charge =  0 Multiplicity = 1

 SCF Done:  E(RB3LYP) =  -495.723637773     A.U. after   15 cycles
 Normal termination of Gaussian 16 at Tue Dec  8 21:31:19 2020.

 ----------------------------------------------------------------------
 # B3LYP/6-311++G(d,p) empiricaldispersion=gd3bj scf=xqc pop=npa geom=c
 heck
 ----------------------------------------------------------------------

 -------------------------------------
 CID_143954500_JID_1872_Energie_kation
 -------------------------------------
 Structure from the checkpoint file:  "JID_1872.chk"
 Charge =  1 Multiplicity = 2

 SCF Done:  E(UB3LYP) =  -495.398771901     A.U. after   31 cycles
 Normal termination of Gaussian 16 at Tue Dec  8 21:38:40 2020.
 Gaussian 16:  ES64L-G16RevA.03 25-Dec-2016

 ----------------------------------------------------------------------
 # B3LYP/6-311++G(d,p) empiricaldispersion=gd3bj scf=xqc pop=npa geom=c
 heck
 ----------------------------------------------------------------------

 ------------------------------------
 CID_143954500_JID_1872_Energie_anion
 ------------------------------------
 Structure from the checkpoint file:  "JID_1872.chk"
 Charge = -1 Multiplicity = 2

                         Standard orientation:
 ---------------------------------------------------------------------
 Center     Atomic      Atomic             Coordinates (Angstroms)
 Number     Number       Type             X           Y           Z
 ---------------------------------------------------------------------
      1          6           0        2.971452   -0.581255    1.145117
      2          6           0        2.593815   -1.204967   -0.163508
      3          6           0        1.431218   -1.091245   -0.809394
      4          7           0        0.354410   -0.264851   -0.391405
      5          6           0        0.349242    1.098842   -0.168092
      6          6           0       -0.958725    1.413679    0.137347
      7          6           0       -1.672971    0.191391    0.058119
      8          7           0       -0.867090   -0.824043   -0.277414
      9          6           0       -3.113484    0.006430    0.290389
     10          8           0       -3.715008   -1.045655    0.213379
     11          6           0        1.551994    1.971119   -0.322239
     12          1           0        2.110248   -0.134052    1.647687
     13          1           0        3.738252    0.193876    1.016512
     14          1           0        3.399155   -1.341761    1.808938
     15          1           0        3.334385   -1.854269   -0.626217
     16          1           0        1.209410   -1.662488   -1.704319
     17          1           0       -1.350530    2.394729    0.366545
     18          1           0       -3.640440    0.950853    0.555932
     19          1           0        2.132594    2.047774    0.603913
     20          1           0        2.220921    1.588049   -1.098781
     21          1           0        1.239585    2.980820   -0.601946
 ---------------------------------------------------------------------

 SCF Done:  E(UB3LYP) =  -495.726913669     A.U. after   33 cycles
 SCF Done:  E(UB3LYP) =  -495.726913669     a.u. after    1 cycles

 The electronic state is 2-A.
 Alpha  occ. eigenvalues --  -18.93520 -14.25461 -14.17331 -10.08416 -10.08391
 Alpha  occ. eigenvalues --  -10.07507 -10.06970 -10.06204 -10.05996 -10.04289
 Alpha  occ. eigenvalues --  -10.03517  -0.91480  -0.87024  -0.72254  -0.68145
 Alpha  occ. eigenvalues --   -0.65396  -0.59232  -0.57824  -0.51511  -0.47993
 Alpha  occ. eigenvalues --   -0.42130  -0.39034  -0.38180  -0.36468  -0.32609
 Alpha  occ. eigenvalues --   -0.32463  -0.31074  -0.30005  -0.29334  -0.29127
 Alpha  occ. eigenvalues --   -0.28323  -0.26532  -0.25378  -0.24867  -0.23053
 Alpha  occ. eigenvalues --   -0.16543  -0.15044  -0.11709  -0.11296  -0.09283
 Alpha  occ. eigenvalues --    0.04677
 Alpha virt. eigenvalues --    0.06739   0.08093   0.09043   0.09724   0.10881
 Alpha virt. eigenvalues --    0.11089   0.11622   0.11916   0.13066   0.13313
 Alpha virt. eigenvalues --    0.14518   0.15366   0.16218   0.16767   0.17200

  Beta  occ. eigenvalues --  -18.93078 -14.25354 -14.16889 -10.08386 -10.08385
  Beta  occ. eigenvalues --  -10.07252 -10.06964 -10.06188 -10.05875 -10.04283
  Beta  occ. eigenvalues --  -10.03527  -0.91103  -0.86224  -0.71924  -0.67980
  Beta  occ. eigenvalues --   -0.65191  -0.59057  -0.57666  -0.50888  -0.47862
  Beta  occ. eigenvalues --   -0.41780  -0.38810  -0.37979  -0.36265  -0.32536
  Beta  occ. eigenvalues --   -0.32297  -0.30922  -0.29882  -0.29082  -0.28706
  Beta  occ. eigenvalues --   -0.28068  -0.26187  -0.25137  -0.24683  -0.21073
  Beta  occ. eigenvalues --   -0.15955  -0.14507  -0.10925  -0.10017  -0.08898
  Beta virt. eigenvalues --    0.07040   0.08300   0.09323   0.09690   0.10244
  Beta virt. eigenvalues --    0.11070   0.11378   0.11898   0.12739   0.13281
  Beta virt. eigenvalues --    0.13286   0.14580   0.15635   0.16206   0.16794

 Mulliken charges and spin densities:
               1          2
     1  C    0.469709  -1.192954
     2  C   -0.072343   0.334182
     3  C   -0.224861  -0.086695
     4  N    0.407282   0.048238
     5  C   -0.490298   0.403906
     6  C   -0.153179  -0.023709
     7  C    0.280752   0.020471
     8  N   -0.291697   0.228833
     9  C   -0.551196   0.239148
    10  O   -0.357595   0.145001
    11  C    0.096341  -0.611045
    12  H    0.103345   0.069553
    13  H   -0.033899   0.167591
    14  H   -0.141632   0.288386
    15  H   -0.520181   0.678945
    16  H    0.082196   0.093468
    17  H    0.121901   0.025070
    18  H    0.011444  -0.015836
    19  H    0.055599   0.092331
    20  H    0.082260   0.081688
    21  H    0.126053   0.013426
 Sum of Mulliken charges =  -1.00000   1.00000

 Dipole moment (field-independent basis, Debye):
    X=              3.5616    Y=              5.3329    Z=             -0.1089  Tot=              6.4138
 Quadrupole moment (field-independent basis, Debye-Ang):
   XX=           -129.1431   YY=            -84.4963   ZZ=            -78.6913
   XY=             -4.9669   XZ=              0.8503   YZ=              0.0308

 Summary of Natural Population Analysis:

                                       Natural Population
                Natural  -----------------------------------------------
    Atom  No    Charge         Core      Valence    Rydberg      Total
 -----------------------------------------------------------------------
      C    1   -0.30962      0.99965     2.30218    0.00779     3.30962
      C    2   -0.07841      0.99955     2.06916    0.00970     3.07841
      C    3    0.00388      0.99948     1.98301    0.01362     2.99612
      N    4   -0.10548      0.99961     2.59320    0.01267     3.60548
      C    5    0.07073      0.99954     1.91978    0.00996     2.92927
      C    6   -0.15825      0.99946     2.14968    0.00912     3.15825
      C    7    0.01425      0.99957     1.97222    0.01396     2.98575
      N    8   -0.06781      0.99970     2.55630    0.01180     3.56781
      C    9    0.22925      0.99969     1.75038    0.02068     2.77075
      O   10   -0.24246      0.99988     3.23472    0.00786     4.24246
      C   11   -0.30131      0.99963     2.29710    0.00457     3.30131
      H   12    0.10540      0.00000     0.39351    0.00110     0.39460
      H   13    0.10128      0.00000     0.39769    0.00103     0.39872
      H   14    0.10437      0.00000     0.39450    0.00113     0.39563
      H   15    0.09483      0.00000     0.40350    0.00167     0.40517
      H   16    0.09956      0.00000     0.39911    0.00133     0.40044
      H   17    0.10094      0.00000     0.39788    0.00118     0.39906
      H   18    0.02736      0.00000     0.46975    0.00289     0.47264
      H   19    0.10116      0.00000     0.39731    0.00153     0.39884
      H   20    0.10818      0.00000     0.39068    0.00114     0.39182
      H   21    0.10214      0.00000     0.39698    0.00087     0.39786
 =======================================================================
   * Total *   -0.00000     10.99577    28.86864    0.13559    40.00000

 Normal termination of Gaussian 16 at Tue Dec  8 21:45:52 2020.
