 Gaussian 16, Revision A.03,

 -----------------------------------------------------------
 # opt freq B3LYP/6-31G(d) empiricaldispersion=gd3bj scf=xqc
 -----------------------------------------------------------

 ------------------------------
 CID_68149975_JID_5494_neutraal
 ------------------------------
 Symbolic Z-matrix:
 Charge =  0 Multiplicity = 1

 SCF Done:  E(RB3LYP) =  -695.063809770     A.U. after   15 cycles
 SCF Done:  E(RB3LYP) =  -695.069902212     A.U. after   13 cycles
 SCF Done:  E(RB3LYP) =  -695.069970985     A.U. after   13 cycles
 SCF Done:  E(RB3LYP) =  -695.070492932     A.U. after   13 cycles
 SCF Done:  E(RB3LYP) =  -695.070985350     A.U. after   12 cycles
 SCF Done:  E(RB3LYP) =  -695.071157440     A.U. after   12 cycles
 SCF Done:  E(RB3LYP) =  -695.071303384     A.U. after   12 cycles
 SCF Done:  E(RB3LYP) =  -695.071469672     A.U. after   12 cycles
 SCF Done:  E(RB3LYP) =  -695.071543231     A.U. after   14 cycles
 SCF Done:  E(RB3LYP) =  -695.071818939     A.U. after   12 cycles
 SCF Done:  E(RB3LYP) =  -695.071928627     A.U. after   12 cycles
 SCF Done:  E(RB3LYP) =  -695.071961496     A.U. after   12 cycles
 SCF Done:  E(RB3LYP) =  -695.071960512     A.U. after    9 cycles
 SCF Done:  E(RB3LYP) =  -695.071962837     A.U. after   10 cycles
 SCF Done:  E(RB3LYP) =  -695.071962911     A.U. after    7 cycles
 Optimization completed.
    -- Stationary point found.
 Normal termination of Gaussian 16 at Thu Dec 10 16:26:04 2020.

 --------------------------------------------------------------------
 #N Geom=AllCheck Guess=TCheck SCRF=Check GenChk RB3LYP/6-31G(d) Freq
 --------------------------------------------------------------------

 Structure from the checkpoint file:  "JID_5494.chk"
 ------------------------------
 CID_68149975_JID_5494_neutraal
 ------------------------------
 Charge =  0 Multiplicity = 1

 SCF Done:  E(RB3LYP) =  -695.071962911     A.U. after    1 cycles

  Exact polarizability: 146.152  -5.307 129.543   3.178  -1.070 111.590
 Approx polarizability: 182.284  -6.137 182.244   4.720  -6.460 176.577

                      1                      2                      3
                      A                      A                      A
 Frequencies --     21.6097                29.9418                45.9517
 Red. masses --      4.3170                 3.2913                 6.1699
 Frc consts  --      0.0012                 0.0017                 0.0077
 IR Inten    --      1.4683                 0.1631                 1.3777

                      4                      5                      6
                      A                      A                      A
 Frequencies --     54.7070                60.6053                82.1811
 Red. masses --      3.3396                 3.7042                 4.1543
 Frc consts  --      0.0059                 0.0080                 0.0165
 IR Inten    --      1.6497                 0.3868                 2.2383

                      7                      8                      9
                      A                      A                      A
 Frequencies --    105.0275               138.4396               170.3609
 Red. masses --      2.6222                 3.9096                 2.1387
 Frc consts  --      0.0170                 0.0441                 0.0366
 IR Inten    --      0.8291                 1.0170                 2.5831

                     10                     11                     12
                      A                      A                      A
 Frequencies --    204.8602               241.7992               255.4125
 Red. masses --      1.6452                 3.4861                 4.1544
 Frc consts  --      0.0407                 0.1201                 0.1597
 IR Inten    --      0.4393                 6.4530                 0.5759

                     13                     14                     15
                      A                      A                      A
 Frequencies --    271.2273               298.2166               340.9676
 Red. masses --      2.0179                 1.8284                 2.6448
 Frc consts  --      0.0875                 0.0958                 0.1812
 IR Inten    --      2.0366                 2.6928                 3.1365

                     16                     17                     18
                      A                      A                      A
 Frequencies --    376.9196               420.8064               431.8293
 Red. masses --      2.4122                 2.4745                 2.0648
 Frc consts  --      0.2019                 0.2582                 0.2269
 IR Inten    --      3.6117                 2.5881                 1.1805

                     19                     20                     21
                      A                      A                      A
 Frequencies --    490.0773               519.5185               525.9013
 Red. masses --      3.0930                 2.4420                 2.3735
 Frc consts  --      0.4377                 0.3883                 0.3868
 IR Inten    --     13.1411                 0.2853                 6.2271

                     22                     23                     24
                      A                      A                      A
 Frequencies --    603.9575               627.4072               644.3346
 Red. masses --      3.4539                 3.0647                 4.9408
 Frc consts  --      0.7423                 0.7108                 1.2086
 IR Inten    --      1.0889                 5.7323                 2.1816

                     25                     26                     27
                      A                      A                      A
 Frequencies --    720.2811               738.5488               778.2987
 Red. masses --      1.6925                 1.5724                 2.4554
 Frc consts  --      0.5174                 0.5053                 0.8763
 IR Inten    --      1.0524                11.9405                 4.6374

                     28                     29                     30
                      A                      A                      A
 Frequencies --    819.4039               829.1394               832.8856
 Red. masses --      3.1087                 2.1012                 1.8226
 Frc consts  --      1.2298                 0.8511                 0.7449
 IR Inten    --      1.5547                 5.7663                 3.8218

                     31                     32                     33
                      A                      A                      A
 Frequencies --    846.8354               867.2946               900.8275
 Red. masses --      2.1223                 2.2298                 2.2495
 Frc consts  --      0.8967                 0.9882                 1.0755
 IR Inten    --      7.2510                 6.9218                 3.0231

                     34                     35                     36
                      A                      A                      A
 Frequencies --    914.4374               933.2770               962.3693
 Red. masses --      1.9746                 2.1529                 2.0842
 Frc consts  --      0.9728                 1.1048                 1.1373
 IR Inten    --      2.6458                 9.9969                 4.5841

                     37                     38                     39
                      A                      A                      A
 Frequencies --    968.9855               995.4020              1019.0475
 Red. masses --      1.8117                 1.8851                 2.0070
 Frc consts  --      1.0022                 1.1005                 1.2279
 IR Inten    --     12.1243                 4.3941                10.2154

                     40                     41                     42
                      A                      A                      A
 Frequencies --   1034.9231              1048.4493              1054.0457
 Red. masses --      1.6071                 1.7325                 1.8762
 Frc consts  --      1.0141                 1.1221                 1.2281
 IR Inten    --      0.2319                31.6871                 6.1179

                     43                     44                     45
                      A                      A                      A
 Frequencies --   1080.2233              1100.7451              1125.0795
 Red. masses --      2.0026                 1.9653                 1.7266
 Frc consts  --      1.3768                 1.4030                 1.2877
 IR Inten    --      8.4106                 8.8458                92.8257

                     46                     47                     48
                      A                      A                      A
 Frequencies --   1143.5117              1164.9365              1175.0837
 Red. masses --      1.9930                 2.8714                 1.9051
 Frc consts  --      1.5354                 2.2959                 1.5499
 IR Inten    --      2.1404               111.5971                34.2136

                     49                     50                     51
                      A                      A                      A
 Frequencies --   1187.5843              1198.7143              1217.9613
 Red. masses --      1.8786                 1.5764                 1.2951
 Frc consts  --      1.5610                 1.3346                 1.1320
 IR Inten    --     66.4163                 3.2532                 8.5401

                     52                     53                     54
                      A                      A                      A
 Frequencies --   1252.8468              1270.0762              1286.6428
 Red. masses --      1.7160                 1.2913                 1.3963
 Frc consts  --      1.5869                 1.2272                 1.3619
 IR Inten    --    127.2895                 0.8516                39.5956

                     55                     56                     57
                      A                      A                      A
 Frequencies --   1294.1829              1310.7355              1328.9721
 Red. masses --      1.5680                 1.2311                 1.3531
 Frc consts  --      1.5473                 1.2462                 1.4080
 IR Inten    --     14.3225                 0.4337                 0.9778

                     58                     59                     60
                      A                      A                      A
 Frequencies --   1346.5906              1349.2420              1365.6388
 Red. masses --      1.2196                 1.2010                 1.3651
 Frc consts  --      1.3029                 1.2881                 1.5000
 IR Inten    --      1.0049                 2.8371                 1.8236

                     61                     62                     63
                      A                      A                      A
 Frequencies --   1369.6778              1381.3090              1385.7771
 Red. masses --      1.5304                 1.4930                 1.3645
 Frc consts  --      1.6916                 1.6784                 1.5439
 IR Inten    --      9.4405                15.6635                11.0449

                     64                     65                     66
                      A                      A                      A
 Frequencies --   1399.7356              1417.8423              1424.4373
 Red. masses --      1.4985                 1.3888                 1.4227
 Frc consts  --      1.7299                 1.6450                 1.7008
 IR Inten    --     27.8601                 2.1343                 4.0132

                     67                     68                     69
                      A                      A                      A
 Frequencies --   1443.4579              1478.3308              1505.2545
 Red. masses --      1.2724                 1.0854                 1.0882
 Frc consts  --      1.5620                 1.3975                 1.4528
 IR Inten    --      3.2140                11.0431                 2.8835

                     70                     71                     72
                      A                      A                      A
 Frequencies --   1506.6457              1514.9674              1523.4232
 Red. masses --      1.0901                 1.0992                 1.0616
 Frc consts  --      1.4579                 1.4864                 1.4516
 IR Inten    --      4.4876                 8.7760                 3.9915

                     73                     74                     75
                      A                      A                      A
 Frequencies --   1528.8220              1532.2022              1533.7885
 Red. masses --      1.0592                 1.0974                 1.0787
 Frc consts  --      1.4586                 1.5179                 1.4952
 IR Inten    --      6.9599                 4.6586                 2.9307

                     76                     77                     78
                      A                      A                      A
 Frequencies --   1537.9312              1545.9265              1830.5585
 Red. masses --      1.0757                 1.0768                11.6300
 Frc consts  --      1.4990                 1.5162                22.9613
 IR Inten    --      7.5268                 5.4544               192.6998

                     79                     80                     81
                      A                      A                      A
 Frequencies --   1852.4084              3030.3553              3037.1604
 Red. masses --     12.4496                 1.0621                 1.0678
 Frc consts  --     25.1699                 5.7463                 5.8035
 IR Inten    --    181.1963                26.8892                19.8462

                     82                     83                     84
                      A                      A                      A
 Frequencies --   3038.3580              3043.9219              3049.9411
 Red. masses --      1.0703                 1.0399                 1.0636
 Frc consts  --      5.8216                 5.6770                 5.8292
 IR Inten    --      6.9225                16.9251                12.7859

                     85                     86                     87
                      A                      A                      A
 Frequencies --   3057.4626              3058.2267              3061.9760
 Red. masses --      1.0624                 1.0693                 1.0941
 Frc consts  --      5.8513                 5.8921                 6.0437
 IR Inten    --     27.6634                15.2213                44.3229

                     88                     89                     90
                      A                      A                      A
 Frequencies --   3072.6913              3079.8083              3082.0932
 Red. masses --      1.0626                 1.0919                 1.0670
 Frc consts  --      5.9107                 6.1022                 5.9716
 IR Inten    --     25.2554                16.5557                14.4292

                     91                     92                     93
                      A                      A                      A
 Frequencies --   3090.6659              3100.5963              3109.0096
 Red. masses --      1.0997                 1.1019                 1.1019
 Frc consts  --      6.1894                 6.2414                 6.2750
 IR Inten    --     42.3056                45.0616                48.5266

                     94                     95                     96
                      A                      A                      A
 Frequencies --   3115.3271              3122.9807              3129.4146
 Red. masses --      1.1019                 1.0982                 1.0951
 Frc consts  --      6.3009                 6.3103                 6.3190
 IR Inten    --     46.7607                21.0840                15.1576

                     97                     98                     99
                      A                      A                      A
 Frequencies --   3132.2689              3138.0434              3142.1359
 Red. masses --      1.1002                 1.1030                 1.0857
 Frc consts  --      6.3599                 6.3996                 6.3156
 IR Inten    --     17.9949                20.8692                14.7301

 - Thermochemistry -
 -------------------
 Temperature   298.150 Kelvin.  Pressure   1.00000 Atm.
 Atom     1 has atomic number  6 and mass  12.00000

 Molecular mass:   212.14124 amu.
 Principal axes and moments of inertia in atomic units:
                           1         2         3
     Eigenvalues --  2130.987064883.132455863.41607
           X            0.99997   0.00308   0.00642
           Y           -0.00302   0.99994  -0.01013
           Z           -0.00645   0.01011   0.99993
 This molecule is an asymmetric top.
 Rotational symmetry number  1.
 Warning -- assumption of classical behavior for rotation
           may cause significant error
 Rotational temperatures (Kelvin)      0.04064     0.01774     0.01477
 Rotational constants (GHZ):           0.84690     0.36959     0.30780
 Zero-point vibrational energy     812445.1 (Joules/Mol)
                                  194.17904 (Kcal/Mol)
 Warning -- explicit consideration of  22 degrees of freedom as
           vibrations may cause significant error
 Vibrational temperatures:     31.09    43.08    66.11    78.71    87.20
          (Kelvin)            118.24   151.11   199.18   245.11   294.75
                              347.90   367.48   390.24   429.07   490.58
                              542.30   605.45   621.31   705.11   747.47
                              756.65   868.96   902.70   927.05  1036.32
                             1062.61  1119.80  1178.94  1192.95  1198.34
                             1218.41  1247.84  1296.09  1315.67  1342.78
                             1384.63  1394.15  1432.16  1466.18  1489.02
                             1508.48  1516.54  1554.20  1583.73  1618.74
                             1645.26  1676.08  1690.68  1708.67  1724.68
                             1752.37  1802.57  1827.36  1851.19  1862.04
                             1885.86  1912.09  1937.44  1941.26  1964.85
                             1970.66  1987.40  1993.82  2013.91  2039.96
                             2049.45  2076.81  2126.99  2165.73  2167.73
                             2179.70  2191.87  2199.63  2204.50  2206.78
                             2212.74  2224.24  2633.77  2665.20  4360.01
                             4369.80  4371.52  4379.52  4388.18  4399.01
                             4400.11  4405.50  4420.92  4431.16  4434.44
                             4446.78  4461.07  4473.17  4482.26  4493.27
                             4502.53  4506.64  4514.94  4520.83

 Zero-point correction=                           0.309444 (Hartree/Particle)
 Thermal correction to Energy=                    0.325477
 Thermal correction to Enthalpy=                  0.326421
 Thermal correction to Gibbs Free Energy=         0.263423
 Sum of electronic and zero-point Energies=           -694.762519
 Sum of electronic and thermal Energies=              -694.746486
 Sum of electronic and thermal Enthalpies=            -694.745542
 Sum of electronic and thermal Free Energies=         -694.808540

                     E (Thermal)             CV                S
                      KCal/Mol        Cal/Mol-Kelvin    Cal/Mol-Kelvin
 Total                  204.240             58.962            132.589
 Electronic               0.000              0.000              0.000
 Translational            0.889              2.981             41.960
 Rotational               0.889              2.981             32.478
 Vibrational            202.462             53.001             58.151
 Vibration     1          0.593              1.985              6.480
 Vibration     2          0.594              1.984              5.833
 Vibration     3          0.595              1.979              4.984
 Vibration     4          0.596              1.976              4.640
 Vibration     5          0.597              1.973              4.437
 Vibration     6          0.600              1.961              3.838
 Vibration     7          0.605              1.945              3.359
 Vibration     8          0.614              1.915              2.825
 Vibration     9          0.625              1.879              2.431
 Vibration    10          0.640              1.833              2.089
 Vibration    11          0.658              1.776              1.790
 Vibration    12          0.666              1.754              1.693
 Vibration    13          0.675              1.726              1.588
 Vibration    14          0.691              1.677              1.427
 Vibration    15          0.720              1.594              1.208
 Vibration    16          0.747              1.519              1.052
 Vibration    17          0.783              1.425              0.889
 Vibration    18          0.793              1.401              0.853
 Vibration    19          0.846              1.272              0.683
 Vibration    20          0.875              1.207              0.611
 Vibration    21          0.881              1.193              0.596
 Vibration    22          0.962              1.023              0.443

                           ! Non-Optimized Parameters !
 Normal termination of Gaussian 16 at Thu Dec 10 16:37:56 2020.

 ----------------------------------------------------------------------
 # B3LYP/6-311++G(d,p) empiricaldispersion=gd3bj scf=xqc pop=npa geom=c
 heck
 ----------------------------------------------------------------------

 --------------------------------------
 CID_68149975_JID_5494_Energie_neutraal
 --------------------------------------
 Structure from the checkpoint file:  "JID_5494.chk"
 Charge =  0 Multiplicity = 1

 SCF Done:  E(RB3LYP) =  -695.271149964     A.U. after   14 cycles
 Normal termination of Gaussian 16 at Thu Dec 10 16:43:07 2020.

 ----------------------------------------------------------------------
 # B3LYP/6-311++G(d,p) empiricaldispersion=gd3bj scf=xqc pop=npa geom=c
 heck
 ----------------------------------------------------------------------

 ------------------------------------
 CID_68149975_JID_5494_Energie_kation
 ------------------------------------
 Structure from the checkpoint file:  "JID_5494.chk"
 Charge =  1 Multiplicity = 2

 SCF Done:  E(UB3LYP) =  -694.938595990     A.U. after   27 cycles
 Normal termination of Gaussian 16 at Thu Dec 10 16:57:30 2020.
 Gaussian 16:  ES64L-G16RevA.03 25-Dec-2016

 ----------------------------------------------------------------------
 # B3LYP/6-311++G(d,p) empiricaldispersion=gd3bj scf=xqc pop=npa geom=c
 heck
 ----------------------------------------------------------------------

 -----------------------------------
 CID_68149975_JID_5494_Energie_anion
 -----------------------------------
 Structure from the checkpoint file:  "JID_5494.chk"
 Charge = -1 Multiplicity = 2

                         Standard orientation:
 ---------------------------------------------------------------------
 Center     Atomic      Atomic             Coordinates (Angstroms)
 Number     Number       Type             X           Y           Z
 ---------------------------------------------------------------------
      1          6           0       -4.462470   -1.493320    0.160628
      2          6           0       -3.135414   -1.307349    0.902282
      3          6           0       -1.929293   -1.089277   -0.023237
      4          6           0       -2.020048    0.139460   -0.941854
      5          6           0       -2.237327    1.480454   -0.224216
      6          6           0       -1.160955    1.822804    0.829173
      7          6           0        0.204882    1.832490    0.186191
      8          8           0        0.594416    2.656063   -0.609427
      9          8           0        0.939721    0.754001    0.584640
     10          6           0        2.182453    0.513623   -0.109018
     11          6           0        3.272760    0.153566    0.896092
     12          6           0        3.119413   -1.368320    1.117031
     13          6           0        2.768872   -1.906484   -0.280244
     14          6           0        1.955103   -0.785935   -0.922862
     15          8           0        1.210156   -0.880747   -1.870626
     16          1           0       -4.742607   -0.594723   -0.400263
     17          1           0       -5.278947   -1.715244    0.856966
     18          1           0       -4.398438   -2.321812   -0.555622
     19          1           0       -3.225894   -0.465106    1.602158
     20          1           0       -2.943247   -2.192081    1.523761
     21          1           0       -1.019107   -1.017299    0.584374
     22          1           0       -1.797747   -1.977564   -0.655916
     23          1           0       -1.101502    0.189149   -1.538379
     24          1           0       -2.837886    0.003110   -1.660439
     25          1           0       -2.251035    2.284258   -0.968945
     26          1           0       -3.213530    1.494701    0.275181
     27          1           0       -1.350912    2.823962    1.229564
     28          1           0       -1.176709    1.108595    1.655692
     29          1           0        2.396320    1.368518   -0.751953
     30          1           0        3.189851    0.740579    1.814354
     31          1           0        4.250551    0.368386    0.446571
     32          1           0        2.289823   -1.558712    1.807325
     33          1           0        4.017344   -1.825531    1.541105
     34          1           0        2.214095   -2.848154   -0.298492
     35          1           0        3.677376   -2.049838   -0.883540
 ---------------------------------------------------------------------

 SCF Done:  E(UB3LYP) =  -695.265576481     A.U. after   33 cycles
 SCF Done:  E(UB3LYP) =  -695.265576481     a.u. after    1 cycles

 The electronic state is 2-A.
 Alpha  occ. eigenvalues --  -19.05526 -19.00572 -18.97006 -10.19480 -10.10796
 Alpha  occ. eigenvalues --  -10.10447 -10.08159 -10.07523 -10.06807 -10.06664
 Alpha  occ. eigenvalues --  -10.06357 -10.05956 -10.05786 -10.05712 -10.05342
 Alpha  occ. eigenvalues --   -0.99592  -0.91792  -0.90349  -0.72418  -0.71305
 Alpha  occ. eigenvalues --   -0.68015  -0.63087  -0.60787  -0.57602  -0.56129
 Alpha  occ. eigenvalues --   -0.51858  -0.48875  -0.45925  -0.44452  -0.42505
 Alpha  occ. eigenvalues --   -0.40207  -0.38298  -0.36966  -0.35933  -0.35749
 Alpha  occ. eigenvalues --   -0.34888  -0.34029  -0.33152  -0.31646  -0.30403
 Alpha  occ. eigenvalues --   -0.29814  -0.28971  -0.28668  -0.27769  -0.27113
 Alpha  occ. eigenvalues --   -0.26472  -0.25794  -0.25046  -0.24538  -0.24071
 Alpha  occ. eigenvalues --   -0.22557  -0.22216  -0.21910  -0.21569  -0.21507
 Alpha  occ. eigenvalues --   -0.20024  -0.17577  -0.11341   0.04522
 Alpha virt. eigenvalues --    0.05833   0.07408   0.07619   0.08083   0.09070
 Alpha virt. eigenvalues --    0.09363   0.09600   0.10393   0.10713   0.10775
 Alpha virt. eigenvalues --    0.11383   0.11896   0.12429   0.12600   0.13059

  Beta  occ. eigenvalues --  -19.05455 -19.00557 -18.96692 -10.19467 -10.10804
  Beta  occ. eigenvalues --  -10.10107 -10.08139 -10.07513 -10.06794 -10.06647
  Beta  occ. eigenvalues --  -10.06348 -10.05928 -10.05785 -10.05709 -10.05369
  Beta  occ. eigenvalues --   -0.99507  -0.91629  -0.89824  -0.72285  -0.71235
  Beta  occ. eigenvalues --   -0.67983  -0.63039  -0.60736  -0.57454  -0.55943
  Beta  occ. eigenvalues --   -0.51758  -0.48746  -0.45787  -0.44362  -0.42215
  Beta  occ. eigenvalues --   -0.40138  -0.38244  -0.36927  -0.35835  -0.35569
  Beta  occ. eigenvalues --   -0.34775  -0.33884  -0.33028  -0.31474  -0.30350
  Beta  occ. eigenvalues --   -0.29615  -0.28868  -0.28559  -0.27559  -0.26882
  Beta  occ. eigenvalues --   -0.26379  -0.25629  -0.24974  -0.24311  -0.23976
  Beta  occ. eigenvalues --   -0.22360  -0.21887  -0.21646  -0.21530  -0.21280
  Beta  occ. eigenvalues --   -0.19724  -0.17509  -0.11101
  Beta virt. eigenvalues --    0.06266   0.07496   0.07803   0.08299   0.09091
  Beta virt. eigenvalues --    0.09535   0.09599   0.09966   0.10462   0.10905
  Beta virt. eigenvalues --    0.11145   0.11813   0.12000   0.12455   0.12779

 Mulliken charges and spin densities:
               1          2
     1  C   -0.109712  -0.530768
     2  C   -0.249482   0.009977
     3  C   -0.198723  -0.016257
     4  C    0.016839  -0.054203
     5  C   -0.265515  -0.155786
     6  C   -0.514191   0.332159
     7  C    0.072887  -0.321273
     8  O   -0.230194   0.005313
     9  O    0.154346  -0.005893
    10  C   -0.525883   0.405843
    11  C    0.616787  -1.207122
    12  C   -0.321570   0.280952
    13  C    0.029835  -0.433563
    14  C    0.292552  -0.093824
    15  O   -0.341239   0.120734
    16  H    0.053097   0.077300
    17  H   -0.258236   0.392407
    18  H    0.083963   0.050293
    19  H   -0.003645   0.136156
    20  H   -0.136410   0.278221
    21  H    0.468730  -0.319367
    22  H    0.129617   0.012842
    23  H    0.237406   0.005554
    24  H    0.149326   0.014614
    25  H    0.165663   0.007320
    26  H   -0.000913   0.161343
    27  H   -0.006488   0.184718
    28  H    0.050591   0.127057
    29  H    0.182071   0.058543
    30  H    0.077842   0.072717
    31  H   -0.096452   0.245362
    32  H    0.057246   0.064233
    33  H   -0.491777   0.672783
    34  H    0.134998   0.011506
    35  H   -0.223364   0.410112
 Sum of Mulliken charges =  -1.00000   1.00000

 Dipole moment (field-independent basis, Debye):
    X=             -3.7206    Y=              1.8683    Z=              0.9567  Tot=              4.2718
 Quadrupole moment (field-independent basis, Debye-Ang):
   XX=           -171.5995   YY=           -127.5218   ZZ=           -121.4740
   XY=              4.1873   XZ=              6.2762   YZ=              2.7473

 Summary of Natural Population Analysis:

                                       Natural Population
                Natural  -----------------------------------------------
    Atom  No    Charge         Core      Valence    Rydberg      Total
 -----------------------------------------------------------------------
      C    1   -0.28842      0.99967     2.28309    0.00566     3.28842
      C    2   -0.19356      0.99964     2.18561    0.00830     3.19356
      C    3   -0.19452      0.99963     2.18624    0.00866     3.19452
      C    4   -0.20059      0.99962     2.19350    0.00747     3.20059
      C    5   -0.18628      0.99963     2.17797    0.00868     3.18628
      C    6   -0.23499      0.99958     2.22739    0.00802     3.23499
      C    7    0.41205      0.99968     1.56181    0.02646     2.58795
      O    8   -0.30922      0.99986     3.30413    0.00523     4.30922
      O    9   -0.28061      0.99986     3.27125    0.00949     4.28061
      C   10    0.01514      0.99949     1.97196    0.01342     2.98486
      C   11   -0.19943      0.99963     2.19092    0.00888     3.19943
      C   12   -0.19029      0.99965     2.18258    0.00807     3.19029
      C   13   -0.24302      0.99960     2.23499    0.00843     3.24302
      C   14    0.33054      0.99967     1.64758    0.02221     2.66946
      O   15   -0.26237      0.99987     3.25586    0.00664     4.26237
      H   16    0.09500      0.00000     0.40416    0.00085     0.40500
      H   17    0.09777      0.00000     0.40127    0.00096     0.40223
      H   18    0.09436      0.00000     0.40484    0.00080     0.40564
      H   19    0.09185      0.00000     0.40696    0.00119     0.40815
      H   20    0.09486      0.00000     0.40420    0.00094     0.40514
      H   21    0.10473      0.00000     0.39389    0.00138     0.39527
      H   22    0.09779      0.00000     0.40126    0.00095     0.40221
      H   23    0.11618      0.00000     0.38263    0.00120     0.38382
      H   24    0.09304      0.00000     0.40602    0.00094     0.40696
      H   25    0.10112      0.00000     0.39790    0.00098     0.39888
      H   26    0.09506      0.00000     0.40404    0.00090     0.40494
      H   27    0.10799      0.00000     0.39110    0.00091     0.39201
      H   28    0.10734      0.00000     0.39142    0.00124     0.39266
      H   29    0.10999      0.00000     0.38832    0.00168     0.39001
      H   30    0.10181      0.00000     0.39725    0.00094     0.39819
      H   31    0.10162      0.00000     0.39675    0.00163     0.39838
      H   32    0.09480      0.00000     0.40383    0.00137     0.40520
      H   33    0.10075      0.00000     0.39682    0.00243     0.39925
      H   34    0.10716      0.00000     0.39198    0.00086     0.39284
      H   35    0.11237      0.00000     0.38472    0.00292     0.38763
 =======================================================================
   * Total *    0.00000     14.99506    42.82424    0.18070    58.00000

 Normal termination of Gaussian 16 at Thu Dec 10 17:20:07 2020.
