 Gaussian 16, Revision A.03,

 -----------------------------------------------------------
 # opt freq B3LYP/6-31G(d) empiricaldispersion=gd3bj scf=xqc
 -----------------------------------------------------------

 ------------------------------
 CID_43384092_JID_8909_neutraal
 ------------------------------
 Symbolic Z-matrix:
 Charge =  0 Multiplicity = 1

 SCF Done:  E(RB3LYP) =  -769.569740678     A.U. after   14 cycles
 SCF Done:  E(RB3LYP) =  -769.575654477     A.U. after   12 cycles
 SCF Done:  E(RB3LYP) =  -769.575614617     A.U. after   12 cycles
 SCF Done:  E(RB3LYP) =  -769.576498020     A.U. after   11 cycles
 SCF Done:  E(RB3LYP) =  -769.576890805     A.U. after   12 cycles
 SCF Done:  E(RB3LYP) =  -769.577401731     A.U. after   12 cycles
 SCF Done:  E(RB3LYP) =  -769.578018077     A.U. after   12 cycles
 SCF Done:  E(RB3LYP) =  -769.578559614     A.U. after   11 cycles
 SCF Done:  E(RB3LYP) =  -769.578917649     A.U. after   12 cycles
 SCF Done:  E(RB3LYP) =  -769.578743508     A.U. after   11 cycles
 SCF Done:  E(RB3LYP) =  -769.585791659     A.U. after    8 cycles
 SCF Done:  E(RB3LYP) =  -769.585793669     A.U. after    9 cycles
 SCF Done:  E(RB3LYP) =  -769.585794600     A.U. after    9 cycles
 SCF Done:  E(RB3LYP) =  -769.585794836     A.U. after    8 cycles
 SCF Done:  E(RB3LYP) =  -769.585794955     A.U. after    9 cycles
 Optimization completed.
    -- Stationary point found.
 Normal termination of Gaussian 16 at Fri Dec 11 23:49:10 2020.

 --------------------------------------------------------------------
 #N Geom=AllCheck Guess=TCheck SCRF=Check GenChk RB3LYP/6-31G(d) Freq
 --------------------------------------------------------------------

 Structure from the checkpoint file:  "JID_8909.chk"
 ------------------------------
 CID_43384092_JID_8909_neutraal
 ------------------------------
 Charge =  0 Multiplicity = 1

 SCF Done:  E(RB3LYP) =  -769.585794955     A.U. after    1 cycles

  Exact polarizability: 202.323  -1.439 176.335 -10.898  15.519 123.752
 Approx polarizability: 279.694  -1.129 256.010 -24.008  37.360 198.597

                      1                      2                      3
                      A                      A                      A
 Frequencies --     24.7560                37.3017                49.7237
 Red. masses --      2.9586                 2.7570                 3.4364
 Frc consts  --      0.0011                 0.0023                 0.0050
 IR Inten    --      0.3871                 0.5069                 0.9650

                      4                      5                      6
                      A                      A                      A
 Frequencies --     57.1208                66.5829                76.5502
 Red. masses --      3.3950                 3.9080                 2.6626
 Frc consts  --      0.0065                 0.0102                 0.0092
 IR Inten    --      0.6356                 1.0068                 0.7329

                      7                      8                      9
                      A                      A                      A
 Frequencies --    116.9078               130.9270               177.7109
 Red. masses --      3.4797                 3.5704                 3.4012
 Frc consts  --      0.0280                 0.0361                 0.0633
 IR Inten    --      0.5009                 0.5902                 3.6241

                     10                     11                     12
                      A                      A                      A
 Frequencies --    204.5325               214.1042               231.2717
 Red. masses --      3.9355                 3.7643                 3.3526
 Frc consts  --      0.0970                 0.1017                 0.1057
 IR Inten    --      1.0214                 0.5392                 0.9688

                     13                     14                     15
                      A                      A                      A
 Frequencies --    284.1360               304.6921               338.6391
 Red. masses --      1.0434                 2.9014                 3.2033
 Frc consts  --      0.0496                 0.1587                 0.2164
 IR Inten    --     21.9370                 8.9287                 1.5668

                     16                     17                     18
                      A                      A                      A
 Frequencies --    376.6813               400.0824               424.9946
 Red. masses --      3.7588                 3.1064                 3.1417
 Frc consts  --      0.3142                 0.2930                 0.3343
 IR Inten    --      1.0529                 2.1179                 0.2411

                     19                     20                     21
                      A                      A                      A
 Frequencies --    431.4183               449.7292               479.7246
 Red. masses --      2.2204                 2.7150                 3.1947
 Frc consts  --      0.2435                 0.3235                 0.4332
 IR Inten    --      1.2454                 1.5167                 2.7496

                     22                     23                     24
                      A                      A                      A
 Frequencies --    500.5234               517.3871               599.2863
 Red. masses --      2.3702                 2.5787                 2.9442
 Frc consts  --      0.3499                 0.4067                 0.6230
 IR Inten    --     17.0401                 9.1791               122.8796

                     25                     26                     27
                      A                      A                      A
 Frequencies --    652.9929               659.2442               661.6000
 Red. masses --      2.4819                 1.4857                 4.9633
 Frc consts  --      0.6235                 0.3804                 1.2800
 IR Inten    --      4.4847               245.1497                 0.4361

                     28                     29                     30
                      A                      A                      A
 Frequencies --    665.3314               723.2745               746.1385
 Red. masses --      3.0452                 3.6385                 2.0194
 Frc consts  --      0.7942                 1.1215                 0.6624
 IR Inten    --     12.6190                 1.5751                 1.5978

                     31                     32                     33
                      A                      A                      A
 Frequencies --    792.5125               797.3841               816.7243
 Red. masses --      1.8132                 2.0258                 1.4029
 Frc consts  --      0.6710                 0.7589                 0.5513
 IR Inten    --     16.9992                26.0580                18.1938

                     34                     35                     36
                      A                      A                      A
 Frequencies --    822.7363               828.4686               838.3871
 Red. masses --      1.5923                 1.3773                 1.7881
 Frc consts  --      0.6350                 0.5570                 0.7405
 IR Inten    --      5.4102                 3.3737                23.6263

                     37                     38                     39
                      A                      A                      A
 Frequencies --    860.0309               868.4810               900.5007
 Red. masses --      2.6808                 3.7424                 1.9311
 Frc consts  --      1.1683                 1.6631                 0.9226
 IR Inten    --      6.3530                11.8953                11.2432

                     40                     41                     42
                      A                      A                      A
 Frequencies --    914.7141               929.7751               936.4236
 Red. masses --      2.2436                 2.8831                 2.4127
 Frc consts  --      1.1060                 1.4685                 1.2465
 IR Inten    --     16.1328                 8.1031                16.6799

                     43                     44                     45
                      A                      A                      A
 Frequencies --    947.5356               970.3571               981.7340
 Red. masses --      1.4391                 1.7118                 1.6824
 Frc consts  --      0.7613                 0.9497                 0.9553
 IR Inten    --      6.2345                 1.9633                13.7668

                     46                     47                     48
                      A                      A                      A
 Frequencies --    985.3858              1015.1619              1029.7884
 Red. masses --      1.5525                 2.4466                 2.4657
 Frc consts  --      0.8882                 1.4855                 1.5406
 IR Inten    --      9.1936                 4.6580                17.8152

                     49                     50                     51
                      A                      A                      A
 Frequencies --   1039.4181              1060.1970              1075.0573
 Red. masses --      2.8248                 1.5285                 1.5747
 Frc consts  --      1.7981                 1.0122                 1.0723
 IR Inten    --      0.1626                12.6039                12.0646

                     52                     53                     54
                      A                      A                      A
 Frequencies --   1085.3170              1094.5059              1110.6381
 Red. masses --      2.7893                 2.2640                 1.5362
 Frc consts  --      1.9358                 1.5980                 1.1165
 IR Inten    --     91.4318                36.3511                 7.8720

                     55                     56                     57
                      A                      A                      A
 Frequencies --   1131.0208              1142.6042              1145.7935
 Red. masses --      2.6898                 2.3279                 1.2222
 Frc consts  --      2.0273                 1.7907                 0.9454
 IR Inten    --     52.8827                 0.7674                 0.2928

                     58                     59                     60
                      A                      A                      A
 Frequencies --   1152.3496              1166.0095              1203.4340
 Red. masses --      2.2079                 1.2224                 1.3824
 Frc consts  --      1.7274                 0.9792                 1.1796
 IR Inten    --     18.1458                 6.3645                 2.8313

                     61                     62                     63
                      A                      A                      A
 Frequencies --   1215.3973              1220.1068              1225.8281
 Red. masses --      1.8624                 1.1393                 1.4293
 Frc consts  --      1.6209                 0.9992                 1.2654
 IR Inten    --     14.3500                22.9612                 4.1379

                     64                     65                     66
                      A                      A                      A
 Frequencies --   1235.2465              1250.8702              1255.3092
 Red. masses --      3.3143                 1.2778                 1.7157
 Frc consts  --      2.9795                 1.1780                 1.5929
 IR Inten    --     11.0220                15.9750                 3.4129

                     67                     68                     69
                      A                      A                      A
 Frequencies --   1273.2919              1300.4839              1312.8644
 Red. masses --      1.1647                 1.2691                 1.3633
 Frc consts  --      1.1126                 1.2647                 1.3844
 IR Inten    --      4.2177                 2.9894                22.5905

                     70                     71                     72
                      A                      A                      A
 Frequencies --   1318.4975              1332.9000              1352.8683
 Red. masses --      3.1569                 1.2911                 1.8952
 Frc consts  --      3.2334                 1.3515                 2.0437
 IR Inten    --     72.0055                 0.9953                 5.4167

                     73                     74                     75
                      A                      A                      A
 Frequencies --   1368.4602              1376.9271              1381.8824
 Red. masses --      1.4070                 1.8919                 1.3282
 Frc consts  --      1.5524                 2.1134                 1.4944
 IR Inten    --     15.5528                 7.8936                 6.4451

                     76                     77                     78
                      A                      A                      A
 Frequencies --   1392.2811              1410.2003              1427.2496
 Red. masses --      1.3402                 1.4262                 1.2959
 Frc consts  --      1.5306                 1.6711                 1.5553
 IR Inten    --     16.6196                10.3803                 8.2438

                     79                     80                     81
                      A                      A                      A
 Frequencies --   1438.3116              1448.2861              1491.2634
 Red. masses --      1.3925                 1.5074                 1.8048
 Frc consts  --      1.6972                 1.8629                 2.3648
 IR Inten    --     12.8951                 5.5658                 1.4280

                     82                     83                     84
                      A                      A                      A
 Frequencies --   1492.3762              1513.1405              1515.8943
 Red. masses --      1.3415                 1.0828                 1.0992
 Frc consts  --      1.7603                 1.4606                 1.4882
 IR Inten    --      1.0582                 2.8971                12.6266

                     85                     86                     87
                      A                      A                      A
 Frequencies --   1516.7240              1533.6806              1537.9518
 Red. masses --      1.0880                 1.0924                 1.3725
 Frc consts  --      1.4747                 1.5140                 1.9127
 IR Inten    --      1.8973                 3.0956                17.9931

                     88                     89                     90
                      A                      A                      A
 Frequencies --   1548.9038              1570.1834              1639.3082
 Red. masses --      1.1074                 2.5477                 5.9248
 Frc consts  --      1.5654                 3.7008                 9.3809
 IR Inten    --      0.5162                74.6998                 2.4707

                     91                     92                     93
                      A                      A                      A
 Frequencies --   1676.7296              1696.0513              2977.0045
 Red. masses --      2.8807                 1.4159                 1.0719
 Frc consts  --      4.7716                 2.3997                 5.5970
 IR Inten    --     20.8686               123.9932                18.2730

                     94                     95                     96
                      A                      A                      A
 Frequencies --   2995.7320              3005.7555              3053.9696
 Red. masses --      1.0736                 1.0833                 1.0705
 Frc consts  --      5.6768                 5.7665                 5.8827
 IR Inten    --     55.2171                78.0302                44.0866

                     97                     98                     99
                      A                      A                      A
 Frequencies --   3066.3372              3082.1234              3107.7526
 Red. masses --      1.0619                 1.0613                 1.1034
 Frc consts  --      5.8828                 5.9402                 6.2790
 IR Inten    --     20.5911                36.5151                 9.8661

                    100                    101                    102
                      A                      A                      A
 Frequencies --   3115.3838              3120.5031              3131.6125
 Red. masses --      1.0861                 1.0956                 1.1052
 Frc consts  --      6.2110                 6.2857                 6.3858
 IR Inten    --     17.3353                21.0692                59.6072

                    103                    104                    105
                      A                      A                      A
 Frequencies --   3139.8905              3147.6468              3149.0742
 Red. masses --      1.0856                 1.0943                 1.0526
 Frc consts  --      6.3057                 6.3878                 6.1499
 IR Inten    --     22.8419                 4.9029                29.5140

                    106                    107                    108
                      A                      A                      A
 Frequencies --   3153.2068              3166.2676              3168.4875
 Red. masses --      1.0621                 1.0866                 1.0888
 Frc consts  --      6.2219                 6.4181                 6.4402
 IR Inten    --      8.7852                20.3973                25.4103

                    109                    110                    111
                      A                      A                      A
 Frequencies --   3186.3017              3207.0868              3220.3705
 Red. masses --      1.0937                 1.0925                 1.1171
 Frc consts  --      6.5420                 6.6203                 6.8256
 IR Inten    --     24.5480                 2.6755                 3.6751

                    112                    113                    114
                      A                      A                      A
 Frequencies --   3235.6400              3541.7470              3639.5929
 Red. masses --      1.1147                 1.0480                 1.0975
 Frc consts  --      6.8762                 7.7453                 8.5654
 IR Inten    --     27.1365                 8.5113                 5.9024

 - Thermochemistry -
 -------------------
 Temperature   298.150 Kelvin.  Pressure   1.00000 Atm.
 Atom     1 has atomic number  6 and mass  12.00000

 Molecular mass:   246.17321 amu.
 Principal axes and moments of inertia in atomic units:
                           1         2         3
     Eigenvalues --  3290.020666378.132608470.82058
           X            0.99989   0.01433   0.00368
           Y           -0.01433   0.99990   0.00043
           Z           -0.00367  -0.00048   0.99999
 This molecule is an asymmetric top.
 Rotational symmetry number  1.
 Warning -- assumption of classical behavior for rotation
           may cause significant error
 Rotational temperatures (Kelvin)      0.02633     0.01358     0.01022
 Rotational constants (GHZ):           0.54855     0.28296     0.21305
 Zero-point vibrational energy     927864.1 (Joules/Mol)
                                  221.76485 (Kcal/Mol)
 Warning -- explicit consideration of  24 degrees of freedom as
           vibrations may cause significant error
 Vibrational temperatures:     35.62    53.67    71.54    82.18    95.80
          (Kelvin)            110.14   168.20   188.37   255.69   294.28
                              308.05   332.75   408.81   438.38   487.23
                              541.96   575.63   611.47   620.71   647.06
                              690.22   720.14   744.40   862.24   939.51
                              948.51   951.89   957.26  1040.63  1073.53
                             1140.25  1147.26  1175.08  1183.73  1191.98
                             1206.25  1237.39  1249.55  1295.62  1316.07
                             1337.74  1347.30  1363.29  1396.13  1412.50
                             1417.75  1460.59  1481.64  1495.49  1525.39
                             1546.77  1561.53  1574.75  1597.96  1627.29
                             1643.95  1648.54  1657.97  1677.63  1731.47
                             1748.69  1755.46  1763.69  1777.24  1799.72
                             1806.11  1831.98  1871.11  1888.92  1897.02
                             1917.75  1946.48  1968.91  1981.09  1988.22
                             2003.18  2028.96  2053.49  2069.41  2083.76
                             2145.60  2147.20  2177.07  2181.03  2182.23
                             2206.62  2212.77  2228.53  2259.14  2358.60
                             2412.44  2440.24  4283.25  4310.19  4324.61
                             4393.98  4411.78  4434.49  4471.36  4482.34
                             4489.71  4505.69  4517.60  4528.76  4530.82
                             4536.76  4555.55  4558.75  4584.38  4614.28
                             4633.39  4655.36  5095.78  5236.56

 Zero-point correction=                           0.353405 (Hartree/Particle)
 Thermal correction to Energy=                    0.370603
 Thermal correction to Enthalpy=                  0.371547
 Thermal correction to Gibbs Free Energy=         0.306662
 Sum of electronic and zero-point Energies=           -769.232390
 Sum of electronic and thermal Energies=              -769.215192
 Sum of electronic and thermal Enthalpies=            -769.214248
 Sum of electronic and thermal Free Energies=         -769.279133

                     E (Thermal)             CV                S
                      KCal/Mol        Cal/Mol-Kelvin    Cal/Mol-Kelvin
 Total                  232.557             66.912            136.563
 Electronic               0.000              0.000              0.000
 Translational            0.889              2.981             42.403
 Rotational               0.889              2.981             33.541
 Vibrational            230.780             60.950             60.618
 Vibration     1          0.593              1.985              6.211
 Vibration     2          0.594              1.982              5.397
 Vibration     3          0.595              1.978              4.828
 Vibration     4          0.596              1.975              4.554
 Vibration     5          0.598              1.970              4.252
 Vibration     6          0.599              1.965              3.977
 Vibration     7          0.608              1.935              3.151
 Vibration     8          0.612              1.922              2.932
 Vibration     9          0.628              1.870              2.352
 Vibration    10          0.640              1.833              2.092
 Vibration    11          0.644              1.819              2.008
 Vibration    12          0.653              1.793              1.869
 Vibration    13          0.683              1.703              1.509
 Vibration    14          0.696              1.665              1.391
 Vibration    15          0.719              1.598              1.219
 Vibration    16          0.747              1.520              1.052
 Vibration    17          0.766              1.470              0.962
 Vibration    18          0.787              1.416              0.875
 Vibration    19          0.792              1.402              0.854
 Vibration    20          0.809              1.361              0.797
 Vibration    21          0.836              1.295              0.711
 Vibration    22          0.856              1.249              0.657
 Vibration    23          0.872              1.211              0.616
 Vibration    24          0.957              1.033              0.451

 Optimization completed.
    -- Stationary point found.
 Normal termination of Gaussian 16 at Sat Dec 12 00:08:23 2020.

 ----------------------------------------------------------------------
 # B3LYP/6-311++G(d,p) empiricaldispersion=gd3bj scf=xqc pop=npa geom=c
 heck
 ----------------------------------------------------------------------

 --------------------------------------
 CID_43384092_JID_8909_Energie_neutraal
 --------------------------------------
 Structure from the checkpoint file:  "JID_8909.chk"
 Charge =  0 Multiplicity = 1

 SCF Done:  E(RB3LYP) =  -769.799333448     A.U. after   15 cycles
 Normal termination of Gaussian 16 at Sat Dec 12 00:17:29 2020.

 ----------------------------------------------------------------------
 # B3LYP/6-311++G(d,p) empiricaldispersion=gd3bj scf=xqc pop=npa geom=c
 heck
 ----------------------------------------------------------------------

 ------------------------------------
 CID_43384092_JID_8909_Energie_kation
 ------------------------------------
 Structure from the checkpoint file:  "JID_8909.chk"
 Charge =  1 Multiplicity = 2

 SCF Done:  E(UB3LYP) =  -769.543962718     A.U. after   20 cycles
 Normal termination of Gaussian 16 at Sat Dec 12 00:34:10 2020.
 Gaussian 16:  ES64L-G16RevA.03 25-Dec-2016

 ----------------------------------------------------------------------
 # B3LYP/6-311++G(d,p) empiricaldispersion=gd3bj scf=xqc pop=npa geom=c
 heck
 ----------------------------------------------------------------------

 -----------------------------------
 CID_43384092_JID_8909_Energie_anion
 -----------------------------------
 Structure from the checkpoint file:  "JID_8909.chk"
 Charge = -1 Multiplicity = 2

                         Standard orientation:
 ---------------------------------------------------------------------
 Center     Atomic      Atomic             Coordinates (Angstroms)
 Number     Number       Type             X           Y           Z
 ---------------------------------------------------------------------
      1          6           0       -4.044406   -1.792083   -0.706696
      2          6           0       -3.511949   -0.404605   -1.144845
      3          6           0       -2.614503    0.047100    0.028815
      4          8           0       -2.237955   -1.174037    0.679948
      5          6           0       -3.401623   -1.991749    0.680203
      6          6           0       -1.390631    0.837083   -0.418986
      7          7           0       -0.693419    1.510545    0.667411
      8          6           0        0.061122    0.597400    1.557386
      9          6           0        1.234684   -0.120531    0.921358
     10          6           0        2.513609    0.448412    0.905669
     11          6           0        3.584249   -0.178584    0.276823
     12          6           0        3.406164   -1.413625   -0.366475
     13          6           0        2.130149   -1.996792   -0.348252
     14          6           0        1.067810   -1.358996    0.286897
     15          7           0        4.464426   -2.022382   -1.054754
     16          6           0        0.107578    2.656918    0.295955
     17          6           0        0.992644    2.751388   -0.929600
     18          6           0       -0.238723    3.626855   -0.799189
     19          1           0       -5.136550   -1.831043   -0.657125
     20          1           0       -3.715872   -2.570703   -1.401110
     21          1           0       -4.310861    0.317981   -1.335191
     22          1           0       -2.915925   -0.488864   -2.060090
     23          1           0       -3.191265    0.662265    0.737291
     24          1           0       -4.089535   -1.668739    1.478218
     25          1           0       -3.088312   -3.018343    0.886024
     26          1           0       -0.742544    0.166156   -1.009395
     27          1           0       -1.764235    1.602650   -1.103694
     28          1           0        0.413336    1.206249    2.398995
     29          1           0       -0.650941   -0.129663    1.950045
     30          1           0        2.677360    1.403094    1.399744
     31          1           0        4.567730    0.286678    0.279752
     32          1           0        1.974833   -2.956972   -0.836116
     33          1           0        0.086668   -1.824656    0.295045
     34          1           0        4.377884   -3.027864   -1.142614
     35          1           0        5.383190   -1.769453   -0.711095
     36          1           0        0.513519    3.123252    1.192163
     37          1           0        1.978290    3.199467   -0.838083
     38          1           0        0.945590    1.932626   -1.641125
     39          1           0       -1.075439    3.428236   -1.461782
     40          1           0       -0.107367    4.683657   -0.582417
 ---------------------------------------------------------------------

 SCF Done:  E(UB3LYP) =  -769.785934811     A.U. after   33 cycles
 SCF Done:  E(UB3LYP) =  -769.785934812     a.u. after    1 cycles

 The electronic state is 2-A.
 Alpha  occ. eigenvalues --  -19.03519 -14.21764 -14.21582 -10.13004 -10.12620
 Alpha  occ. eigenvalues --  -10.11663 -10.11352 -10.10361 -10.09545 -10.08754
 Alpha  occ. eigenvalues --  -10.08185 -10.08121 -10.07994 -10.07407 -10.06897
 Alpha  occ. eigenvalues --  -10.06882 -10.06756 -10.06698  -0.95512  -0.84185
 Alpha  occ. eigenvalues --   -0.81872  -0.75480  -0.73901  -0.69538  -0.67444
 Alpha  occ. eigenvalues --   -0.64613  -0.64436  -0.59282  -0.56037  -0.51978
 Alpha  occ. eigenvalues --   -0.51680  -0.50973  -0.49929  -0.49079  -0.46912
 Alpha  occ. eigenvalues --   -0.42402  -0.41818  -0.41395  -0.40808  -0.39924
 Alpha  occ. eigenvalues --   -0.39017  -0.38515  -0.36735  -0.34971  -0.33995
 Alpha  occ. eigenvalues --   -0.33399  -0.32844  -0.31962  -0.30945  -0.30654
 Alpha  occ. eigenvalues --   -0.29061  -0.28541  -0.28028  -0.27326  -0.26838
 Alpha  occ. eigenvalues --   -0.26384  -0.25476  -0.24423  -0.24082  -0.23382
 Alpha  occ. eigenvalues --   -0.22482  -0.21890  -0.20349  -0.17561  -0.15434
 Alpha  occ. eigenvalues --   -0.11885  -0.10781   0.04038
 Alpha virt. eigenvalues --    0.05282   0.06011   0.06938   0.07189   0.07614
 Alpha virt. eigenvalues --    0.08269   0.08405   0.08552   0.09094   0.09871
 Alpha virt. eigenvalues --    0.09963   0.10458   0.10862   0.11257   0.11375

  Beta  occ. eigenvalues --  -19.03511 -14.21764 -14.21523 -10.12999 -10.12603
  Beta  occ. eigenvalues --  -10.11661 -10.11347 -10.10355 -10.09543 -10.08748
  Beta  occ. eigenvalues --  -10.08167 -10.08095 -10.07990 -10.07404 -10.06883
  Beta  occ. eigenvalues --  -10.06879 -10.06754 -10.06682  -0.95497  -0.84181
  Beta  occ. eigenvalues --   -0.81803  -0.75473  -0.73877  -0.69506  -0.67417
  Beta  occ. eigenvalues --   -0.64594  -0.64402  -0.59251  -0.56014  -0.51955
  Beta  occ. eigenvalues --   -0.51653  -0.50922  -0.49895  -0.49039  -0.46894
  Beta  occ. eigenvalues --   -0.42372  -0.41779  -0.41359  -0.40763  -0.39892
  Beta  occ. eigenvalues --   -0.38990  -0.38484  -0.36690  -0.34953  -0.33963
  Beta  occ. eigenvalues --   -0.33373  -0.32817  -0.31938  -0.30928  -0.30632
  Beta  occ. eigenvalues --   -0.29046  -0.28519  -0.28010  -0.27306  -0.26811
  Beta  occ. eigenvalues --   -0.26355  -0.25443  -0.24405  -0.24055  -0.23370
  Beta  occ. eigenvalues --   -0.22468  -0.21872  -0.20327  -0.17520  -0.15423
  Beta  occ. eigenvalues --   -0.11877  -0.10746
  Beta virt. eigenvalues --    0.05865   0.06317   0.06835   0.07146   0.07741
  Beta virt. eigenvalues --    0.08178   0.08350   0.08585   0.08708   0.09500
  Beta virt. eigenvalues --    0.10124   0.10185   0.10605   0.11020   0.11320

 Mulliken charges and spin densities:
               1          2
     1  C    0.660843  -1.000931
     2  C    0.104269  -0.551122
     3  C   -0.603514   0.701354
     4  O   -0.063095   0.023020
     5  C   -0.191548  -0.075022
     6  C   -0.135424  -0.546209
     7  N    0.400864   0.011238
     8  C    0.038413  -0.743929
     9  C    1.084669  -0.441964
    10  C   -0.468294   0.394382
    11  C   -0.371003   0.277772
    12  C    1.068493  -1.476737
    13  C   -0.296712   0.093694
    14  C   -0.588507   0.154497
    15  N   -0.291965  -0.015699
    16  C   -0.425832   0.303946
    17  C   -0.136125  -0.217729
    18  C   -0.054280  -0.307073
    19  H   -0.248863   0.406637
    20  H   -0.108149   0.244063
    21  H   -0.202338   0.351285
    22  H    0.010449   0.143122
    23  H    0.075179   0.109828
    24  H   -0.030536   0.149472
    25  H   -0.158227   0.326091
    26  H    0.202456  -0.074659
    27  H    0.085445   0.010087
    28  H    0.126927   0.029011
    29  H    0.134456   0.096275
    30  H   -0.024220   0.165757
    31  H   -0.418385   0.592793
    32  H   -0.552151   0.724246
    33  H    0.370881  -0.160486
    34  H   -0.155593   0.398663
    35  H   -0.263858   0.507109
    36  H    0.094934   0.119297
    37  H    0.127396   0.037374
    38  H    0.095088   0.074108
    39  H    0.039596   0.101824
    40  H    0.068262   0.064614
 Sum of Mulliken charges =  -1.00000   1.00000

 Dipole moment (field-independent basis, Debye):
    X=             -3.3994    Y=              5.5997    Z=              2.0072  Tot=              6.8514
 Quadrupole moment (field-independent basis, Debye-Ang):
   XX=           -224.0845   YY=           -160.2848   ZZ=           -141.0670
   XY=             12.0904   XZ=              4.8692   YZ=             -4.5051

 Summary of Natural Population Analysis:

                                       Natural Population
                Natural  -----------------------------------------------
    Atom  No    Charge         Core      Valence    Rydberg      Total
 -----------------------------------------------------------------------
      C    1   -0.20527      0.99964     2.19806    0.00756     3.20527
      C    2   -0.20132      0.99962     2.19303    0.00866     3.20132
      C    3    0.06201      0.99955     1.92337    0.01506     2.93799
      O    4   -0.30629      0.99989     3.29712    0.00929     4.30629
      C    5   -0.00938      0.99960     1.99748    0.01230     3.00938
      C    6   -0.09790      0.99956     2.08526    0.01308     3.09790
      N    7   -0.27096      0.99971     2.75896    0.01229     3.77096
      C    8   -0.09229      0.99957     2.08149    0.01123     3.09229
      C    9   -0.05145      0.99949     2.04252    0.00944     3.05145
      C   10   -0.08816      0.99952     2.07914    0.00949     3.08816
      C   11   -0.12540      0.99952     2.11577    0.01012     3.12540
      C   12    0.08500      0.99949     1.90406    0.01145     2.91500
      C   13   -0.12328      0.99952     2.11382    0.00994     3.12328
      C   14   -0.09312      0.99952     2.08429    0.00931     3.09312
      N   15   -0.39540      0.99972     2.88521    0.01047     3.89540
      C   16   -0.00666      0.99957     1.99350    0.01359     3.00666
      C   17   -0.21080      0.99962     2.20451    0.00666     3.21080
      C   18   -0.20599      0.99963     2.19983    0.00654     3.20599
      H   19    0.10214      0.00000     0.39605    0.00181     0.39786
      H   20    0.09975      0.00000     0.39900    0.00125     0.40025
      H   21    0.10296      0.00000     0.39580    0.00124     0.39704
      H   22    0.09914      0.00000     0.39970    0.00116     0.40086
      H   23    0.08228      0.00000     0.41563    0.00209     0.41772
      H   24    0.07663      0.00000     0.42196    0.00141     0.42337
      H   25    0.09224      0.00000     0.40659    0.00117     0.40776
      H   26    0.09369      0.00000     0.40448    0.00182     0.40631
      H   27    0.09916      0.00000     0.39911    0.00173     0.40084
      H   28    0.09267      0.00000     0.40628    0.00105     0.40733
      H   29    0.11103      0.00000     0.38745    0.00152     0.38897
      H   30    0.09577      0.00000     0.40269    0.00153     0.40423
      H   31    0.09855      0.00000     0.39985    0.00160     0.40145
      H   32    0.09946      0.00000     0.39905    0.00149     0.40054
      H   33    0.11053      0.00000     0.38770    0.00178     0.38947
      H   34    0.18657      0.00000     0.30913    0.00430     0.31343
      H   35    0.18665      0.00000     0.30845    0.00490     0.31335
      H   36    0.09758      0.00000     0.40131    0.00110     0.40242
      H   37    0.10139      0.00000     0.39749    0.00112     0.39861
      H   38    0.10687      0.00000     0.39219    0.00095     0.39313
      H   39    0.10110      0.00000     0.39792    0.00097     0.39890
      H   40    0.10048      0.00000     0.39868    0.00084     0.39952
 =======================================================================
   * Total *   -0.00000     17.99274    48.78394    0.22332    67.00000

 Normal termination of Gaussian 16 at Sat Dec 12 01:01:49 2020.
