 Gaussian 16, Revision A.03,

 -----------------------------------------------------------
 # opt freq B3LYP/6-31G(d) empiricaldispersion=gd3bj scf=xqc
 -----------------------------------------------------------

 ------------------------------
 CID_60665082_JID_4696_neutraal
 ------------------------------
 Symbolic Z-matrix:
 Charge =  0 Multiplicity = 1

 SCF Done:  E(RB3LYP) =  -1008.35033723     A.U. after   15 cycles
 SCF Done:  E(RB3LYP) =  -1008.35286368     A.U. after   13 cycles
 SCF Done:  E(RB3LYP) =  -1008.35260569     A.U. after   13 cycles
 SCF Done:  E(RB3LYP) =  -1008.35430927     A.U. after   13 cycles
 SCF Done:  E(RB3LYP) =  -1008.35637761     A.U. after   14 cycles
 SCF Done:  E(RB3LYP) =  -1008.35727027     A.U. after   12 cycles
 SCF Done:  E(RB3LYP) =  -1008.35719526     A.U. after   12 cycles
 SCF Done:  E(RB3LYP) =  -1008.35760986     A.U. after   12 cycles
 SCF Done:  E(RB3LYP) =  -1008.35768125     A.U. after   11 cycles
 SCF Done:  E(RB3LYP) =  -1008.35771417     A.U. after   11 cycles
 SCF Done:  E(RB3LYP) =  -1008.35776244     A.U. after   12 cycles
 SCF Done:  E(RB3LYP) =  -1008.35776428     A.U. after    8 cycles
 SCF Done:  E(RB3LYP) =  -1008.35776533     A.U. after    9 cycles
 SCF Done:  E(RB3LYP) =  -1008.35776543     A.U. after    8 cycles
 SCF Done:  E(RB3LYP) =  -1008.35776541     A.U. after    8 cycles
 SCF Done:  E(RB3LYP) =  -1008.35776532     A.U. after    7 cycles
 Optimization completed.
    -- Stationary point found.
 Normal termination of Gaussian 16 at Thu Dec 10 10:27:22 2020.

 --------------------------------------------------------------------
 #N Geom=AllCheck Guess=TCheck SCRF=Check GenChk RB3LYP/6-31G(d) Freq
 --------------------------------------------------------------------

 Structure from the checkpoint file:  "JID_4696.chk"
 ------------------------------
 CID_60665082_JID_4696_neutraal
 ------------------------------
 Charge =  0 Multiplicity = 1

 SCF Done:  E(RB3LYP) =  -1008.35776532     A.U. after    1 cycles

  Exact polarizability: 128.760  15.209 115.764  -8.327   2.142 114.305
 Approx polarizability: 195.390  41.489 188.352 -23.005   7.141 182.252

                      1                      2                      3
                      A                      A                      A
 Frequencies --     32.0897                50.3899                78.5256
 Red. masses --      4.2969                 5.2550                 5.8074
 Frc consts  --      0.0026                 0.0079                 0.0211
 IR Inten    --      2.1770                 0.0296                 0.4901

                      4                      5                      6
                      A                      A                      A
 Frequencies --    101.5410               110.5234               137.9462
 Red. masses --      5.6519                 3.1771                 4.5697
 Frc consts  --      0.0343                 0.0229                 0.0512
 IR Inten    --      0.5240                 0.8817                 0.7153

                      7                      8                      9
                      A                      A                      A
 Frequencies --    183.3687               216.4459               252.9210
 Red. masses --      3.2234                 1.4301                 3.0249
 Frc consts  --      0.0639                 0.0395                 0.1140
 IR Inten    --      1.1174                 1.9404                 0.6592

                     10                     11                     12
                      A                      A                      A
 Frequencies --    264.3018               273.8184               304.0091
 Red. masses --      2.6229                 3.1542                 3.5934
 Frc consts  --      0.1080                 0.1393                 0.1957
 IR Inten    --      7.0123                 0.3333                 1.9533

                     13                     14                     15
                      A                      A                      A
 Frequencies --    358.6576               394.6561               446.0653
 Red. masses --      4.3378                 4.4239                 7.0579
 Frc consts  --      0.3288                 0.4060                 0.8274
 IR Inten    --      1.1015                 7.7777                 2.9407

                     16                     17                     18
                      A                      A                      A
 Frequencies --    458.8624               508.6114               544.7082
 Red. masses --      4.2675                 1.7777                 6.5184
 Frc consts  --      0.5294                 0.2709                 1.1395
 IR Inten    --     11.9414                13.7681                 4.6858

                     19                     20                     21
                      A                      A                      A
 Frequencies --    560.5259               576.0976               615.1603
 Red. masses --      4.2162                 4.1949                 2.5333
 Frc consts  --      0.7805                 0.8203                 0.5648
 IR Inten    --      0.9014                18.8116                34.4220

                     22                     23                     24
                      A                      A                      A
 Frequencies --    636.1082               642.9356               708.1207
 Red. masses --      2.5483                 4.5953                 3.9238
 Frc consts  --      0.6075                 1.1192                 1.1592
 IR Inten    --     49.1451                46.4639                30.6154

                     25                     26                     27
                      A                      A                      A
 Frequencies --    716.9361               790.4099               826.0209
 Red. masses --      1.5249                 1.2995                 1.9042
 Frc consts  --      0.4618                 0.4783                 0.7655
 IR Inten    --      6.6437                 1.1161                 9.6302

                     28                     29                     30
                      A                      A                      A
 Frequencies --    841.9331               857.1982               895.0905
 Red. masses --      4.4280                 1.6117                 2.6765
 Frc consts  --      1.8493                 0.6977                 1.2634
 IR Inten    --      8.3603                 8.5238                11.8123

                     31                     32                     33
                      A                      A                      A
 Frequencies --    928.3369               967.9273               993.9848
 Red. masses --      3.5868                 3.5827                 2.9349
 Frc consts  --      1.8213                 1.9776                 1.7084
 IR Inten    --      4.4451                 2.8675                20.4750

                     34                     35                     36
                      A                      A                      A
 Frequencies --   1025.8694              1047.9837              1068.1786
 Red. masses --      1.6265                 1.5959                 1.5941
 Frc consts  --      1.0086                 1.0327                 1.0716
 IR Inten    --      0.9032                14.2186                14.0526

                     37                     38                     39
                      A                      A                      A
 Frequencies --   1081.7963              1087.6219              1107.6489
 Red. masses --      1.4487                 1.3589                 2.4670
 Frc consts  --      0.9989                 0.9471                 1.7833
 IR Inten    --      3.6442                 2.0606                 8.0045

                     40                     41                     42
                      A                      A                      A
 Frequencies --   1153.8466              1208.4227              1212.3733
 Red. masses --      1.1234                 1.4686                 1.6232
 Frc consts  --      0.8812                 1.2636                 1.4057
 IR Inten    --      3.6794                16.1876                 4.2485

                     43                     44                     45
                      A                      A                      A
 Frequencies --   1216.9587              1253.1148              1265.7446
 Red. masses --      1.8193                 2.1793                 2.3719
 Frc consts  --      1.5875                 2.0163                 2.2389
 IR Inten    --      2.4203                18.1488                18.9502

                     46                     47                     48
                      A                      A                      A
 Frequencies --   1314.6313              1383.4722              1384.1809
 Red. masses --      1.7610                 1.4285                 2.7772
 Frc consts  --      1.7931                 1.6110                 3.1351
 IR Inten    --     90.1105                24.5451               117.1471

                     49                     50                     51
                      A                      A                      A
 Frequencies --   1414.8604              1434.3109              1451.9696
 Red. masses --      1.5340                 2.2314                 1.5708
 Frc consts  --      1.8092                 2.7047                 1.9511
 IR Inten    --     48.0320                43.7196                31.6429

                     52                     53                     54
                      A                      A                      A
 Frequencies --   1478.8267              1488.1284              1494.9300
 Red. masses --      1.7462                 1.1532                 1.0989
 Frc consts  --      2.2499                 1.5046                 1.4470
 IR Inten    --     42.0395                 2.6881                 1.8904

                     55                     56                     57
                      A                      A                      A
 Frequencies --   1512.0231              1521.0949              1530.4187
 Red. masses --      1.0550                 1.1111                 1.3508
 Frc consts  --      1.4210                 1.5146                 1.8641
 IR Inten    --      4.6858                 2.5745                10.8247

                     58                     59                     60
                      A                      A                      A
 Frequencies --   1674.6926              1795.8052              1803.0586
 Red. masses --      6.6746                 9.7553                10.2734
 Frc consts  --     11.0293                18.5357                19.6782
 IR Inten    --     12.9977               102.6942               653.5027

                     61                     62                     63
                      A                      A                      A
 Frequencies --   3050.4546              3103.9635              3104.2876
 Red. masses --      1.0389                 1.0661                 1.0928
 Frc consts  --      5.6956                 6.0516                 6.2045
 IR Inten    --     22.2486                10.4398                14.4088

                     64                     65                     66
                      A                      A                      A
 Frequencies --   3146.5101              3155.0990              3155.9410
 Red. masses --      1.0993                 1.0606                 1.0788
 Frc consts  --      6.4127                 6.2207                 6.3309
 IR Inten    --     12.3087                17.0529                 8.2978

                     67                     68                     69
                      A                      A                      A
 Frequencies --   3156.7528              3160.5235              3235.4398
 Red. masses --      1.0925                 1.0700                 1.1201
 Frc consts  --      6.4143                 6.2975                 6.9086
 IR Inten    --      7.8350                 4.5802                 0.3531

                     70                     71                     72
                      A                      A                      A
 Frequencies --   3248.5327              3279.4863              3577.9190
 Red. masses --      1.1167                 1.0950                 1.0755
 Frc consts  --      6.9434                 6.9388                 8.1118
 IR Inten    --     13.6035                 3.4176                24.3276

 - Thermochemistry -
 -------------------
 Temperature   298.150 Kelvin.  Pressure   1.00000 Atm.
 Atom     1 has atomic number  6 and mass  12.00000

 Molecular mass:   212.06195 amu.
 Principal axes and moments of inertia in atomic units:
                           1         2         3
     Eigenvalues --  2246.759683406.120703820.17380
           X            0.99908  -0.01382   0.04061
           Y            0.01383   0.99990   0.00012
           Z           -0.04061   0.00044   0.99918
 This molecule is an asymmetric top.
 Rotational symmetry number  1.
 Warning -- assumption of classical behavior for rotation
           may cause significant error
 Rotational temperatures (Kelvin)      0.03855     0.02543     0.02267
 Rotational constants (GHZ):           0.80326     0.52985     0.47242
 Zero-point vibrational energy     544666.3 (Joules/Mol)
                                  130.17838 (Kcal/Mol)
 Warning -- explicit consideration of  21 degrees of freedom as
           vibrations may cause significant error
 Vibrational temperatures:     46.17    72.50   112.98   146.09   159.02
          (Kelvin)            198.47   263.83   311.42   363.90   380.27
                              393.96   437.40   516.03   567.82   641.79
                              660.20   731.78   783.71   806.47   828.88
                              885.08   915.22   925.04  1018.83  1031.51
                             1137.22  1188.46  1211.35  1233.32  1287.84
                             1335.67  1392.63  1430.12  1476.00  1507.81
                             1536.87  1556.46  1564.85  1593.66  1660.13
                             1738.65  1744.33  1750.93  1802.95  1821.12
                             1891.46  1990.51  1991.53  2035.67  2063.65
                             2089.06  2127.70  2141.08  2150.87  2175.46
                             2188.52  2201.93  2409.51  2583.76  2594.20
                             4388.92  4465.91  4466.38  4527.13  4539.48
                             4540.70  4541.86  4547.29  4655.08  4673.91
                             4718.45  5147.83

 Zero-point correction=                           0.207452 (Hartree/Particle)
 Thermal correction to Energy=                    0.221234
 Thermal correction to Enthalpy=                  0.222178
 Thermal correction to Gibbs Free Energy=         0.166122
 Sum of electronic and zero-point Energies=          -1008.150313
 Sum of electronic and thermal Energies=             -1008.136532
 Sum of electronic and thermal Enthalpies=           -1008.135587
 Sum of electronic and thermal Free Energies=        -1008.191643

                     E (Thermal)             CV                S
                      KCal/Mol        Cal/Mol-Kelvin    Cal/Mol-Kelvin
 Total                  138.826             51.476            117.980
 Electronic               0.000              0.000              0.000
 Translational            0.889              2.981             41.959
 Rotational               0.889              2.981             31.747
 Vibrational            137.049             45.515             44.274
 Vibration     1          0.594              1.983              5.696
 Vibration     2          0.595              1.977              4.802
 Vibration     3          0.600              1.964              3.927
 Vibration     4          0.604              1.948              3.425
 Vibration     5          0.606              1.941              3.260
 Vibration     6          0.614              1.915              2.832
 Vibration     7          0.631              1.862              2.294
 Vibration     8          0.645              1.816              1.989
 Vibration     9          0.664              1.758              1.710
 Vibration    10          0.671              1.738              1.633
 Vibration    11          0.676              1.722              1.572
 Vibration    12          0.695              1.666              1.395
 Vibration    13          0.733              1.557              1.128
 Vibration    14          0.762              1.482              0.982
 Vibration    15          0.805              1.370              0.808
 Vibration    16          0.817              1.341              0.769
 Vibration    17          0.864              1.231              0.637
 Vibration    18          0.900              1.151              0.555
 Vibration    19          0.916              1.117              0.523
 Vibration    20          0.933              1.083              0.493
 Vibration    21          0.975              1.000              0.424

 Optimization completed.
    -- Stationary point found.
 Normal termination of Gaussian 16 at Thu Dec 10 10:35:16 2020.

 ----------------------------------------------------------------------
 # B3LYP/6-311++G(d,p) empiricaldispersion=gd3bj scf=xqc pop=npa geom=c
 heck
 ----------------------------------------------------------------------

 --------------------------------------
 CID_60665082_JID_4696_Energie_neutraal
 --------------------------------------
 Structure from the checkpoint file:  "JID_4696.chk"
 Charge =  0 Multiplicity = 1

 SCF Done:  E(RB3LYP) =  -1008.56164767     A.U. after   17 cycles
 Normal termination of Gaussian 16 at Thu Dec 10 10:38:44 2020.

 ----------------------------------------------------------------------
 # B3LYP/6-311++G(d,p) empiricaldispersion=gd3bj scf=xqc pop=npa geom=c
 heck
 ----------------------------------------------------------------------

 ------------------------------------
 CID_60665082_JID_4696_Energie_kation
 ------------------------------------
 Structure from the checkpoint file:  "JID_4696.chk"
 Charge =  1 Multiplicity = 2

 SCF Done:  E(UB3LYP) =  -1008.26580462     A.U. after   25 cycles
 Normal termination of Gaussian 16 at Thu Dec 10 10:45:12 2020.
 Gaussian 16:  ES64L-G16RevA.03 25-Dec-2016

 ----------------------------------------------------------------------
 # B3LYP/6-311++G(d,p) empiricaldispersion=gd3bj scf=xqc pop=npa geom=c
 heck
 ----------------------------------------------------------------------

 -----------------------------------
 CID_60665082_JID_4696_Energie_anion
 -----------------------------------
 Structure from the checkpoint file:  "JID_4696.chk"
 Charge = -1 Multiplicity = 2

                         Standard orientation:
 ---------------------------------------------------------------------
 Center     Atomic      Atomic             Coordinates (Angstroms)
 Number     Number       Type             X           Y           Z
 ---------------------------------------------------------------------
      1          6           0        1.258311    1.312126    2.269067
      2          6           0        1.487486    0.563867    0.995709
      3          6           0        2.504441    0.756478    0.132170
      4         16           0        2.465135   -0.365028   -1.220511
      5          6           0        0.977333   -1.144337   -0.556065
      6          8           0        0.362373   -2.066461   -1.050986
      7          7           0        0.629356   -0.473397    0.604786
      8          6           0       -0.555580   -0.918689    1.326531
      9          6           0       -1.855058   -1.077156    0.520060
     10          8           0       -2.616369   -1.982991    0.821655
     11          7           0       -2.189344   -0.150691   -0.431167
     12          6           0       -1.412140    0.925116   -0.972656
     13          6           0       -2.151274    2.191087   -1.317401
     14          6           0       -1.201959    2.171335   -0.148090
     15          1           0        0.296521    1.837418    2.270712
     16          1           0        2.047158    2.056945    2.399049
     17          1           0        1.276656    0.645029    3.139574
     18          1           0        3.299020    1.480937    0.234491
     19          1           0       -0.381683   -1.903233    1.766457
     20          1           0       -0.745462   -0.211727    2.136665
     21          1           0       -3.024003   -0.419382   -0.939802
     22          1           0       -0.606788    0.638226   -1.645478
     23          1           0       -1.857994    2.715948   -2.221144
     24          1           0       -3.214497    2.222704   -1.097519
     25          1           0       -1.642738    2.185719    0.844059
     26          1           0       -0.245818    2.677151   -0.235509
 ---------------------------------------------------------------------

 SCF Done:  E(UB3LYP) =  -1008.55442504     A.U. after   32 cycles

 The electronic state is 2-A.
 Alpha  occ. eigenvalues --  -88.78133 -19.01639 -18.99985 -14.28350 -14.25213
 Alpha  occ. eigenvalues --  -10.20901 -10.18900 -10.13560 -10.13481 -10.13093
 Alpha  occ. eigenvalues --  -10.10113 -10.09405 -10.08747 -10.08092  -7.86776
 Alpha  occ. eigenvalues --   -5.83077  -5.82754  -5.82287  -0.97349  -0.95296
 Alpha  occ. eigenvalues --   -0.88867  -0.84845  -0.75907  -0.74031  -0.68380
 Alpha  occ. eigenvalues --   -0.64376  -0.58409  -0.54913  -0.52977  -0.52460
 Alpha  occ. eigenvalues --   -0.49816  -0.46751  -0.43817  -0.41050  -0.40640
 Alpha  occ. eigenvalues --   -0.38849  -0.38096  -0.36444  -0.34267  -0.33888
 Alpha  occ. eigenvalues --   -0.33334  -0.32978  -0.32822  -0.31027  -0.30558
 Alpha  occ. eigenvalues --   -0.28940  -0.28669  -0.26639  -0.25020  -0.23523
 Alpha  occ. eigenvalues --   -0.22389  -0.20055  -0.18784  -0.17088  -0.16843
 Alpha  occ. eigenvalues --   -0.12238   0.04106
 Alpha virt. eigenvalues --    0.06676   0.07022   0.07989   0.08512   0.08924
 Alpha virt. eigenvalues --    0.09031   0.09554   0.09900   0.10313   0.10750
 Alpha virt. eigenvalues --    0.11324   0.11648   0.12548   0.12900   0.13355

  Beta  occ. eigenvalues --  -88.78128 -19.01639 -18.99971 -14.28344 -14.25216
  Beta  occ. eigenvalues --  -10.20898 -10.18876 -10.13545 -10.13480 -10.13089
  Beta  occ. eigenvalues --  -10.10074 -10.09389 -10.08708 -10.08014  -7.86771
  Beta  occ. eigenvalues --   -5.83065  -5.82748  -5.82284  -0.97343  -0.95265
  Beta  occ. eigenvalues --   -0.88858  -0.84836  -0.75886  -0.74006  -0.68331
  Beta  occ. eigenvalues --   -0.64330  -0.58315  -0.54876  -0.52933  -0.52410
  Beta  occ. eigenvalues --   -0.49761  -0.46710  -0.43798  -0.40991  -0.40602
  Beta  occ. eigenvalues --   -0.38786  -0.38063  -0.36395  -0.34235  -0.33860
  Beta  occ. eigenvalues --   -0.33277  -0.32931  -0.32765  -0.30995  -0.30499
  Beta  occ. eigenvalues --   -0.28886  -0.28632  -0.26575  -0.24993  -0.23485
  Beta  occ. eigenvalues --   -0.22367  -0.20033  -0.18771  -0.17070  -0.16817
  Beta  occ. eigenvalues --   -0.12212
  Beta virt. eigenvalues --    0.06614   0.07464   0.07911   0.08240   0.08848
  Beta virt. eigenvalues --    0.09003   0.09577   0.09969   0.10246   0.10550
  Beta virt. eigenvalues --    0.11209   0.11785   0.12030   0.12945   0.13191

 Mulliken charges and spin densities:
               1          2
     1  C    4.780269  -5.572722
     2  C   -3.451826   3.111175
     3  C    0.306959  -0.214160
     4  S    0.661819  -0.706696
     5  C   -0.272348   0.339596
     6  O   -0.302679  -0.002090
     7  N    0.372269   0.058606
     8  C    0.025522  -0.213750
     9  C    0.336641  -0.171757
    10  O   -0.343388   0.021820
    11  N   -0.068690  -0.044810
    12  C   -1.497724   1.119868
    13  C    0.335284  -0.990629
    14  C    0.831416  -0.949565
    15  H   -0.636683   0.808915
    16  H   -0.579172   0.759554
    17  H   -0.456376   0.647442
    18  H   -1.304297   1.601643
    19  H    0.142157   0.109849
    20  H   -0.080641   0.279274
    21  H    0.275145   0.023389
    22  H    0.150250   0.091330
    23  H   -0.045191   0.199086
    24  H   -0.019889   0.160840
    25  H   -0.156953   0.341611
    26  H   -0.001875   0.192182
 Sum of Mulliken charges =  -1.00000   1.00000

 Dipole moment (field-independent basis, Debye):
    X=             -2.7801    Y=             -3.5630    Z=             -5.6028  Tot=              7.1983
 Quadrupole moment (field-independent basis, Debye-Ang):
   XX=           -142.9299   YY=           -149.6500   ZZ=           -133.9019
   XY=            -17.3259   XZ=             -1.6338   YZ=            -13.3766

 Summary of Natural Population Analysis:

                                       Natural Population
                Natural  -----------------------------------------------
    Atom  No    Charge         Core      Valence    Rydberg      Total
 -----------------------------------------------------------------------
      C    1   -0.30343      0.99962     2.29672    0.00709     3.30343
      C    2    0.08561      0.99946     1.90042    0.01451     2.91439
      C    3   -0.20159      0.99941     2.19132    0.01087     3.20159
      S    4    0.13731      4.99949     2.84382    0.01937     7.86269
      C    5    0.25964      0.99967     1.71145    0.02924     2.74036
      O    6   -0.31091      0.99987     3.30417    0.00687     4.31091
      N    7   -0.25044      0.99958     2.73795    0.01291     3.75044
      C    8   -0.12545      0.99956     2.11428    0.01161     3.12545
      C    9    0.35006      0.99968     1.62621    0.02405     2.64994
      O   10   -0.31702      0.99988     3.31154    0.00560     4.31702
      N   11   -0.31902      0.99965     2.80954    0.00983     3.81902
      C   12   -0.02976      0.99957     2.01881    0.01138     3.02976
      C   13   -0.19549      0.99962     2.18688    0.00899     3.19549
      C   14   -0.19787      0.99962     2.18770    0.01055     3.19787
      H   15    0.11110      0.00000     0.38535    0.00355     0.38890
      H   16    0.12002      0.00000     0.37520    0.00478     0.37998
      H   17    0.10988      0.00000     0.38813    0.00199     0.39012
      H   18    0.11938      0.00000     0.37795    0.00267     0.38062
      H   19    0.11483      0.00000     0.38413    0.00104     0.38517
      H   20    0.11909      0.00000     0.37925    0.00166     0.38091
      H   21    0.19380      0.00000     0.30416    0.00203     0.30620
      H   22    0.10162      0.00000     0.39634    0.00205     0.39838
      H   23    0.10488      0.00000     0.39438    0.00074     0.39512
      H   24    0.10388      0.00000     0.39514    0.00098     0.39612
      H   25    0.10788      0.00000     0.39003    0.00208     0.39212
      H   26    0.11202      0.00000     0.38614    0.00185     0.38798
 =======================================================================
   * Total *   -0.00000     17.99466    37.79702    0.20832    56.00000

 Normal termination of Gaussian 16 at Thu Dec 10 10:53:34 2020.
