 Gaussian 16, Revision A.03,

 -----------------------------------------------------------
 # opt freq B3LYP/6-31G(d) empiricaldispersion=gd3bj scf=xqc
 -----------------------------------------------------------

 ------------------------------
 CID_65380622_JID_9082_neutraal
 ------------------------------
 Symbolic Z-matrix:
 Charge =  0 Multiplicity = 1

 SCF Done:  E(RB3LYP) =  -1296.57624733     A.U. after   15 cycles
 SCF Done:  E(RB3LYP) =  -1296.58176809     A.U. after   13 cycles
 SCF Done:  E(RB3LYP) =  -1296.58230586     A.U. after   13 cycles
 SCF Done:  E(RB3LYP) =  -1296.58336620     A.U. after   13 cycles
 SCF Done:  E(RB3LYP) =  -1296.58446596     A.U. after   12 cycles
 SCF Done:  E(RB3LYP) =  -1296.58470130     A.U. after   12 cycles
 SCF Done:  E(RB3LYP) =  -1296.58472998     A.U. after   12 cycles
 SCF Done:  E(RB3LYP) =  -1296.58498984     A.U. after   12 cycles
 SCF Done:  E(RB3LYP) =  -1296.58508083     A.U. after   11 cycles
 SCF Done:  E(RB3LYP) =  -1296.58511793     A.U. after   11 cycles
 SCF Done:  E(RB3LYP) =  -1296.58606998     A.U. after   12 cycles
 SCF Done:  E(RB3LYP) =  -1296.58609572     A.U. after   12 cycles
 SCF Done:  E(RB3LYP) =  -1296.58609662     A.U. after    8 cycles
 SCF Done:  E(RB3LYP) =  -1296.58609682     A.U. after    9 cycles
 SCF Done:  E(RB3LYP) =  -1296.58609683     A.U. after    7 cycles
 SCF Done:  E(RB3LYP) =  -1296.58609684     A.U. after    7 cycles
 Optimization completed.
    -- Stationary point found.
 Normal termination of Gaussian 16 at Sun Dec 13 16:58:49 2020.

 --------------------------------------------------------------------
 #N Geom=AllCheck Guess=TCheck SCRF=Check GenChk RB3LYP/6-31G(d) Freq
 --------------------------------------------------------------------

 Structure from the checkpoint file:  "JID_9082.chk"
 ------------------------------
 CID_65380622_JID_9082_neutraal
 ------------------------------
 Charge =  0 Multiplicity = 1

 SCF Done:  E(RB3LYP) =  -1296.58609684     A.U. after    1 cycles

  Exact polarizability: 206.388   3.609 182.076  -4.705   1.133 106.921
 Approx polarizability: 293.297   4.313 274.764  -5.026   8.864 164.400

                      1                      2                      3
                      A                      A                      A
 Frequencies --     16.0893                23.2841                44.2526
 Red. masses --      7.1619                 3.6086                 4.0470
 Frc consts  --      0.0011                 0.0012                 0.0047
 IR Inten    --      1.6544                 0.6276                 1.5061

                      4                      5                      6
                      A                      A                      A
 Frequencies --     65.2997                68.5314               104.0248
 Red. masses --      4.6516                 4.6807                 3.3325
 Frc consts  --      0.0117                 0.0130                 0.0212
 IR Inten    --      3.4211                 1.0002                 5.2172

                      7                      8                      9
                      A                      A                      A
 Frequencies --    119.9418               124.4510               142.3771
 Red. masses --      2.3472                 3.2940                 2.7107
 Frc consts  --      0.0199                 0.0301                 0.0324
 IR Inten    --     11.6860                 3.6527                 6.5238

                     10                     11                     12
                      A                      A                      A
 Frequencies --    157.5882               176.4544               194.4612
 Red. masses --      1.1483                 2.2921                 4.2725
 Frc consts  --      0.0168                 0.0420                 0.0952
 IR Inten    --      5.6596                19.9142                 3.5483

                     13                     14                     15
                      A                      A                      A
 Frequencies --    210.1072               218.5098               237.5599
 Red. masses --      1.0923                 4.7339                 3.1752
 Frc consts  --      0.0284                 0.1332                 0.1056
 IR Inten    --      0.0878                 0.7424                 0.7358

                     16                     17                     18
                      A                      A                      A
 Frequencies --    255.8601               269.0972               275.0947
 Red. masses --      1.1450                 4.9013                 1.1637
 Frc consts  --      0.0442                 0.2091                 0.0519
 IR Inten    --      0.0674                 3.1798                 0.1999

                     19                     20                     21
                      A                      A                      A
 Frequencies --    291.6676               331.7770               339.3244
 Red. masses --      4.2533                 3.5187                 4.0349
 Frc consts  --      0.2132                 0.2282                 0.2737
 IR Inten    --      3.7169                 3.2677                 7.8789

                     22                     23                     24
                      A                      A                      A
 Frequencies --    353.5071               379.6654               395.1734
 Red. masses --      2.5795                 6.0138                 3.8823
 Frc consts  --      0.1899                 0.5107                 0.3572
 IR Inten    --      2.0150                 8.8161                 4.6080

                     25                     26                     27
                      A                      A                      A
 Frequencies --    418.5795               431.8299               447.4195
 Red. masses --      4.4728                 3.0590                 3.7764
 Frc consts  --      0.4617                 0.3361                 0.4454
 IR Inten    --      6.1299                 0.9900                 4.8582

                     28                     29                     30
                      A                      A                      A
 Frequencies --    466.1209               475.3063               497.3470
 Red. masses --      3.3271                 4.3876                 5.9229
 Frc consts  --      0.4259                 0.5840                 0.8632
 IR Inten    --      7.2726                 2.3183                 6.2414

                     31                     32                     33
                      A                      A                      A
 Frequencies --    536.6570               555.0654               587.2683
 Red. masses --      5.8163                 4.1099                 3.8805
 Frc consts  --      0.9869                 0.7461                 0.7885
 IR Inten    --    119.2278                 7.1843                34.6114

                     34                     35                     36
                      A                      A                      A
 Frequencies --    657.1595               688.3501               697.5046
 Red. masses --      6.0778                 3.1616                 6.9036
 Frc consts  --      1.5465                 0.8826                 1.9789
 IR Inten    --     22.9151               255.3851                 7.2707

                     37                     38                     39
                      A                      A                      A
 Frequencies --    747.0395               757.6151               795.8819
 Red. masses --      5.0609                 4.6324                 4.5344
 Frc consts  --      1.6640                 1.5666                 1.6922
 IR Inten    --      3.3428                 7.8750                 7.4885

                     40                     41                     42
                      A                      A                      A
 Frequencies --    824.8388               859.8297               867.7003
 Red. masses --      4.3243                 1.7556                 3.9181
 Frc consts  --      1.7334                 0.7647                 1.7381
 IR Inten    --      1.0804                17.6801                28.6553

                     43                     44                     45
                      A                      A                      A
 Frequencies --    880.2961               924.6920               939.3996
 Red. masses --      2.2428                 3.9823                 1.6292
 Frc consts  --      1.0240                 2.0062                 0.8471
 IR Inten    --     93.0274                57.8673                 0.1791

                     46                     47                     48
                      A                      A                      A
 Frequencies --    941.8163               948.5044               972.5576
 Red. masses --      1.7491                 1.3623                 1.3309
 Frc consts  --      0.9141                 0.7221                 0.7417
 IR Inten    --      3.8099                 6.4380                 1.1403

                     49                     50                     51
                      A                      A                      A
 Frequencies --    983.5117              1043.2781              1066.7268
 Red. masses --      1.1980                 8.0797                 1.4052
 Frc consts  --      0.6827                 5.1814                 0.9421
 IR Inten    --      0.1631                80.7621                 0.3421

                     52                     53                     54
                      A                      A                      A
 Frequencies --   1072.4130              1099.8452              1110.9686
 Red. masses --      1.4442                 2.7699                 1.6801
 Frc consts  --      0.9786                 1.9741                 1.2218
 IR Inten    --      3.9387                60.1073                42.5154

                     55                     56                     57
                      A                      A                      A
 Frequencies --   1121.3252              1155.4194              1175.8573
 Red. masses --      2.8537                 3.5005                 1.5433
 Frc consts  --      2.1141                 2.7533                 1.2572
 IR Inten    --    180.0522               199.0484                85.0703

                     58                     59                     60
                      A                      A                      A
 Frequencies --   1181.2342              1218.0813              1218.9953
 Red. masses --      1.2575                 1.5815                 1.8961
 Frc consts  --      1.0338                 1.3826                 1.6600
 IR Inten    --      5.9745                89.9829               200.7570

                     61                     62                     63
                      A                      A                      A
 Frequencies --   1281.4815              1287.6403              1289.3754
 Red. masses --      1.8381                 2.6982                 2.8759
 Frc consts  --      1.7785                 2.6359                 2.8170
 IR Inten    --     59.8375                21.8603               144.7904

                     64                     65                     66
                      A                      A                      A
 Frequencies --   1298.6245              1313.4900              1344.2343
 Red. masses --      2.9514                 3.7902                 9.0872
 Frc consts  --      2.9325                 3.8527                 9.6746
 IR Inten    --     48.8279               204.2775               243.6659

                     67                     68                     69
                      A                      A                      A
 Frequencies --   1366.4649              1424.9353              1428.6382
 Red. masses --      9.5388                 1.2791                 1.2922
 Frc consts  --     10.4940                 1.5302                 1.5539
 IR Inten    --     27.4032                17.7169                21.9066

                     70                     71                     72
                      A                      A                      A
 Frequencies --   1438.3825              1453.6063              1487.2713
 Red. masses --      3.5691                 1.2352                 1.3511
 Frc consts  --      4.3506                 1.5378                 1.7609
 IR Inten    --     15.0769                19.1291                11.3553

                     73                     74                     75
                      A                      A                      A
 Frequencies --   1500.3625              1513.0779              1519.4911
 Red. masses --      1.0467                 1.0545                 1.0466
 Frc consts  --      1.3882                 1.4224                 1.4238
 IR Inten    --      0.4357                 2.8497                 0.5351

                     76                     77                     78
                      A                      A                      A
 Frequencies --   1520.8112              1525.2543              1534.0716
 Red. masses --      1.0515                 1.0686                 1.7214
 Frc consts  --      1.4328                 1.4647                 2.3868
 IR Inten    --      0.8052                15.1435                41.8561

                     79                     80                     81
                      A                      A                      A
 Frequencies --   1534.5933              1536.5998              1556.4930
 Red. masses --      1.0890                 1.1725                 1.0555
 Frc consts  --      1.5109                 1.6311                 1.5066
 IR Inten    --      6.2701                19.5271                11.8322

                     82                     83                     84
                      A                      A                      A
 Frequencies --   1619.5180              1622.5275              1651.7084
 Red. masses --      1.3550                 3.1894                 6.2417
 Frc consts  --      2.0939                 4.9470                10.0327
 IR Inten    --     42.0901                23.1044                44.4531

                     85                     86                     87
                      A                      A                      A
 Frequencies --   1792.9408              3040.6643              3059.6252
 Red. masses --     11.8589                 1.0405                 1.0353
 Frc consts  --     22.4609                 5.6681                 5.7104
 IR Inten    --    267.3955                63.9933                 8.1302

                     88                     89                     90
                      A                      A                      A
 Frequencies --   3061.8531              3068.5308              3124.4786
 Red. masses --      1.0382                 1.0384                 1.1026
 Frc consts  --      5.7345                 5.7607                 6.3421
 IR Inten    --     21.4556                19.5051                 6.1033

                     91                     92                     93
                      A                      A                      A
 Frequencies --   3126.0904              3133.2437              3136.6741
 Red. masses --      1.1025                 1.0934                 1.1033
 Frc consts  --      6.3477                 6.3246                 6.3957
 IR Inten    --     15.5470                25.2010                28.6554

                     94                     95                     96
                      A                      A                      A
 Frequencies --   3138.8535              3172.9738              3173.4209
 Red. masses --      1.1025                 1.1070                 1.0999
 Frc consts  --      6.4000                 6.5662                 6.5260
 IR Inten    --     49.7927                19.4902                 1.2486

                     97                     98                     99
                      A                      A                      A
 Frequencies --   3176.7134              3214.8788              3231.3713
 Red. masses --      1.0993                 1.0888                 1.0947
 Frc consts  --      6.5361                 6.6302                 6.7345
 IR Inten    --     11.5325                 3.4501                 1.7474

                    100                    101                    102
                      A                      A                      A
 Frequencies --   3255.9159              3488.1142              3599.3498
 Red. masses --      1.0904                 1.0468                 1.0977
 Frc consts  --      6.8107                 7.5043                 8.3788
 IR Inten    --      2.8671                34.6047                32.1966

 - Thermochemistry -
 -------------------
 Temperature   298.150 Kelvin.  Pressure   1.00000 Atm.
 Atom     1 has atomic number  6 and mass  12.00000

 Molecular mass:   287.08274 amu.
 Principal axes and moments of inertia in atomic units:
                           1         2         3
     Eigenvalues --  3947.186638129.34071**********
           X            0.99946  -0.03223  -0.00712
           Y            0.03212   0.99937  -0.01513
           Z            0.00761   0.01489   0.99986
 This molecule is an asymmetric top.
 Rotational symmetry number  1.
 Warning -- assumption of classical behavior for rotation
           may cause significant error
 Rotational temperatures (Kelvin)      0.02194     0.01065     0.00778
 Rotational constants (GHZ):           0.45722     0.22200     0.16202
 Zero-point vibrational energy     754872.8 (Joules/Mol)
                                  180.41893 (Kcal/Mol)
 Warning -- explicit consideration of  33 degrees of freedom as
           vibrations may cause significant error
 Vibrational temperatures:     23.15    33.50    63.67    93.95    98.60
          (Kelvin)            149.67   172.57   179.06   204.85   226.73
                              253.88   279.79   302.30   314.39   341.80
                              368.13   387.17   395.80   419.64   477.35
                              488.21   508.62   546.25   568.57   602.24
                              621.31   643.74   670.64   683.86   715.57
                              772.13   798.62   844.95   945.51   990.38
                             1003.55  1074.82  1090.04  1145.10  1186.76
                             1237.10  1248.43  1266.55  1330.43  1351.59
                             1355.06  1364.69  1399.29  1415.05  1501.04
                             1534.78  1542.96  1582.43  1598.44  1613.34
                             1662.39  1691.80  1699.53  1752.55  1753.86
                             1843.77  1852.63  1855.12  1868.43  1889.82
                             1934.05  1966.04  2050.16  2055.49  2069.51
                             2091.42  2139.85  2158.69  2176.98  2186.21
                             2188.11  2194.50  2207.19  2207.94  2210.82
                             2239.45  2330.13  2334.46  2376.44  2579.64
                             4374.84  4402.12  4405.32  4414.93  4495.43
                             4497.75  4508.04  4512.97  4516.11  4565.20
                             4565.84  4570.58  4625.49  4649.22  4684.54
                             5018.62  5178.66

 Zero-point correction=                           0.287516 (Hartree/Particle)
 Thermal correction to Energy=                    0.307983
 Thermal correction to Enthalpy=                  0.308927
 Thermal correction to Gibbs Free Energy=         0.236922
 Sum of electronic and zero-point Energies=          -1296.298581
 Sum of electronic and thermal Energies=             -1296.278114
 Sum of electronic and thermal Enthalpies=           -1296.277170
 Sum of electronic and thermal Free Energies=        -1296.349175

                     E (Thermal)             CV                S
                      KCal/Mol        Cal/Mol-Kelvin    Cal/Mol-Kelvin
 Total                  193.262             75.329            151.547
 Electronic               0.000              0.000              0.000
 Translational            0.889              2.981             42.862
 Rotational               0.889              2.981             34.235
 Vibrational            191.485             69.368             74.451
 Vibration     1          0.593              1.986              7.066
 Vibration     2          0.593              1.985              6.332
 Vibration     3          0.595              1.980              5.059
 Vibration     4          0.597              1.971              4.290
 Vibration     5          0.598              1.969              4.195
 Vibration     6          0.605              1.946              3.377
 Vibration     7          0.609              1.933              3.101
 Vibration     8          0.610              1.929              3.030
 Vibration     9          0.616              1.911              2.772
 Vibration    10          0.621              1.894              2.579
 Vibration    11          0.628              1.871              2.366
 Vibration    12          0.635              1.848              2.185
 Vibration    13          0.642              1.825              2.043
 Vibration    14          0.646              1.813              1.971
 Vibration    15          0.656              1.783              1.821
 Vibration    16          0.666              1.753              1.690
 Vibration    17          0.673              1.730              1.602
 Vibration    18          0.677              1.719              1.564
 Vibration    19          0.687              1.689              1.464
 Vibration    20          0.714              1.612              1.251
 Vibration    21          0.719              1.597              1.215
 Vibration    22          0.730              1.568              1.151
 Vibration    23          0.750              1.514              1.040
 Vibration    24          0.762              1.480              0.981
 Vibration    25          0.781              1.430              0.897
 Vibration    26          0.793              1.401              0.853
 Vibration    27          0.807              1.367              0.804
 Vibration    28          0.823              1.325              0.748
 Vibration    29          0.832              1.305              0.723
 Vibration    30          0.853              1.256              0.665
 Vibration    31          0.892              1.169              0.573
 Vibration    32          0.911              1.129              0.534
 Vibration    33          0.944              1.059              0.472

 Optimization completed.
    -- Stationary point found.
 Normal termination of Gaussian 16 at Sun Dec 13 17:16:39 2020.

 ----------------------------------------------------------------------
 # B3LYP/6-311++G(d,p) empiricaldispersion=gd3bj scf=xqc pop=npa geom=c
 heck
 ----------------------------------------------------------------------

 --------------------------------------
 CID_65380622_JID_9082_Energie_neutraal
 --------------------------------------
 Structure from the checkpoint file:  "JID_9082.chk"
 Charge =  0 Multiplicity = 1

 SCF Done:  E(RB3LYP) =  -1296.87366232     A.U. after   16 cycles
 Normal termination of Gaussian 16 at Sun Dec 13 17:25:19 2020.

 ----------------------------------------------------------------------
 # B3LYP/6-311++G(d,p) empiricaldispersion=gd3bj scf=xqc pop=npa geom=c
 heck
 ----------------------------------------------------------------------

 ------------------------------------
 CID_65380622_JID_9082_Energie_kation
 ------------------------------------
 Structure from the checkpoint file:  "JID_9082.chk"
 Charge =  1 Multiplicity = 2

 SCF Done:  E(UB3LYP) =  -1296.54328607     A.U. after   30 cycles
 Normal termination of Gaussian 16 at Sun Dec 13 17:48:29 2020.
 Gaussian 16:  ES64L-G16RevA.03 25-Dec-2016

 ----------------------------------------------------------------------
 # B3LYP/6-311++G(d,p) empiricaldispersion=gd3bj scf=xqc pop=npa geom=c
 heck
 ----------------------------------------------------------------------

 -----------------------------------
 CID_65380622_JID_9082_Energie_anion
 -----------------------------------
 Structure from the checkpoint file:  "JID_9082.chk"
 Charge = -1 Multiplicity = 2

                         Standard orientation:
 ---------------------------------------------------------------------
 Center     Atomic      Atomic             Coordinates (Angstroms)
 Number     Number       Type             X           Y           Z
 ---------------------------------------------------------------------
      1          6           0        2.923470   -2.997704    0.492648
      2          6           0        3.242925   -1.563411    0.074387
      3          6           0        4.259519   -0.929687    1.025257
      4          6           0        3.693125   -1.508930   -1.386362
      5          8           0        1.937944   -0.891701    0.221646
      6          6           0        1.777474    0.408250   -0.084147
      7          8           0        2.663480    1.158752   -0.444095
      8          6           0        0.340415    0.800168    0.057170
      9          6           0       -0.037316    2.132119    0.322450
     10          6           0       -1.394384    2.471614    0.410707
     11          6           0       -2.380682    1.510700    0.239347
     12          6           0       -1.997392    0.190086   -0.007477
     13          6           0       -0.659462   -0.170140   -0.092519
     14         16           0       -3.252689   -1.058600   -0.227865
     15          8           0       -4.394336   -0.454179   -0.919388
     16          8           0       -2.590283   -2.266268   -0.731416
     17          7           0       -3.785058   -1.326089    1.362836
     18          8           0        0.886184    3.102832    0.576252
     19          6           0        1.297625    3.868500   -0.563788
     20          1           0        3.825770   -3.614489    0.432261
     21          1           0        2.161577   -3.430568   -0.163240
     22          1           0        2.551347   -3.024575    1.521485
     23          1           0        5.186426   -1.513147    1.006501
     24          1           0        4.483148    0.097621    0.735924
     25          1           0        3.873426   -0.934734    2.049920
     26          1           0        2.911709   -1.912394   -2.039020
     27          1           0        3.920626   -0.487414   -1.692977
     28          1           0        4.591662   -2.122685   -1.511483
     29          1           0       -1.649866    3.503317    0.628919
     30          1           0       -3.431934    1.771806    0.292314
     31          1           0       -0.387809   -1.198948   -0.290102
     32          1           0       -4.798790   -1.425490    1.343836
     33          1           0       -3.348353   -2.165271    1.740427
     34          1           0        1.816254    3.229382   -1.282156
     35          1           0        0.434262    4.356250   -1.034712
     36          1           0        1.983150    4.626682   -0.181937
 ---------------------------------------------------------------------

 SCF Done:  E(UB3LYP) =  -1296.88717168     A.U. after   28 cycles

 The electronic state is 2-A.
 Alpha  occ. eigenvalues --  -88.94203 -19.02235 -19.00006 -18.99872 -18.99849
 Alpha  occ. eigenvalues --  -18.94974 -14.23326 -10.13986 -10.13772 -10.08894
 Alpha  occ. eigenvalues --  -10.07574 -10.06940 -10.06085 -10.06083 -10.05744
 Alpha  occ. eigenvalues --  -10.04742 -10.03367 -10.02839 -10.02417  -8.00384
 Alpha  occ. eigenvalues --   -5.96711  -5.96649  -5.96404  -1.00101  -0.96102
 Alpha  occ. eigenvalues --   -0.91861  -0.89292  -0.87173  -0.80015  -0.72529
 Alpha  occ. eigenvalues --   -0.70841  -0.63574  -0.62152  -0.59915  -0.59651
 Alpha  occ. eigenvalues --   -0.57648  -0.53299  -0.52136  -0.48295  -0.45348
 Alpha  occ. eigenvalues --   -0.42821  -0.41765  -0.40288  -0.39283  -0.37473
 Alpha  occ. eigenvalues --   -0.36212  -0.36000  -0.35386  -0.34902  -0.33303
 Alpha  occ. eigenvalues --   -0.32933  -0.32351  -0.31861  -0.31113  -0.30347
 Alpha  occ. eigenvalues --   -0.29353  -0.29138  -0.28253  -0.27755  -0.27237
 Alpha  occ. eigenvalues --   -0.25089  -0.24846  -0.24582  -0.23717  -0.23312
 Alpha  occ. eigenvalues --   -0.21878  -0.21743  -0.20940  -0.20059  -0.19079
 Alpha  occ. eigenvalues --   -0.18122  -0.17479  -0.14353  -0.13071  -0.12333
 Alpha  occ. eigenvalues --   -0.11579   0.04328
 Alpha virt. eigenvalues --    0.06781   0.07238   0.08882   0.09224   0.09529
 Alpha virt. eigenvalues --    0.10271   0.10569   0.10839   0.11512   0.12023
 Alpha virt. eigenvalues --    0.12118   0.12626   0.13509   0.13707   0.13854

  Beta  occ. eigenvalues --  -88.94196 -19.02149 -18.99994 -18.99860 -18.99820
  Beta  occ. eigenvalues --  -18.94710 -14.23311 -10.13772 -10.13769 -10.08835
  Beta  occ. eigenvalues --  -10.07175 -10.06940 -10.06079 -10.06079 -10.05720
  Beta  occ. eigenvalues --  -10.04748 -10.03492 -10.02648 -10.01908  -8.00376
  Beta  occ. eigenvalues --   -5.96689  -5.96639  -5.96401  -1.00049  -0.95820
  Beta  occ. eigenvalues --   -0.91693  -0.89251  -0.86763  -0.79970  -0.72166
  Beta  occ. eigenvalues --   -0.70739  -0.63116  -0.61696  -0.59907  -0.59639
  Beta  occ. eigenvalues --   -0.57467  -0.53067  -0.51733  -0.47970  -0.45077
  Beta  occ. eigenvalues --   -0.42718  -0.41656  -0.40186  -0.39162  -0.37322
  Beta  occ. eigenvalues --   -0.36068  -0.35902  -0.35192  -0.34663  -0.32905
  Beta  occ. eigenvalues --   -0.32845  -0.32188  -0.31533  -0.30994  -0.30259
  Beta  occ. eigenvalues --   -0.29247  -0.29006  -0.27997  -0.27536  -0.27040
  Beta  occ. eigenvalues --   -0.24835  -0.24638  -0.24485  -0.23210  -0.22951
  Beta  occ. eigenvalues --   -0.21588  -0.21580  -0.20726  -0.20007  -0.19003
  Beta  occ. eigenvalues --   -0.17926  -0.16577  -0.14203  -0.12494  -0.11501
  Beta  occ. eigenvalues --   -0.09884
  Beta virt. eigenvalues --    0.06749   0.07215   0.08732   0.09200   0.09427
  Beta virt. eigenvalues --    0.10213   0.10718   0.10902   0.10975   0.11499
  Beta virt. eigenvalues --    0.11990   0.12098   0.12550   0.13501   0.13673

 Mulliken charges and spin densities:
               1          2
     1  C   -0.411243  -0.003268
     2  C   -0.070808   0.008968
     3  C   -0.411309   0.003137
     4  C   -0.317728  -0.023665
     5  O    0.155394   0.015091
     6  C    0.034334   0.163295
     7  O   -0.283034   0.088621
     8  C    1.127067   0.122330
     9  C   -1.102214   0.287040
    10  C    0.053156  -0.086824
    11  C    0.018393   0.402122
    12  C   -0.644767  -0.009521
    13  C   -0.847120  -0.022228
    14  S    0.167867   0.036503
    15  O   -0.264927  -0.007126
    16  O   -0.218453   0.004106
    17  N   -0.320713  -0.018498
    18  O   -0.137437   0.000222
    19  C   -0.210800  -0.076768
    20  H    0.117097   0.001204
    21  H    0.155155   0.000677
    22  H    0.154629   0.000351
    23  H    0.131565  -0.000162
    24  H    0.191303   0.000885
    25  H    0.131209   0.000830
    26  H    0.128981   0.001170
    27  H    0.179205   0.011543
    28  H    0.132558   0.009879
    29  H    0.123551   0.009778
    30  H    0.192463  -0.031941
    31  H    0.223527   0.001586
    32  H    0.255083   0.020168
    33  H    0.249960   0.013579
    34  H    0.151875   0.020619
    35  H    0.080744   0.018787
    36  H    0.085434   0.037510
 Sum of Mulliken charges =  -1.00000   1.00000

 Dipole moment (field-independent basis, Debye):
    X=              2.6388    Y=             -3.3327    Z=              2.1428  Tot=              4.7605
 Quadrupole moment (field-independent basis, Debye-Ang):
   XX=           -161.4268   YY=           -141.0773   ZZ=           -132.4995
   XY=             -7.2792   XZ=            -11.0938   YZ=             -8.6432

 Summary of Natural Population Analysis:

                                       Natural Population
                Natural  -----------------------------------------------
    Atom  No    Charge         Core      Valence    Rydberg      Total
 -----------------------------------------------------------------------
      C    1   -0.28794      0.99961     2.28261    0.00573     3.28794
      C    2    0.13435      0.99956     1.85434    0.01175     2.86565
      C    3   -0.30029      0.99961     2.29530    0.00538     3.30029
      C    4   -0.30073      0.99961     2.29586    0.00526     3.30073
      O    5   -0.29396      0.99985     3.28424    0.00987     4.29396
      C    6    0.43345      0.99964     1.54278    0.02413     2.56655
      O    7   -0.30443      0.99987     3.29900    0.00557     4.30443
      C    8   -0.06705      0.99941     2.05642    0.01121     3.06705
      C    9    0.24923      0.99935     1.73889    0.01252     2.75077
      C   10   -0.15167      0.99953     2.14338    0.00876     3.15167
      C   11    0.00776      0.99952     1.98265    0.01007     2.99224
      C   12   -0.15337      0.99936     2.13898    0.01503     3.15337
      C   13   -0.07529      0.99949     2.06680    0.00901     3.07529
      S   14    1.09537      4.99926     1.80351    0.10186     6.90463
      O   15   -0.47213      0.99991     3.46640    0.00583     4.47213
      O   16   -0.47030      0.99991     3.46469    0.00570     4.47030
      N   17   -0.51522      0.99979     3.00476    0.01067     4.01522
      O   18   -0.29219      0.99986     3.28155    0.01079     4.29219
      C   19   -0.09050      0.99959     2.08282    0.00809     3.09050
      H   20    0.09325      0.00000     0.40597    0.00078     0.40675
      H   21    0.10408      0.00000     0.39507    0.00085     0.39592
      H   22    0.10259      0.00000     0.39657    0.00084     0.39741
      H   23    0.09203      0.00000     0.40715    0.00083     0.40797
      H   24    0.11819      0.00000     0.38086    0.00095     0.38181
      H   25    0.10078      0.00000     0.39840    0.00083     0.39922
      H   26    0.10171      0.00000     0.39744    0.00084     0.39829
      H   27    0.11715      0.00000     0.38192    0.00093     0.38285
      H   28    0.09292      0.00000     0.40624    0.00083     0.40708
      H   29    0.09667      0.00000     0.40222    0.00112     0.40333
      H   30    0.09646      0.00000     0.40237    0.00116     0.40354
      H   31    0.11503      0.00000     0.38384    0.00113     0.38497
      H   32    0.18874      0.00000     0.30904    0.00222     0.31126
      H   33    0.18883      0.00000     0.30929    0.00188     0.31117
      H   34    0.09371      0.00000     0.40400    0.00229     0.40629
      H   35    0.07241      0.00000     0.42541    0.00218     0.42759
      H   36    0.08035      0.00000     0.41824    0.00140     0.41965
 =======================================================================
   * Total *   -0.00000     22.99271    52.70900    0.29829    76.00000

 Normal termination of Gaussian 16 at Sun Dec 13 18:09:52 2020.
