 Gaussian 16, Revision A.03,

 -----------------------------------------------------------
 # opt freq B3LYP/6-31G(d) empiricaldispersion=gd3bj scf=xqc
 -----------------------------------------------------------

 -------------------------------
 CID_66274103_JID_10899_neutraal
 -------------------------------
 Symbolic Z-matrix:
 Charge =  0 Multiplicity = 1

 SCF Done:  E(RB3LYP) =  -910.204401632     A.U. after   16 cycles
 SCF Done:  E(RB3LYP) =  -910.216148705     A.U. after   13 cycles
 SCF Done:  E(RB3LYP) =  -910.215993226     A.U. after   15 cycles
 SCF Done:  E(RB3LYP) =  -910.217128612     A.U. after   14 cycles
 SCF Done:  E(RB3LYP) =  -910.218597939     A.U. after   13 cycles
 SCF Done:  E(RB3LYP) =  -910.219061969     A.U. after   13 cycles
 SCF Done:  E(RB3LYP) =  -910.219329113     A.U. after   12 cycles
 SCF Done:  E(RB3LYP) =  -910.219592007     A.U. after   13 cycles
 SCF Done:  E(RB3LYP) =  -910.219850538     A.U. after   12 cycles
 SCF Done:  E(RB3LYP) =  -910.220332384     A.U. after   13 cycles
 SCF Done:  E(RB3LYP) =  -910.225231782     A.U. after   10 cycles
 SCF Done:  E(RB3LYP) =  -910.225243252     A.U. after   10 cycles
 SCF Done:  E(RB3LYP) =  -910.225243517     A.U. after    8 cycles
 SCF Done:  E(RB3LYP) =  -910.225243545     A.U. after    7 cycles
 SCF Done:  E(RB3LYP) =  -910.225243734     A.U. after    8 cycles
 Optimization completed.
    -- Stationary point found.
 Normal termination of Gaussian 16 at Sat Dec 12 16:49:44 2020.

 --------------------------------------------------------------------
 #N Geom=AllCheck Guess=TCheck SCRF=Check GenChk RB3LYP/6-31G(d) Freq
 --------------------------------------------------------------------

 Structure from the checkpoint file:  "JID_10899.chk"
 -------------------------------
 CID_66274103_JID_10899_neutraal
 -------------------------------
 Charge =  0 Multiplicity = 1

 SCF Done:  E(RB3LYP) =  -910.225243734     A.U. after    1 cycles

  Exact polarizability: 173.368  25.330 165.443 -20.209  -5.913 163.209
 Approx polarizability: 259.764  67.354 292.808 -50.733 -16.846 306.725

                      1                      2                      3
                      A                      A                      A
 Frequencies --     17.1587                33.8226                56.8786
 Red. masses --      6.3946                 4.7550                 4.7893
 Frc consts  --      0.0011                 0.0032                 0.0091
 IR Inten    --      0.2121                 0.2731                 0.1713

                      4                      5                      6
                      A                      A                      A
 Frequencies --     70.2305                96.7454               156.4468
 Red. masses --      7.6649                 6.2314                 4.3058
 Frc consts  --      0.0223                 0.0344                 0.0621
 IR Inten    --      2.5688                 0.3846                 2.9401

                      7                      8                      9
                      A                      A                      A
 Frequencies --    168.2227               187.0540               187.6365
 Red. masses --      6.8028                 1.5971                 2.4368
 Frc consts  --      0.1134                 0.0329                 0.0505
 IR Inten    --      6.4857                 1.0180                 0.8139

                     10                     11                     12
                      A                      A                      A
 Frequencies --    217.4370               261.0262               264.8108
 Red. masses --      3.1489                 3.8170                 5.5069
 Frc consts  --      0.0877                 0.1532                 0.2275
 IR Inten    --      0.6639                 0.9872                 6.9000

                     13                     14                     15
                      A                      A                      A
 Frequencies --    288.7862               338.4225               370.6813
 Red. masses --      6.7583                 4.4932                 6.5089
 Frc consts  --      0.3321                 0.3032                 0.5269
 IR Inten    --      5.6008                 1.4201                 0.8011

                     16                     17                     18
                      A                      A                      A
 Frequencies --    395.2985               422.4820               436.3611
 Red. masses --      3.3102                 3.7286                 3.6152
 Frc consts  --      0.3048                 0.3921                 0.4056
 IR Inten    --      3.2481                 7.1400                 2.3105

                     19                     20                     21
                      A                      A                      A
 Frequencies --    463.4679               498.1729               529.3757
 Red. masses --      3.6958                 3.2500                 4.7647
 Frc consts  --      0.4677                 0.4752                 0.7867
 IR Inten    --      4.0606                 6.5307                 3.2734

                     22                     23                     24
                      A                      A                      A
 Frequencies --    569.2343               575.8235               595.3829
 Red. masses --      5.5698                 6.0548                 6.8952
 Frc consts  --      1.0633                 1.1828                 1.4401
 IR Inten    --      7.2898                 7.1815                 3.5875

                     25                     26                     27
                      A                      A                      A
 Frequencies --    613.8615               621.4470               675.6296
 Red. masses --      5.8993                 5.9356                 5.3763
 Frc consts  --      1.3098                 1.3506                 1.4459
 IR Inten    --     15.1530                32.0501                 1.4395

                     28                     29                     30
                      A                      A                      A
 Frequencies --    697.0506               715.4405               739.3162
 Red. masses --      7.5694                 4.8404                 4.5146
 Frc consts  --      2.1669                 1.4598                 1.4539
 IR Inten    --     25.8068                 2.2767                13.4086

                     31                     32                     33
                      A                      A                      A
 Frequencies --    752.8562               761.5177               792.4849
 Red. masses --      4.2801                 2.2844                 2.5416
 Frc consts  --      1.4293                 0.7805                 0.9405
 IR Inten    --     15.1034                13.9847                29.4895

                     34                     35                     36
                      A                      A                      A
 Frequencies --    802.0648               809.8195               826.0768
 Red. masses --      4.4864                 1.3732                 4.5477
 Frc consts  --      1.7004                 0.5306                 1.8285
 IR Inten    --      0.8459                27.4374                 3.4882

                     37                     38                     39
                      A                      A                      A
 Frequencies --    896.4911               906.9319               936.1249
 Red. masses --      1.2840                 8.2986                 1.2515
 Frc consts  --      0.6080                 4.0217                 0.6462
 IR Inten    --      1.7958                 2.0180                 1.3332

                     40                     41                     42
                      A                      A                      A
 Frequencies --    943.4397               956.2895               976.9821
 Red. masses --      1.4108                 2.9497                 1.4062
 Frc consts  --      0.7398                 1.5893                 0.7908
 IR Inten    --      0.1361                 2.1587                 5.4409

                     43                     44                     45
                      A                      A                      A
 Frequencies --   1001.4192              1005.3600              1028.4993
 Red. masses --      2.6867                 1.5664                 1.5298
 Frc consts  --      1.5874                 0.9328                 0.9535
 IR Inten    --      7.1801                 5.9610                 0.0392

                     46                     47                     48
                      A                      A                      A
 Frequencies --   1031.0370              1042.4038              1075.2044
 Red. masses --      2.4599                 4.5443                 1.5571
 Frc consts  --      1.5407                 2.9093                 1.0606
 IR Inten    --      9.8427                28.4294                10.9285

                     49                     50                     51
                      A                      A                      A
 Frequencies --   1089.4465              1132.7468              1168.6237
 Red. masses --      2.2927                 2.7061                 1.6943
 Frc consts  --      1.6033                 2.0458                 1.3633
 IR Inten    --      3.1424                 7.3193                 5.8080

                     52                     53                     54
                      A                      A                      A
 Frequencies --   1176.2139              1203.8090              1237.7771
 Red. masses --      3.0782                 1.1296                 1.6510
 Frc consts  --      2.5091                 0.9645                 1.4904
 IR Inten    --      1.2921                 2.0164                12.4727

                     55                     56                     57
                      A                      A                      A
 Frequencies --   1238.6427              1275.5335              1310.5011
 Red. masses --      2.6085                 4.0195                 2.2727
 Frc consts  --      2.3580                 3.8531                 2.2996
 IR Inten    --      0.6046               106.0790                73.0062

                     58                     59                     60
                      A                      A                      A
 Frequencies --   1327.9794              1331.0490              1356.0327
 Red. masses --      1.7881                 1.5370                 6.7968
 Frc consts  --      1.8579                 1.6044                 7.3637
 IR Inten    --     48.3445                12.3846                10.0824

                     61                     62                     63
                      A                      A                      A
 Frequencies --   1360.8788              1370.8343              1392.6588
 Red. masses --      1.4538                 1.7202                 3.3958
 Frc consts  --      1.5864                 1.9046                 3.8805
 IR Inten    --      4.6361                 5.8437                47.9212

                     64                     65                     66
                      A                      A                      A
 Frequencies --   1440.3663              1446.6333              1486.1277
 Red. masses --      4.7712                 1.2237                 2.8792
 Frc consts  --      5.8320                 1.5088                 3.7466
 IR Inten    --      5.5607                 4.3957                53.6073

                     67                     68                     69
                      A                      A                      A
 Frequencies --   1487.1877              1492.8125              1510.2576
 Red. masses --      1.6892                 1.1537                 1.1002
 Frc consts  --      2.2013                 1.5148                 1.4785
 IR Inten    --      2.2554                11.9879                10.5981

                     70                     71                     72
                      A                      A                      A
 Frequencies --   1520.4050              1539.8687              1559.6311
 Red. masses --      1.2001                 2.2839                 7.1682
 Frc consts  --      1.6345                 3.1907                10.2732
 IR Inten    --     18.8141                12.5280                 5.1985

                     73                     74                     75
                      A                      A                      A
 Frequencies --   1590.2838              1629.9689              1664.0078
 Red. masses --      7.5243                 5.3807                 5.3003
 Frc consts  --     11.2115                 8.4227                 8.6469
 IR Inten    --     57.7091                15.4743                18.4410

                     76                     77                     78
                      A                      A                      A
 Frequencies --   1669.4920              1785.8092              1823.5255
 Red. masses --      6.2349                11.7015                12.3607
 Frc consts  --     10.2389                21.9869                24.2168
 IR Inten    --     10.0822               205.4660               438.7892

                     79                     80                     81
                      A                      A                      A
 Frequencies --   3064.6200              3095.2244              3131.7371
 Red. masses --      1.0359                 1.0583                 1.1005
 Frc consts  --      5.7321                 5.9736                 6.3591
 IR Inten    --     18.2932                12.8939                 9.5846

                     82                     83                     84
                      A                      A                      A
 Frequencies --   3135.9476              3152.0659              3183.4280
 Red. masses --      1.1033                 1.1066                 1.0865
 Frc consts  --      6.3926                 6.4780                 6.4876
 IR Inten    --     16.7804                 4.9639                 5.3670

                     85                     86                     87
                      A                      A                      A
 Frequencies --   3196.7895              3196.8567              3207.8752
 Red. masses --      1.0905                 1.0908                 1.0927
 Frc consts  --      6.5661                 6.5683                 6.6250
 IR Inten    --      7.0490                15.2080                13.8884

                     88                     89                     90
                      A                      A                      A
 Frequencies --   3218.7228              3233.0293              3261.4242
 Red. masses --      1.0961                 1.0902                 1.0977
 Frc consts  --      6.6905                 6.7136                 6.8791
 IR Inten    --      9.7228                 9.6384                 4.7153

 - Thermochemistry -
 -------------------
 Temperature   298.150 Kelvin.  Pressure   1.00000 Atm.
 Atom     1 has atomic number  6 and mass  12.00000

 Molecular mass:   268.09603 amu.
 Principal axes and moments of inertia in atomic units:
                           1         2         3
     Eigenvalues --  3244.242077100.964547547.21696
           X            0.99988  -0.00601  -0.01431
           Y            0.00573   0.99979  -0.01984
           Z            0.01442   0.01976   0.99970
 This molecule is an asymmetric top.
 Rotational symmetry number  1.
 Warning -- assumption of classical behavior for rotation
           may cause significant error
 Rotational temperatures (Kelvin)      0.02670     0.01220     0.01148
 Rotational constants (GHZ):           0.55629     0.25415     0.23913
 Zero-point vibrational energy     649007.2 (Joules/Mol)
                                  155.11644 (Kcal/Mol)
 Warning -- explicit consideration of  25 degrees of freedom as
           vibrations may cause significant error
 Vibrational temperatures:     24.69    48.66    81.84   101.05   139.20
          (Kelvin)            225.09   242.03   269.13   269.97   312.84
                              375.56   381.00   415.50   486.91   533.33
                              568.75   607.86   627.83   666.83   716.76
                              761.65   819.00   828.48   856.62   883.21
                              894.12   972.08  1002.90  1029.36  1063.71
                             1083.19  1095.65  1140.21  1153.99  1165.15
                             1188.54  1289.85  1304.87  1346.87  1357.40
                             1375.89  1405.66  1440.82  1446.49  1479.78
                             1483.43  1499.79  1546.98  1567.47  1629.77
                             1681.39  1692.31  1732.01  1780.89  1782.13
                             1835.21  1885.52  1910.67  1915.08  1951.03
                             1958.00  1972.32  2003.73  2072.37  2081.38
                             2138.21  2139.73  2147.82  2172.92  2187.52
                             2215.53  2243.96  2288.06  2345.16  2394.14
                             2402.03  2569.38  2623.65  4409.30  4453.34
                             4505.87  4511.93  4535.12  4580.24  4599.47
                             4599.56  4615.42  4631.02  4651.61  4692.46

 Zero-point correction=                           0.247194 (Hartree/Particle)
 Thermal correction to Energy=                    0.263232
 Thermal correction to Enthalpy=                  0.264176
 Thermal correction to Gibbs Free Energy=         0.201976
 Sum of electronic and zero-point Energies=           -909.978050
 Sum of electronic and thermal Energies=              -909.962012
 Sum of electronic and thermal Enthalpies=            -909.961068
 Sum of electronic and thermal Free Energies=         -910.023268

                     E (Thermal)             CV                S
                      KCal/Mol        Cal/Mol-Kelvin    Cal/Mol-Kelvin
 Total                  165.180             62.292            130.911
 Electronic               0.000              0.000              0.000
 Translational            0.889              2.981             42.658
 Rotational               0.889              2.981             33.519
 Vibrational            163.403             56.331             54.735
 Vibration     1          0.593              1.986              6.938
 Vibration     2          0.594              1.983              5.592
 Vibration     3          0.596              1.975              4.563
 Vibration     4          0.598              1.968              4.147
 Vibration     5          0.603              1.951              3.519
 Vibration     6          0.620              1.895              2.592
 Vibration     7          0.625              1.882              2.455
 Vibration     8          0.632              1.858              2.257
 Vibration     9          0.632              1.857              2.251
 Vibration    10          0.646              1.814              1.980
 Vibration    11          0.669              1.744              1.655
 Vibration    12          0.671              1.738              1.630
 Vibration    13          0.685              1.695              1.481
 Vibration    14          0.719              1.599              1.220
 Vibration    15          0.743              1.532              1.077
 Vibration    16          0.762              1.480              0.980
 Vibration    17          0.785              1.421              0.884
 Vibration    18          0.797              1.391              0.838
 Vibration    19          0.821              1.331              0.756
 Vibration    20          0.854              1.254              0.663
 Vibration    21          0.884              1.185              0.589
 Vibration    22          0.925              1.098              0.506
 Vibration    23          0.932              1.084              0.493
 Vibration    24          0.953              1.042              0.458
 Vibration    25          0.973              1.003              0.426

 Optimization completed.
    -- Stationary point found.
 Normal termination of Gaussian 16 at Sat Dec 12 17:05:40 2020.

 ----------------------------------------------------------------------
 # B3LYP/6-311++G(d,p) empiricaldispersion=gd3bj scf=xqc pop=npa geom=c
 heck
 ----------------------------------------------------------------------

 ---------------------------------------
 CID_66274103_JID_10899_Energie_neutraal
 ---------------------------------------
 Structure from the checkpoint file:  "JID_10899.chk"
 Charge =  0 Multiplicity = 1

 SCF Done:  E(RB3LYP) =  -910.465913330     A.U. after   15 cycles
 Normal termination of Gaussian 16 at Sat Dec 12 17:11:00 2020.

 ----------------------------------------------------------------------
 # B3LYP/6-311++G(d,p) empiricaldispersion=gd3bj scf=xqc pop=npa geom=c
 heck
 ----------------------------------------------------------------------

 -------------------------------------
 CID_66274103_JID_10899_Energie_kation
 -------------------------------------
 Structure from the checkpoint file:  "JID_10899.chk"
 Charge =  1 Multiplicity = 2

 SCF Done:  E(UB3LYP) =  -910.169038856     A.U. after   28 cycles
 Normal termination of Gaussian 16 at Sat Dec 12 17:24:44 2020.
 Gaussian 16:  ES64L-G16RevA.03 25-Dec-2016

 ----------------------------------------------------------------------
 # B3LYP/6-311++G(d,p) empiricaldispersion=gd3bj scf=xqc pop=npa geom=c
 heck
 ----------------------------------------------------------------------

 ------------------------------------
 CID_66274103_JID_10899_Energie_anion
 ------------------------------------
 Structure from the checkpoint file:  "JID_10899.chk"
 Charge = -1 Multiplicity = 2

                         Standard orientation:
 ---------------------------------------------------------------------
 Center     Atomic      Atomic             Coordinates (Angstroms)
 Number     Number       Type             X           Y           Z
 ---------------------------------------------------------------------
      1          6           0       -3.451834    0.169434    1.885564
      2          6           0       -2.807146    0.708072    0.632846
      3          6           0       -2.943602    2.065626    0.324496
      4          6           0       -2.374024    2.621158   -0.820407
      5          6           0       -1.635435    1.819781   -1.689624
      6          6           0       -1.465332    0.471032   -1.394649
      7          6           0       -2.044558   -0.096521   -0.247576
      8          6           0       -1.863884   -1.549928    0.017853
      9          8           0       -2.681031   -2.231769    0.611216
     10          6           0       -0.570760   -2.233346   -0.472930
     11          7           0        0.611122   -1.453928   -0.191570
     12          6           0        1.430831   -0.894305   -1.149621
     13          8           0        1.400616   -0.989483   -2.367679
     14          7           0        2.318061   -0.148612   -0.354987
     15          6           0        3.375286    0.645932   -0.728927
     16          6           0        4.058151    1.276924    0.261166
     17          7           0        3.739698    1.156392    1.604083
     18          6           0        2.733426    0.402567    1.946148
     19          6           0        1.946338   -0.301904    0.978966
     20          7           0        0.904626   -1.088504    1.106204
     21          1           0       -2.754662   -0.436215    2.472303
     22          1           0       -3.809718    0.994072    2.509511
     23          1           0       -4.297023   -0.482442    1.646889
     24          1           0       -3.512493    2.698524    1.000491
     25          1           0       -2.506549    3.678983   -1.030003
     26          1           0       -1.190027    2.238585   -2.586847
     27          1           0       -0.884606   -0.141254   -2.076634
     28          1           0       -0.513558   -3.201777    0.028286
     29          1           0       -0.590100   -2.391869   -1.555460
     30          1           0        3.581436    0.705975   -1.790126
     31          1           0        4.901725    1.916197    0.028093
     32          1           0        2.479593    0.306665    2.999269
 ---------------------------------------------------------------------

 SCF Done:  E(UB3LYP) =  -910.498175320     A.U. after   33 cycles
 SCF Done:  E(UB3LYP) =  -910.498175320     a.u. after    1 cycles

 The electronic state is 2-A.
 Alpha  occ. eigenvalues --  -18.98494 -18.97770 -14.26438 -14.25982 -14.20751
 Alpha  occ. eigenvalues --  -14.17616 -10.18058 -10.13162 -10.11942 -10.10217
 Alpha  occ. eigenvalues --  -10.08812 -10.08005 -10.07870 -10.07147 -10.06999
 Alpha  occ. eigenvalues --  -10.06881 -10.06846 -10.06774 -10.06640 -10.05870
 Alpha  occ. eigenvalues --   -0.97493  -0.92316  -0.90521  -0.85367  -0.79064
 Alpha  occ. eigenvalues --   -0.75518  -0.73262  -0.66861  -0.65734  -0.64865
 Alpha  occ. eigenvalues --   -0.62557  -0.58398  -0.54713  -0.53707  -0.51850
 Alpha  occ. eigenvalues --   -0.49672  -0.48562  -0.44292  -0.42758  -0.41454
 Alpha  occ. eigenvalues --   -0.39235  -0.38305  -0.36790  -0.36223  -0.35053
 Alpha  occ. eigenvalues --   -0.34788  -0.33683  -0.33216  -0.32359  -0.31681
 Alpha  occ. eigenvalues --   -0.31051  -0.30596  -0.30143  -0.27996  -0.27699
 Alpha  occ. eigenvalues --   -0.27465  -0.26362  -0.25014  -0.24726  -0.24221
 Alpha  occ. eigenvalues --   -0.23592  -0.21114  -0.20997  -0.16398  -0.16001
 Alpha  occ. eigenvalues --   -0.15252  -0.14357  -0.13651  -0.13154  -0.08963
 Alpha  occ. eigenvalues --    0.02181
 Alpha virt. eigenvalues --    0.04301   0.07555   0.08750   0.09010   0.09156
 Alpha virt. eigenvalues --    0.09873   0.10588   0.10948   0.11468   0.11680
 Alpha virt. eigenvalues --    0.12067   0.12277   0.12720   0.13185   0.13838

  Beta  occ. eigenvalues --  -18.98248 -18.97766 -14.26320 -14.25903 -14.20526
  Beta  occ. eigenvalues --  -14.17336 -10.18053 -10.12990 -10.12008 -10.10235
  Beta  occ. eigenvalues --  -10.08524 -10.07926 -10.07926 -10.06907 -10.06857
  Beta  occ. eigenvalues --  -10.06855 -10.06802 -10.06785 -10.06587 -10.05876
  Beta  occ. eigenvalues --   -0.97323  -0.91869  -0.90441  -0.85058  -0.78537
  Beta  occ. eigenvalues --   -0.75386  -0.73003  -0.66739  -0.65507  -0.64504
  Beta  occ. eigenvalues --   -0.62339  -0.58337  -0.54193  -0.53615  -0.51553
  Beta  occ. eigenvalues --   -0.49442  -0.48469  -0.44086  -0.42534  -0.41232
  Beta  occ. eigenvalues --   -0.39078  -0.37935  -0.36636  -0.36091  -0.34873
  Beta  occ. eigenvalues --   -0.34574  -0.33501  -0.33026  -0.32068  -0.31608
  Beta  occ. eigenvalues --   -0.30944  -0.30534  -0.29941  -0.27888  -0.27491
  Beta  occ. eigenvalues --   -0.26840  -0.25781  -0.24834  -0.24298  -0.23670
  Beta  occ. eigenvalues --   -0.23103  -0.20809  -0.19873  -0.16196  -0.15330
  Beta  occ. eigenvalues --   -0.14768  -0.13958  -0.13296  -0.12762  -0.07898
  Beta virt. eigenvalues --    0.06087   0.07518   0.07729   0.08732   0.09078
  Beta virt. eigenvalues --    0.09201   0.09873   0.10575   0.10937   0.11486
  Beta virt. eigenvalues --    0.11977   0.12273   0.12445   0.13019   0.13579

 Mulliken charges and spin densities:
               1          2
     1  C   -0.507867  -0.003488
     2  C    0.638765   0.057149
     3  C   -0.485628  -0.025104
     4  C   -0.322804   0.084672
     5  C   -0.385022  -0.026225
     6  C   -0.486447   0.061232
     7  C    1.551094   0.010772
     8  C   -1.062936   0.098235
     9  O   -0.273844   0.080823
    10  C   -0.186434  -0.000562
    11  N    0.106030   0.032618
    12  C   -0.039346  -0.001656
    13  O   -0.397161   0.003751
    14  N    0.015062   0.002113
    15  C    0.139614   0.233552
    16  C   -0.444898  -0.041373
    17  N   -0.144388   0.127599
    18  C   -0.322147   0.216107
    19  C   -0.077552   0.006414
    20  N   -0.155268   0.103466
    21  H    0.180237   0.002153
    22  H    0.105240   0.000350
    23  H    0.180536   0.003015
    24  H    0.108937   0.001637
    25  H    0.133672  -0.008181
    26  H    0.153712   0.006993
    27  H    0.142394   0.000156
    28  H    0.210269   0.003408
    29  H    0.194064   0.007615
    30  H    0.161784  -0.017354
    31  H    0.129884   0.002572
    32  H    0.140448  -0.022460
 Sum of Mulliken charges =  -1.00000   1.00000

 Dipole moment (field-independent basis, Debye):
    X=             -2.5720    Y=              1.5639    Z=             -1.5298  Tot=              3.3765
 Quadrupole moment (field-independent basis, Debye-Ang):
   XX=           -163.8197   YY=           -132.9327   ZZ=           -138.0609
   XY=            -11.1029   XZ=             -7.0773   YZ=             -2.3910

 Summary of Natural Population Analysis:

                                       Natural Population
                Natural  -----------------------------------------------
    Atom  No    Charge         Core      Valence    Rydberg      Total
 -----------------------------------------------------------------------
      C    1   -0.29489      0.99964     2.29047    0.00478     3.29489
      C    2    0.02328      0.99950     1.96935    0.00787     2.97672
      C    3   -0.11582      0.99952     2.10773    0.00856     3.11582
      C    4   -0.07321      0.99957     2.06456    0.00908     3.07321
      C    5   -0.11544      0.99957     2.10659    0.00928     3.11544
      C    6   -0.07598      0.99954     2.06874    0.00770     3.07598
      C    7   -0.06870      0.99943     2.05759    0.01168     3.06870
      C    8    0.30209      0.99963     1.67828    0.02000     2.69791
      O    9   -0.26689      0.99988     3.26022    0.00680     4.26689
      C   10   -0.12656      0.99959     2.11683    0.01014     3.12656
      N   11   -0.13673      0.99963     2.62265    0.01445     3.63673
      C   12    0.38433      0.99964     1.59209    0.02394     2.61567
      O   13   -0.34840      0.99987     3.34310    0.00543     4.34840
      N   14   -0.21078      0.99958     2.70134    0.00986     3.71078
      C   15    0.04700      0.99957     1.94318    0.01026     2.95300
      C   16   -0.04047      0.99958     2.02695    0.01394     3.04047
      N   17   -0.19793      0.99971     2.68563    0.01259     3.69793
      C   18    0.08540      0.99959     1.90124    0.01377     2.91460
      C   19    0.15329      0.99963     1.83212    0.01496     2.84671
      N   20   -0.13400      0.99968     2.62219    0.01213     3.63400
      H   21    0.11250      0.00000     0.38659    0.00091     0.38750
      H   22    0.09085      0.00000     0.40823    0.00092     0.40915
      H   23    0.11094      0.00000     0.38809    0.00097     0.38906
      H   24    0.09329      0.00000     0.40536    0.00135     0.40671
      H   25    0.09300      0.00000     0.40598    0.00101     0.40700
      H   26    0.09901      0.00000     0.40027    0.00073     0.40099
      H   27    0.10988      0.00000     0.38854    0.00159     0.39012
      H   28    0.10810      0.00000     0.39062    0.00127     0.39190
      H   29    0.11640      0.00000     0.38255    0.00106     0.38360
      H   30    0.10264      0.00000     0.39625    0.00111     0.39736
      H   31    0.08832      0.00000     0.41055    0.00113     0.41168
      H   32    0.08552      0.00000     0.41336    0.00113     0.41448
 =======================================================================
   * Total *    0.00001     19.99236    49.76723    0.24040    69.99999

 Normal termination of Gaussian 16 at Sat Dec 12 17:41:08 2020.
