 Gaussian 16, Revision A.03,

 -----------------------------------------------------------
 # opt freq B3LYP/6-31G(d) empiricaldispersion=gd3bj scf=xqc
 -----------------------------------------------------------

 -----------------------------
 CID_12298431_JID_613_neutraal
 -----------------------------
 Symbolic Z-matrix:
 Charge =  0 Multiplicity = 1

 SCF Done:  E(RB3LYP) =  -429.062692376     A.U. after   12 cycles
 SCF Done:  E(RB3LYP) =  -429.063745440     A.U. after   10 cycles
 SCF Done:  E(RB3LYP) =  -429.063551914     A.U. after   10 cycles
 SCF Done:  E(RB3LYP) =  -429.063967198     A.U. after   10 cycles
 SCF Done:  E(RB3LYP) =  -429.063999145     A.U. after   10 cycles
 SCF Done:  E(RB3LYP) =  -429.064011827     A.U. after    9 cycles
 SCF Done:  E(RB3LYP) =  -429.064016105     A.U. after    8 cycles
 SCF Done:  E(RB3LYP) =  -429.064016210     A.U. after    6 cycles
 Optimization completed.
    -- Stationary point found.

 1\1\GINC-NODE319\FOpt\RB3LYP\6-31G(d)\C9H18O1\VSC10255\08-Dec-2020\0\\
 # opt freq B3LYP/6-31G(d) empiricaldispersion=gd3bj scf=xqc\\CID_12298
 431_JID_613_neutraal\\0,1\C,0.961478134,-0.0988930123,0.0537457632\C,0
 .6535005165,1.3800361161,0.3035440592\C,0.8805124661,2.2837300837,-0.9
 179175959\C,0.0953353501,1.9553802261,-2.2008251123\C,-1.4428063822,2.
 0847461307,-2.1741069171\C,-1.9553046411,3.355361475,-1.4770987972\C,-
 3.4876772705,3.4138245263,-1.5381689795\C,-4.083363687,2.1052022506,-1
 .0178320104\O,-3.5802774701,0.981555322,-1.7276652315\C,-2.1694263315,

 Normal termination of Gaussian 16 at Tue Dec  8 12:19:00 2020.

 --------------------------------------------------------------------
 #N Geom=AllCheck Guess=TCheck SCRF=Check GenChk RB3LYP/6-31G(d) Freq
 --------------------------------------------------------------------

 Structure from the checkpoint file:  "JID_613.chk"
 -----------------------------
 CID_12298431_JID_613_neutraal
 -----------------------------
 Charge =  0 Multiplicity = 1

 SCF Done:  E(RB3LYP) =  -429.064016210     A.U. after    1 cycles

  Exact polarizability: 109.531   1.736  90.523   2.466  -0.698  87.074
 Approx polarizability: 134.647   0.370 126.263   0.666   0.786 131.047

                      1                      2                      3
                      A                      A                      A
 Frequencies --     57.8673                88.6434               124.6022
 Red. masses --      2.9267                 3.1047                 2.4847
 Frc consts  --      0.0058                 0.0144                 0.0227
 IR Inten    --      0.1661                 0.0759                 0.2477

                      4                      5                      6
                      A                      A                      A
 Frequencies --    183.6881               196.6534               253.6581
 Red. masses --      1.7110                 2.1047                 1.9403
 Frc consts  --      0.0340                 0.0480                 0.0736
 IR Inten    --      0.2164                 0.0332                 1.8942

                      7                      8                      9
                      A                      A                      A
 Frequencies --    255.8084               321.0746               326.0756
 Red. masses --      1.7810                 2.0289                 1.9851
 Frc consts  --      0.0687                 0.1232                 0.1244
 IR Inten    --      0.4422                 0.1743                 1.2485

                     10                     11                     12
                      A                      A                      A
 Frequencies --    372.2499               417.2914               434.8383
 Red. masses --      2.3145                 2.6398                 1.9297
 Frc consts  --      0.1890                 0.2708                 0.2150
 IR Inten    --      2.6125                 1.7947                 0.3890

                     13                     14                     15
                      A                      A                      A
 Frequencies --    465.7158               540.1334               611.1361
 Red. masses --      3.3869                 1.8600                 2.4504
 Frc consts  --      0.4328                 0.3197                 0.5392
 IR Inten    --      1.4666                 1.5948                 2.1880

                     16                     17                     18
                      A                      A                      A
 Frequencies --    755.5557               773.5811               823.8766
 Red. masses --      1.2454                 2.4084                 2.1509
 Frc consts  --      0.4189                 0.8492                 0.8602
 IR Inten    --     10.5839                 1.3692                 1.2170

                     19                     20                     21
                      A                      A                      A
 Frequencies --    870.2842               876.6715               881.2950
 Red. masses --      1.5865                 1.6412                 1.9203
 Frc consts  --      0.7080                 0.7432                 0.8787
 IR Inten    --      3.6917                 3.4914                 2.6684

                     22                     23                     24
                      A                      A                      A
 Frequencies --    910.9929               932.8173               967.6397
 Red. masses --      2.3364                 2.0785                 1.6606
 Frc consts  --      1.1424                 1.0656                 0.9161
 IR Inten    --      8.3811                 7.6681                 4.1124

                     25                     26                     27
                      A                      A                      A
 Frequencies --    993.3377              1008.8949              1038.6481
 Red. masses --      1.8738                 1.6703                 2.0832
 Frc consts  --      1.0894                 1.0017                 1.3241
 IR Inten    --     10.7172                 3.7412                10.2396

                     28                     29                     30
                      A                      A                      A
 Frequencies --   1063.8634              1072.1596              1110.6250
 Red. masses --      1.7084                 1.7900                 1.3850
 Frc consts  --      1.1392                 1.2123                 1.0066
 IR Inten    --      2.5585                 0.5825                 0.2130

                     31                     32                     33
                      A                      A                      A
 Frequencies --   1129.6530              1137.1581              1167.1666
 Red. masses --      3.9725                 2.5772                 2.4443
 Frc consts  --      2.9868                 1.9635                 1.9619
 IR Inten    --     85.2598                18.0857                15.0605

                     34                     35                     36
                      A                      A                      A
 Frequencies --   1197.9958              1214.8933              1243.6489
 Red. masses --      2.2899                 1.3419                 1.3987
 Frc consts  --      1.9363                 1.1669                 1.2746
 IR Inten    --      2.0176                 4.1296                15.0262

                     37                     38                     39
                      A                      A                      A
 Frequencies --   1274.8029              1280.3552              1320.9948
 Red. masses --      1.2433                 1.3224                 1.1884
 Frc consts  --      1.1904                 1.2772                 1.2218
 IR Inten    --      3.6909                 0.7359                 2.3466

                     40                     41                     42
                      A                      A                      A
 Frequencies --   1330.8271              1342.2442              1349.0885
 Red. masses --      1.2113                 1.2528                 1.2104
 Frc consts  --      1.2640                 1.3298                 1.2979
 IR Inten    --      1.3810                 5.5232                 1.7603

                     43                     44                     45
                      A                      A                      A
 Frequencies --   1367.5351              1384.0488              1395.4083
 Red. masses --      1.2309                 1.4213                 1.4081
 Frc consts  --      1.3563                 1.6041                 1.6155
 IR Inten    --      0.1999                 6.7107                 1.5491

                     46                     47                     48
                      A                      A                      A
 Frequencies --   1404.5514              1415.5434              1421.5504
 Red. masses --      1.3744                 1.3862                 1.3635
 Frc consts  --      1.5975                 1.6365                 1.6234
 IR Inten    --      4.3814                 7.9049                 6.0624

                     49                     50                     51
                      A                      A                      A
 Frequencies --   1429.8529              1443.8067              1444.9272
 Red. masses --      1.4224                 1.3423                 1.2984
 Frc consts  --      1.7134                 1.6486                 1.5972
 IR Inten    --      2.3860                 7.5464                 3.1920

                     52                     53                     54
                      A                      A                      A
 Frequencies --   1508.7782              1511.2463              1519.6247
 Red. masses --      1.0855                 1.0791                 1.0906
 Frc consts  --      1.4559                 1.4521                 1.4838
 IR Inten    --      3.8355                 1.6198                 4.6296

                     55                     56                     57
                      A                      A                      A
 Frequencies --   1520.6501              1524.2686              1525.9196
 Red. masses --      1.0863                 1.0870                 1.0576
 Frc consts  --      1.4800                 1.4880                 1.4509
 IR Inten    --      1.0939                 1.8103                 0.3890

                     58                     59                     60
                      A                      A                      A
 Frequencies --   1534.6201              1535.7262              1544.1449
 Red. masses --      1.0928                 1.0604                 1.0795
 Frc consts  --      1.5163                 1.4734                 1.5165
 IR Inten    --      1.0360                10.0465                 4.2146

                     61                     62                     63
                      A                      A                      A
 Frequencies --   2964.9437              3003.6947              3014.7430
 Red. masses --      1.0723                 1.0718                 1.0738
 Frc consts  --      5.5541                 5.6974                 5.7501
 IR Inten    --     54.8778                23.9928                38.2296

                     64                     65                     66
                      A                      A                      A
 Frequencies --   3024.6343              3033.2570              3034.7256
 Red. masses --      1.0658                 1.0645                 1.0622
 Frc consts  --      5.7445                 5.7705                 5.7636
 IR Inten    --      8.3286                63.7609                43.1559

                     67                     68                     69
                      A                      A                      A
 Frequencies --   3040.9368              3043.0630              3047.5201
 Red. masses --      1.0624                 1.0619                 1.0410
 Frc consts  --      5.7882                 5.7939                 5.6966
 IR Inten    --     26.1330                23.5005                24.1058

                     70                     71                     72
                      A                      A                      A
 Frequencies --   3057.5463              3069.2206              3071.5184
 Red. masses --      1.0992                 1.0973                 1.0993
 Frc consts  --      6.0544                 6.0900                 6.1104
 IR Inten    --     15.8609                17.8777                89.4169

                     73                     74                     75
                      A                      A                      A
 Frequencies --   3077.6633              3087.7559              3097.2468
 Red. masses --      1.0984                 1.1038                 1.0967
 Frc consts  --      6.1297                 6.2006                 6.1984
 IR Inten    --     38.2750                58.3043                55.6842

                     76                     77                     78
                      A                      A                      A
 Frequencies --   3106.3664              3110.8838              3121.4831
 Red. masses --      1.0928                 1.1012                 1.1012
 Frc consts  --      6.2131                 6.2788                 6.3220
 IR Inten    --     54.4508                46.6591                48.7959

 - Thermochemistry -
 -------------------
 Temperature   298.150 Kelvin.  Pressure   1.00000 Atm.
 Atom     1 has atomic number  6 and mass  12.00000

 Molecular mass:   142.13577 amu.
 Principal axes and moments of inertia in atomic units:
                           1         2         3
     Eigenvalues --   829.352942298.214612584.81704
           X            0.99974   0.02185   0.00696
           Y           -0.02170   0.99955  -0.02059
           Z           -0.00740   0.02043   0.99976
 This molecule is an asymmetric top.
 Rotational symmetry number  1.
 Warning -- assumption of classical behavior for rotation
           may cause significant error
 Rotational temperatures (Kelvin)      0.10444     0.03769     0.03351
 Rotational constants (GHZ):           2.17608     0.78528     0.69821
 Zero-point vibrational energy     688797.3 (Joules/Mol)
                                  164.62650 (Kcal/Mol)
 Warning -- explicit consideration of  15 degrees of freedom as
           vibrations may cause significant error
 Vibrational temperatures:     83.26   127.54   179.27   264.29   282.94
          (Kelvin)            364.96   368.05   461.95   469.15   535.58
                              600.39   625.64   670.06   777.13   879.29
                             1087.08  1113.01  1185.37  1252.14  1261.33
                             1267.99  1310.72  1342.12  1392.22  1429.19
                             1451.57  1494.38  1530.66  1542.60  1597.94
                             1625.32  1636.12  1679.29  1723.65  1747.96
                             1789.33  1834.16  1842.15  1900.62  1914.76
                             1931.19  1941.04  1967.58  1991.34  2007.68
                             2020.84  2036.65  2045.29  2057.24  2077.32
                             2078.93  2170.80  2174.35  2186.40  2187.88
                             2193.08  2195.46  2207.98  2209.57  2221.68
                             4265.89  4321.65  4337.54  4351.77  4364.18
                             4366.29  4375.23  4378.29  4384.70  4399.13
                             4415.92  4419.23  4428.07  4442.59  4456.25
                             4469.37  4475.87  4491.12

 Zero-point correction=                           0.262349 (Hartree/Particle)
 Thermal correction to Energy=                    0.272880
 Thermal correction to Enthalpy=                  0.273824
 Thermal correction to Gibbs Free Energy=         0.226493
 Sum of electronic and zero-point Energies=           -428.801667
 Sum of electronic and thermal Energies=              -428.791136
 Sum of electronic and thermal Enthalpies=            -428.790192
 Sum of electronic and thermal Free Energies=         -428.837523

                     E (Thermal)             CV                S
                      KCal/Mol        Cal/Mol-Kelvin    Cal/Mol-Kelvin
 Total                  171.235             40.809             99.617
 Electronic               0.000              0.000              0.000
 Translational            0.889              2.981             40.766
 Rotational               0.889              2.981             29.978
 Vibrational            169.457             34.848             28.873
 Vibration     1          0.596              1.974              4.529
 Vibration     2          0.601              1.957              3.690
 Vibration     3          0.610              1.928              3.028
 Vibration     4          0.631              1.862              2.291
 Vibration     5          0.636              1.845              2.164
 Vibration     6          0.665              1.757              1.705
 Vibration     7          0.666              1.753              1.690
 Vibration     8          0.707              1.633              1.305
 Vibration     9          0.710              1.623              1.279
 Vibration    10          0.744              1.529              1.071
 Vibration    11          0.780              1.433              0.901
 Vibration    12          0.795              1.394              0.843
 Vibration    13          0.823              1.326              0.750
 Vibration    14          0.895              1.161              0.565
 Vibration    15          0.970              1.008              0.431

                           ! Non-Optimized Parameters !

 1\1\GINC-NODE319\Freq\RB3LYP\6-31G(d)\C9H18O1\VSC10255\08-Dec-2020\0\\
 #N Geom=AllCheck Guess=TCheck SCRF=Check GenChk RB3LYP/6-31G(d) Freq\\
 CID_12298431_JID_613_neutraal\\0,1\C,0.961478134,-0.0988930123,0.05374
 57632\C,0.6535005165,1.3800361161,0.3035440592\C,0.8805124661,2.283730
 0837,-0.9179175959\C,0.0953353501,1.9553802261,-2.2008251123\C,-1.4428
 063822,2.0847461307,-2.1741069171\C,-1.9553046411,3.355361475,-1.47709
 87972\C,-3.4876772705,3.4138245263,-1.5381689795\C,-4.083363687,2.1052
 022506,-1.0178320104\O,-3.5802774701,0.981555322,-1.7276652315\C,-2.16

 Normal termination of Gaussian 16 at Tue Dec  8 12:25:46 2020.

 ----------------------------------------------------------------------
 # B3LYP/6-311++G(d,p) empiricaldispersion=gd3bj scf=xqc pop=npa geom=c
 heck
 ----------------------------------------------------------------------

 -------------------------------------
 CID_12298431_JID_613_Energie_neutraal
 -------------------------------------
 Structure from the checkpoint file:  "JID_613.chk"
 Charge =  0 Multiplicity = 1

 SCF Done:  E(RB3LYP) =  -429.185190913     A.U. after   12 cycles
 Normal termination of Gaussian 16 at Tue Dec  8 12:29:00 2020.

 ----------------------------------------------------------------------
 # B3LYP/6-311++G(d,p) empiricaldispersion=gd3bj scf=xqc pop=npa geom=c
 heck
 ----------------------------------------------------------------------

 -----------------------------------
 CID_12298431_JID_613_Energie_kation
 -----------------------------------
 Structure from the checkpoint file:  "JID_613.chk"
 Charge =  1 Multiplicity = 2

 SCF Done:  E(UB3LYP) =  -428.854351535     A.U. after   21 cycles
 Normal termination of Gaussian 16 at Tue Dec  8 12:39:57 2020.
 Gaussian 16:  ES64L-G16RevA.03 25-Dec-2016

 ----------------------------------
 CID_12298431_JID_613_Energie_anion
 ----------------------------------
 Structure from the checkpoint file:  "JID_613.chk"
 Charge = -1 Multiplicity = 2

                         Standard orientation:
 ---------------------------------------------------------------------
 Center     Atomic      Atomic             Coordinates (Angstroms)
 Number     Number       Type             X           Y           Z
 ---------------------------------------------------------------------
      1          6           0        3.002187    1.274385   -0.186411
      2          6           0        2.361756    0.128206   -0.974192
      3          6           0        2.032350   -1.109590   -0.125947
      4          6           0        1.090188   -0.917203    1.076337
      5          6           0       -0.371256   -0.500188    0.805032
      6          6           0       -1.038289   -1.261385   -0.351940
      7          6           0       -2.495308   -0.808180   -0.516296
      8          6           0       -2.561623    0.715872   -0.620951
      9          8           0       -1.947399    1.345092    0.495451
     10          6           0       -0.569256    1.008477    0.596371
     11          1           0        2.319996    1.684458    0.565749
     12          1           0        3.291271    2.096634   -0.850233
     13          1           0        3.904313    0.933770    0.336849
     14          1           0        1.458857    0.489289   -1.481895
     15          1           0        3.048042   -0.181785   -1.773590
     16          1           0        1.623345   -1.888768   -0.781659
     17          1           0        2.976607   -1.515412    0.263961
     18          1           0        1.060506   -1.876329    1.610250
     19          1           0        1.534152   -0.202704    1.783062
     20          1           0       -0.939527   -0.734986    1.717206
     21          1           0       -0.494907   -1.061611   -1.285860
     22          1           0       -0.983369   -2.344246   -0.181521
     23          1           0       -2.950619   -1.262094   -1.405819
     24          1           0       -3.084028   -1.126861    0.353419
     25          1           0       -2.070115    1.047445   -1.553613
     26          1           0       -3.595813    1.072674   -0.638602
     27          1           0       -0.182800    1.571337    1.452301
     28          1           0       -0.041220    1.356086   -0.305631
 ---------------------------------------------------------------------

 SCF Done:  E(UB3LYP) =  -429.167357794     A.U. after   27 cycles

 The electronic state is 2-A.
 Alpha  occ. eigenvalues --  -19.02016 -10.11165 -10.10810 -10.06695 -10.06243
 Alpha  occ. eigenvalues --  -10.05993 -10.05953 -10.05841 -10.05566 -10.05342
 Alpha  occ. eigenvalues --   -0.93463  -0.71485  -0.68170  -0.66207  -0.61165
 Alpha  occ. eigenvalues --   -0.55452  -0.54005  -0.50912  -0.46889  -0.44298
 Alpha  occ. eigenvalues --   -0.39091  -0.38100  -0.35974  -0.34995  -0.33723
 Alpha  occ. eigenvalues --   -0.33353  -0.32058  -0.29718  -0.28613  -0.28095
 Alpha  occ. eigenvalues --   -0.27434  -0.26368  -0.24563  -0.23888  -0.23055
 Alpha  occ. eigenvalues --   -0.22001  -0.21065  -0.20365  -0.19540  -0.15145
 Alpha  occ. eigenvalues --    0.04799
 Alpha virt. eigenvalues --    0.06758   0.07466   0.07962   0.09123   0.09492
 Alpha virt. eigenvalues --    0.09595   0.10455   0.10701   0.11821   0.12240
 Alpha virt. eigenvalues --    0.12777   0.13001   0.13577   0.14327   0.14854

  Beta  occ. eigenvalues --  -19.02010 -10.11150 -10.10800 -10.06690 -10.06220
  Beta  occ. eigenvalues --  -10.05969 -10.05936 -10.05822 -10.05546 -10.05311
  Beta  occ. eigenvalues --   -0.93451  -0.71453  -0.68131  -0.66175  -0.61120
  Beta  occ. eigenvalues --   -0.55400  -0.53958  -0.50854  -0.46827  -0.44243
  Beta  occ. eigenvalues --   -0.39048  -0.38068  -0.35943  -0.34956  -0.33681
  Beta  occ. eigenvalues --   -0.33317  -0.32026  -0.29679  -0.28578  -0.28052
  Beta  occ. eigenvalues --   -0.27395  -0.26332  -0.24529  -0.23850  -0.23011
  Beta  occ. eigenvalues --   -0.21963  -0.21034  -0.20321  -0.19510  -0.15115
  Beta virt. eigenvalues --    0.07083   0.07752   0.08141   0.08580   0.09789
  Beta virt. eigenvalues --    0.09927   0.10202   0.11024   0.11167   0.12288
  Beta virt. eigenvalues --    0.12752   0.13157   0.13487   0.13892   0.14720

 Mulliken charges and spin densities:
               1          2
     1  C    0.836807  -1.464885
     2  C   -0.240593   0.105219
     3  C    0.792514  -1.032760
     4  C    0.400617  -0.827455
     5  C   -0.244148   0.668613
     6  C   -0.873896   0.536937
     7  C    0.879911  -1.252421
     8  C    0.422371  -0.698169
     9  O   -0.163691   0.049919
    10  C    0.124395  -0.791001
    11  H   -0.150848   0.288521
    12  H   -0.155312   0.286735
    13  H   -0.242756   0.383067
    14  H   -0.139191   0.255386
    15  H   -0.486297   0.650253
    16  H   -0.340524   0.501625
    17  H   -0.391573   0.558058
    18  H   -0.226624   0.385357
    19  H   -0.202614   0.345893
    20  H    0.030613   0.160277
    21  H    0.193383  -0.030253
    22  H   -0.396228   0.558704
    23  H   -0.662444   0.825427
    24  H    0.035315   0.102141
    25  H   -0.044635   0.142282
    26  H   -0.156383   0.342662
    27  H    0.138173   0.027125
    28  H    0.263659  -0.077255
 Sum of Mulliken charges =  -1.00000   1.00000

 Dipole moment (field-independent basis, Debye):
    X=             -2.2181    Y=              2.6385    Z=              1.7780  Tot=              3.8785
 Quadrupole moment (field-independent basis, Debye-Ang):
   XX=           -135.2399   YY=           -108.6464   ZZ=            -99.7644
   XY=             -0.2322   XZ=             -0.9971   YZ=             -1.6584

 Summary of Natural Population Analysis:

                                       Natural Population
                Natural  -----------------------------------------------
    Atom  No    Charge         Core      Valence    Rydberg      Total
 -----------------------------------------------------------------------
      C    1   -0.28750      0.99966     2.28216    0.00568     3.28750
      C    2   -0.19256      0.99964     2.18461    0.00832     3.19256
      C    3   -0.18959      0.99962     2.18080    0.00917     3.18959
      C    4   -0.18890      0.99961     2.17860    0.01069     3.18890
      C    5   -0.12439      0.99958     2.11386    0.01095     3.12439
      C    6   -0.19297      0.99961     2.18334    0.01002     3.19297
      C    7   -0.20170      0.99963     2.19330    0.00877     3.20170
      C    8   -0.00908      0.99958     1.99591    0.01359     3.00908
      O    9   -0.30212      0.99989     3.29305    0.00918     4.30212
      C   10   -0.00580      0.99954     1.99526    0.01099     3.00580
      H   11    0.09446      0.00000     0.40444    0.00110     0.40554
      H   12    0.09853      0.00000     0.40050    0.00097     0.40147
      H   13    0.09692      0.00000     0.40188    0.00120     0.40308
      H   14    0.09059      0.00000     0.40767    0.00174     0.40941
      H   15    0.09709      0.00000     0.40142    0.00149     0.40291
      H   16    0.09839      0.00000     0.39991    0.00169     0.40161
      H   17    0.09721      0.00000     0.40117    0.00161     0.40279
      H   18    0.10179      0.00000     0.39692    0.00129     0.39821
      H   19    0.09528      0.00000     0.40350    0.00122     0.40472
      H   20    0.09619      0.00000     0.40193    0.00188     0.40381
      H   21    0.09569      0.00000     0.40242    0.00189     0.40431
      H   22    0.10340      0.00000     0.39502    0.00158     0.39660
      H   23    0.10151      0.00000     0.39671    0.00177     0.39849
      H   24    0.09504      0.00000     0.40358    0.00138     0.40496
      H   25    0.07520      0.00000     0.42335    0.00144     0.42480
      H   26    0.08974      0.00000     0.40898    0.00128     0.41026
      H   27    0.08912      0.00000     0.40939    0.00149     0.41088
      H   28    0.07845      0.00000     0.41983    0.00172     0.42155
 =======================================================================
   * Total *    0.00000      9.99637    29.87951    0.12412    40.00000

 Normal termination of Gaussian 16 at Tue Dec  8 12:49:26 2020.
