 Gaussian 16, Revision A.03,

 -----------------------------------------------------------
 # opt freq B3LYP/6-31G(d) empiricaldispersion=gd3bj scf=xqc
 -----------------------------------------------------------

 ------------------------------
 CID_85779516_JID_2704_neutraal
 ------------------------------
 Symbolic Z-matrix:
 Charge =  0 Multiplicity = 1

 SCF Done:  E(RB3LYP) =  -575.828845062     A.U. after   15 cycles
 SCF Done:  E(RB3LYP) =  -575.830661249     A.U. after   13 cycles
 SCF Done:  E(RB3LYP) =  -575.830329825     A.U. after   13 cycles
 SCF Done:  E(RB3LYP) =  -575.830663986     A.U. after   13 cycles
 SCF Done:  E(RB3LYP) =  -575.831046918     A.U. after   12 cycles
 SCF Done:  E(RB3LYP) =  -575.831062236     A.U. after   11 cycles
 SCF Done:  E(RB3LYP) =  -575.831065303     A.U. after   10 cycles
 SCF Done:  E(RB3LYP) =  -575.831068868     A.U. after   11 cycles
 SCF Done:  E(RB3LYP) =  -575.831072088     A.U. after   12 cycles
 SCF Done:  E(RB3LYP) =  -575.831088085     A.U. after   13 cycles
 SCF Done:  E(RB3LYP) =  -575.831137990     A.U. after   12 cycles
 SCF Done:  E(RB3LYP) =  -575.831179104     A.U. after   15 cycles
 SCF Done:  E(RB3LYP) =  -575.831180061     A.U. after   13 cycles
 SCF Done:  E(RB3LYP) =  -575.831179725     A.U. after   13 cycles
 SCF Done:  E(RB3LYP) =  -575.831181765     A.U. after   12 cycles
 SCF Done:  E(RB3LYP) =  -575.831181864     A.U. after    9 cycles
 Optimization completed.
    -- Stationary point found.

 1\1\GINC-NODE379\FOpt\RB3LYP\6-31G(d)\C9H12O3\VSC10255\09-Dec-2020\0\\
 # opt freq B3LYP/6-31G(d) empiricaldispersion=gd3bj scf=xqc\\CID_85779
 516_JID_2704_neutraal\\0,1\C,1.521877366,0.0520529051,0.1574238635\C,0
 .6694859298,-1.1338578816,-0.3100967829\C,-0.7077932944,-1.0788100368,
 0.3480221481\O,-1.3714850032,0.1611655018,0.1070539515\C,-0.6500674119
 ,1.3197212655,0.5161937629\C,0.7600083488,1.3606028557,-0.0884439964\C
 ,-0.6653037272,1.4390948102,2.0653904885\C,-0.1220648693,2.7052563497,
 2.5321213468\C,0.3487134063,3.7702458149,2.8637218526\C,0.8727477428,5

 Normal termination of Gaussian 16 at Wed Dec  9 17:55:32 2020.

 --------------------------------------------------------------------
 #N Geom=AllCheck Guess=TCheck SCRF=Check GenChk RB3LYP/6-31G(d) Freq
 --------------------------------------------------------------------

 Structure from the checkpoint file:  "JID_2704.chk"
 ------------------------------
 CID_85779516_JID_2704_neutraal
 ------------------------------
 Charge =  0 Multiplicity = 1

 SCF Done:  E(RB3LYP) =  -575.831181864     A.U. after    1 cycles

  Exact polarizability: 146.588   7.140  85.616   2.367   4.626  71.795
 Approx polarizability: 198.722  13.847 125.434  -0.817   9.415 110.144

                      1                      2                      3
                      A                      A                      A
 Frequencies --     10.1039                33.7475                53.4090
 Red. masses --      8.2893                 4.5269                 4.9304
 Frc consts  --      0.0005                 0.0030                 0.0083
 IR Inten    --      1.4417                 0.2461                 0.4856

                      4                      5                      6
                      A                      A                      A
 Frequencies --    126.5304               145.5291               186.6540
 Red. masses --      4.9640                 4.0477                 3.9810
 Frc consts  --      0.0468                 0.0505                 0.0817
 IR Inten    --      1.0684                 1.7149                 3.4705

                      7                      8                      9
                      A                      A                      A
 Frequencies --    213.8379               301.5148               350.0494
 Red. masses --      2.6530                 2.6221                 2.6989
 Frc consts  --      0.0715                 0.1404                 0.1949
 IR Inten    --      1.4441                 2.3231                 4.6646

                     10                     11                     12
                      A                      A                      A
 Frequencies --    372.7414               396.2673               447.8224
 Red. masses --      3.0932                 2.8637                 3.3075
 Frc consts  --      0.2532                 0.2649                 0.3908
 IR Inten    --      0.0243                 5.4641                 2.0747

                     13                     14                     15
                      A                      A                      A
 Frequencies --    452.0252               512.7915               563.6599
 Red. masses --      4.2496                 2.4859                 4.5892
 Frc consts  --      0.5116                 0.3851                 0.8591
 IR Inten    --      5.1317                 6.0434                26.6055

                     16                     17                     18
                      A                      A                      A
 Frequencies --    600.3308               618.5084               634.7516
 Red. masses --     10.0573                 1.2263                 2.0368
 Frc consts  --      2.1356                 0.2764                 0.4835
 IR Inten    --      0.6574                84.0403                11.8576

                     19                     20                     21
                      A                      A                      A
 Frequencies --    760.6914               767.3919               798.1598
 Red. masses --      3.8423                 7.5552                 2.8945
 Frc consts  --      1.3100                 2.6214                 1.0864
 IR Inten    --     38.9314                53.4249                 0.0737

                     22                     23                     24
                      A                      A                      A
 Frequencies --    837.0390               854.3753               893.1289
 Red. masses --      1.6088                 2.4720                 2.6271
 Frc consts  --      0.6641                 1.0631                 1.2347
 IR Inten    --      1.7267                 3.8898                18.0488

                     25                     26                     27
                      A                      A                      A
 Frequencies --    904.9497               954.8133              1002.8841
 Red. masses --      1.6861                 1.9418                 1.7762
 Frc consts  --      0.8135                 1.0430                 1.0526
 IR Inten    --      2.1537                11.4404                18.5518

                     28                     29                     30
                      A                      A                      A
 Frequencies --   1048.2643              1067.7415              1077.3507
 Red. masses --      2.0946                 2.0431                 1.9596
 Frc consts  --      1.3561                 1.3724                 1.3401
 IR Inten    --     17.8341                11.4712                55.9635

                     31                     32                     33
                      A                      A                      A
 Frequencies --   1082.6194              1133.2860              1147.9429
 Red. masses --      4.8052                 4.6155                 1.6553
 Frc consts  --      3.3183                 3.4926                 1.2852
 IR Inten    --     77.7163                63.3093                 7.0395

                     34                     35                     36
                      A                      A                      A
 Frequencies --   1207.6633              1211.0529              1235.7151
 Red. masses --      1.4220                 2.0724                 1.4480
 Frc consts  --      1.2219                 1.7908                 1.3027
 IR Inten    --      3.0464               341.9107                34.7497

                     37                     38                     39
                      A                      A                      A
 Frequencies --   1250.9949              1305.3631              1318.0407
 Red. masses --      1.3469                 1.2135                 1.3167
 Frc consts  --      1.2420                 1.2183                 1.3477
 IR Inten    --     13.8056                17.4965                 1.3722

                     40                     41                     42
                      A                      A                      A
 Frequencies --   1326.6350              1367.9385              1390.0142
 Red. masses --      1.2367                 1.3114                 1.4429
 Frc consts  --      1.2824                 1.4459                 1.6426
 IR Inten    --      3.2889                 3.2768                11.7100

                     43                     44                     45
                      A                      A                      A
 Frequencies --   1393.0911              1400.7405              1406.7773
 Red. masses --      2.1748                 1.5882                 1.3465
 Frc consts  --      2.4868                 1.8360                 1.5701
 IR Inten    --    125.8985                 6.5035                19.6724

                     46                     47                     48
                      A                      A                      A
 Frequencies --   1411.4714              1436.6512              1493.7020
 Red. masses --      1.4141                 1.3422                 1.0901
 Frc consts  --      1.6598                 1.6321                 1.4330
 IR Inten    --      0.6336                 7.5649                 3.3659

                     49                     50                     51
                      A                      A                      A
 Frequencies --   1505.6154              1517.0706              1529.1437
 Red. masses --      1.0942                 1.0837                 1.0943
 Frc consts  --      1.4615                 1.4695                 1.5077
 IR Inten    --      1.0600                11.9135                 3.2671

                     52                     53                     54
                      A                      A                      A
 Frequencies --   1540.4366              1815.6891              2355.3883
 Red. masses --      1.0923                10.0003                11.9315
 Frc consts  --      1.5271                19.4243                39.0005
 IR Inten    --      2.9149               397.6507               194.7907

                     55                     56                     57
                      A                      A                      A
 Frequencies --   2993.4140              3034.8491              3045.2457
 Red. masses --      1.0723                 1.0683                 1.0603
 Frc consts  --      5.6609                 5.7972                 5.7933
 IR Inten    --     49.3670                18.8673                27.3983

                     58                     59                     60
                      A                      A                      A
 Frequencies --   3053.4936              3055.5810              3081.7391
 Red. masses --      1.0598                 1.0635                 1.0926
 Frc consts  --      5.8218                 5.8500                 6.1136
 IR Inten    --     17.7254                 4.2849                17.4314

                     61                     62                     63
                      A                      A                      A
 Frequencies --   3085.5955              3091.6776              3096.8297
 Red. masses --      1.0954                 1.1022                 1.0953
 Frc consts  --      6.1448                 6.2074                 6.1892
 IR Inten    --     37.2197                41.5605                39.5053

                     64                     65                     66
                      A                      A                      A
 Frequencies --   3105.9273              3111.1050              3682.4392
 Red. masses --      1.1019                 1.0937                 1.0636
 Frc consts  --      6.2631                 6.2370                 8.4978
 IR Inten    --     26.3812                55.0272                74.3770

 - Thermochemistry -
 -------------------
 Temperature   298.150 Kelvin.  Pressure   1.00000 Atm.
 Atom     1 has atomic number  6 and mass  12.00000

 Molecular mass:   168.07864 amu.
 Principal axes and moments of inertia in atomic units:
                           1         2         3
     Eigenvalues --   745.306135005.568695372.91484
           X            0.99996  -0.00199   0.00859
           Y            0.00190   0.99995   0.01012
           Z           -0.00861  -0.01010   0.99991
 This molecule is an asymmetric top.
 Rotational symmetry number  1.
 Warning -- assumption of classical behavior for rotation
           may cause significant error
 Rotational temperatures (Kelvin)      0.11621     0.01730     0.01612
 Rotational constants (GHZ):           2.42148     0.36055     0.33590
 Zero-point vibrational energy     527601.0 (Joules/Mol)
                                  126.09967 (Kcal/Mol)
 Warning -- explicit consideration of  17 degrees of freedom as
           vibrations may cause significant error
 Vibrational temperatures:     14.54    48.56    76.84   182.05   209.38
          (Kelvin)            268.55   307.67   433.81   503.64   536.29
                              570.14   644.32   650.36   737.79   810.98
                              863.74   889.90   913.27  1094.47  1104.11
                             1148.37  1204.31  1229.26  1285.01  1302.02
                             1373.76  1442.93  1508.22  1536.24  1550.07
                             1557.65  1630.55  1651.63  1737.56  1742.44
                             1777.92  1799.90  1878.13  1896.37  1908.73
                             1968.16  1999.92  2004.35  2015.35  2024.04
                             2030.79  2067.02  2149.10  2166.24  2182.73
                             2200.10  2216.34  2612.37  3388.88  4306.86
                             4366.47  4381.43  4393.30  4396.30  4433.94
                             4439.48  4448.23  4455.65  4468.74  4476.19
                             5298.21

 Zero-point correction=                           0.200953 (Hartree/Particle)
 Thermal correction to Energy=                    0.212568
 Thermal correction to Enthalpy=                  0.213512
 Thermal correction to Gibbs Free Energy=         0.160372
 Sum of electronic and zero-point Energies=           -575.630229
 Sum of electronic and thermal Energies=              -575.618614
 Sum of electronic and thermal Enthalpies=            -575.617669
 Sum of electronic and thermal Free Energies=         -575.670810

                     E (Thermal)             CV                S
                      KCal/Mol        Cal/Mol-Kelvin    Cal/Mol-Kelvin
 Total                  133.389             42.771            111.843
 Electronic               0.000              0.000              0.000
 Translational            0.889              2.981             41.266
 Rotational               0.889              2.981             31.372
 Vibrational            131.611             36.809             39.205
 Vibration     1          0.593              1.987              7.991
 Vibration     2          0.594              1.983              5.596
 Vibration     3          0.596              1.976              4.687
 Vibration     4          0.611              1.927              2.998
 Vibration     5          0.617              1.908              2.730
 Vibration     6          0.632              1.858              2.261
 Vibration     7          0.644              1.820              2.011
 Vibration     8          0.694              1.671              1.408
 Vibration     9          0.727              1.575              1.166
 Vibration    10          0.744              1.528              1.068
 Vibration    11          0.763              1.478              0.976
 Vibration    12          0.807              1.366              0.802
 Vibration    13          0.811              1.356              0.790
 Vibration    14          0.868              1.222              0.627
 Vibration    15          0.919              1.110              0.517
 Vibration    16          0.958              1.031              0.449
 Vibration    17          0.978              0.993              0.419

 Optimization completed.
    -- Stationary point found.

 1\1\GINC-NODE379\Freq\RB3LYP\6-31G(d)\C9H12O3\VSC10255\09-Dec-2020\0\\
 #N Geom=AllCheck Guess=TCheck SCRF=Check GenChk RB3LYP/6-31G(d) Freq\\
 CID_85779516_JID_2704_neutraal\\0,1\C,1.521877366,0.0520529051,0.15742
 38635\C,0.6694859298,-1.1338578816,-0.3100967829\C,-0.7077932944,-1.07
 88100368,0.3480221481\O,-1.3714850032,0.1611655018,0.1070539515\C,-0.6
 500674119,1.3197212655,0.5161937629\C,0.7600083488,1.3606028557,-0.088
 4439964\C,-0.6653037272,1.4390948102,2.0653904885\C,-0.1220648693,2.70
 52563497,2.5321213468\C,0.3487134063,3.7702458149,2.8637218526\C,0.872

 Normal termination of Gaussian 16 at Wed Dec  9 18:01:16 2020.

 ----------------------------------------------------------------------
 # B3LYP/6-311++G(d,p) empiricaldispersion=gd3bj scf=xqc pop=npa geom=c
 heck
 ----------------------------------------------------------------------

 --------------------------------------
 CID_85779516_JID_2704_Energie_neutraal
 --------------------------------------
 Structure from the checkpoint file:  "JID_2704.chk"
 Charge =  0 Multiplicity = 1

 SCF Done:  E(RB3LYP) =  -576.006605813     A.U. after   15 cycles
 Normal termination of Gaussian 16 at Wed Dec  9 18:03:12 2020.

 ----------------------------------------------------------------------
 # B3LYP/6-311++G(d,p) empiricaldispersion=gd3bj scf=xqc pop=npa geom=c
 heck
 ----------------------------------------------------------------------

 ------------------------------------
 CID_85779516_JID_2704_Energie_kation
 ------------------------------------
 Structure from the checkpoint file:  "JID_2704.chk"
 Charge =  1 Multiplicity = 2

 SCF Done:  E(UB3LYP) =  -575.672755478     A.U. after   22 cycles
 Normal termination of Gaussian 16 at Wed Dec  9 18:08:22 2020.
 Gaussian 16:  ES64L-G16RevA.03 25-Dec-2016

 -----------------------------------
 CID_85779516_JID_2704_Energie_anion
 -----------------------------------
 Structure from the checkpoint file:  "JID_2704.chk"
 Charge = -1 Multiplicity = 2

                         Standard orientation:
 ---------------------------------------------------------------------
 Center     Atomic      Atomic             Coordinates (Angstroms)
 Number     Number       Type             X           Y           Z
 ---------------------------------------------------------------------
      1          6           0       -2.122408    1.462304   -0.612315
      2          6           0       -3.493737    0.788735   -0.480815
      3          6           0       -3.320204   -0.717200   -0.293480
      4          8           0       -2.482608   -1.029330    0.818770
      5          6           0       -1.183262   -0.446241    0.776392
      6          6           0       -1.243352    1.075226    0.583775
      7          6           0       -0.306245   -1.172066   -0.281205
      8          6           0        1.087356   -0.758317   -0.228278
      9          6           0        2.230981   -0.369570   -0.145880
     10          6           0        3.615166    0.024864   -0.090942
     11          8           0        4.548330   -0.647797   -0.475998
     12          8           0        3.762584    1.259785    0.450311
     13          1           0       -1.646218    1.149275   -1.552031
     14          1           0       -2.226281    2.551772   -0.666729
     15          1           0       -4.021154    1.195888    0.391524
     16          1           0       -4.118290    0.979788   -1.362251
     17          1           0       -4.273651   -1.207873   -0.078510
     18          1           0       -2.919599   -1.165517   -1.217446
     19          1           0       -0.753129   -0.667990    1.757872
     20          1           0       -0.227364    1.470795    0.478757
     21          1           0       -1.670127    1.510356    1.495787
     22          1           0       -0.389644   -2.251864   -0.107980
     23          1           0       -0.689796   -0.987230   -1.292086
     24          1           0        4.723042    1.434941    0.444907
 ---------------------------------------------------------------------

 SCF Done:  E(UB3LYP) =  -576.001727843     A.U. after   32 cycles

 The electronic state is 2-A.
 Alpha  occ. eigenvalues --  -19.04203 -19.01811 -18.97047 -10.16414 -10.12034
 Alpha  occ. eigenvalues --  -10.10803 -10.08092 -10.06474 -10.06213 -10.06189
 Alpha  occ. eigenvalues --  -10.04715 -10.04022  -0.97850  -0.93216  -0.88547
 Alpha  occ. eigenvalues --   -0.70399  -0.68852  -0.64661  -0.60613  -0.53945
 Alpha  occ. eigenvalues --   -0.53748  -0.51903  -0.44531  -0.41368  -0.40192
 Alpha  occ. eigenvalues --   -0.37521  -0.35750  -0.35500  -0.35026  -0.33038
 Alpha  occ. eigenvalues --   -0.32525  -0.31767  -0.31098  -0.28247  -0.27911
 Alpha  occ. eigenvalues --   -0.27401  -0.25254  -0.23269  -0.22313  -0.20418
 Alpha  occ. eigenvalues --   -0.19574  -0.17498  -0.16145  -0.15110  -0.13530
 Alpha  occ. eigenvalues --    0.04805
 Alpha virt. eigenvalues --    0.06444   0.08072   0.08478   0.08611   0.09376
 Alpha virt. eigenvalues --    0.10903   0.11317   0.11659   0.12138   0.13400
 Alpha virt. eigenvalues --    0.14305   0.14899   0.15505   0.16089   0.16447

  Beta  occ. eigenvalues --  -19.04126 -19.01802 -18.96758 -10.16090 -10.12022
  Beta  occ. eigenvalues --  -10.10771 -10.08113 -10.06458 -10.06211 -10.06161
  Beta  occ. eigenvalues --  -10.04446 -10.04045  -0.97522  -0.93194  -0.88113
  Beta  occ. eigenvalues --   -0.70297  -0.68739  -0.64402  -0.60390  -0.53724
  Beta  occ. eigenvalues --   -0.53498  -0.51750  -0.44438  -0.41095  -0.40092
  Beta  occ. eigenvalues --   -0.37450  -0.35553  -0.35262  -0.34905  -0.32860
  Beta  occ. eigenvalues --   -0.31817  -0.31146  -0.30938  -0.28008  -0.27866
  Beta  occ. eigenvalues --   -0.27298  -0.25206  -0.23230  -0.22275  -0.19618
  Beta  occ. eigenvalues --   -0.19149  -0.17356  -0.15748  -0.14328  -0.13364
  Beta virt. eigenvalues --    0.07309   0.08348   0.08699   0.09072   0.09645
  Beta virt. eigenvalues --    0.10176   0.11442   0.11559   0.11699   0.12307
  Beta virt. eigenvalues --    0.13510   0.14437   0.14948   0.15561   0.16130

 Mulliken charges and spin densities:
               1          2
     1  C   -0.446058   0.212644
     2  C    0.501175  -0.821723
     3  C    0.521424  -0.815490
     4  O   -0.129743   0.025133
     5  C   -0.256686   0.425500
     6  C    0.004067  -0.468683
     7  C   -0.033234  -0.457265
     8  C    0.102737   0.165262
     9  C    0.053354  -0.142740
    10  C   -0.334853   0.340852
    11  O   -0.372765   0.091842
    12  O   -0.191118   0.011519
    13  H    0.073550   0.085361
    14  H   -0.153590   0.308980
    15  H    0.161327  -0.017852
    16  H   -0.810400   0.963456
    17  H   -0.422383   0.607744
    18  H   -0.002446   0.138273
    19  H    0.114517   0.092617
    20  H    0.238933  -0.073488
    21  H    0.004635   0.130618
    22  H    0.215203  -0.029833
    23  H   -0.080651   0.220862
    24  H    0.243005   0.006411
 Sum of Mulliken charges =  -1.00000   1.00000

 Dipole moment (field-independent basis, Debye):
    X=              1.4726    Y=              1.3397    Z=              3.0022  Tot=              3.6023
 Quadrupole moment (field-independent basis, Debye-Ang):
   XX=           -159.3279   YY=            -92.2289   ZZ=            -93.2654
   XY=             10.4060   XZ=             -4.9615   YZ=              1.8350

 Summary of Natural Population Analysis:

                                       Natural Population
                Natural  -----------------------------------------------
    Atom  No    Charge         Core      Valence    Rydberg      Total
 -----------------------------------------------------------------------
      C    1   -0.19340      0.99963     2.18455    0.00922     3.19340
      C    2   -0.20482      0.99963     2.19570    0.00950     3.20482
      C    3   -0.01106      0.99957     1.99694    0.01455     3.01106
      O    4   -0.30621      0.99989     3.29686    0.00947     4.30621
      C    5    0.07911      0.99955     1.90693    0.01441     2.92089
      C    6   -0.20799      0.99960     2.19935    0.00903     3.20799
      C    7   -0.25649      0.99958     2.24514    0.01177     3.25649
      C    8    0.10857      0.99929     1.88380    0.00834     2.89143
      C    9   -0.10027      0.99924     2.08816    0.01286     3.10027
      C   10    0.40226      0.99965     1.57302    0.02508     2.59774
      O   11   -0.28688      0.99987     3.28064    0.00637     4.28688
      O   12   -0.34370      0.99988     3.33775    0.00607     4.34370
      H   13    0.09636      0.00000     0.40232    0.00131     0.40364
      H   14    0.09939      0.00000     0.39963    0.00098     0.40061
      H   15    0.09316      0.00000     0.40554    0.00129     0.40684
      H   16    0.10405      0.00000     0.39293    0.00302     0.39595
      H   17    0.09196      0.00000     0.40650    0.00154     0.40804
      H   18    0.07790      0.00000     0.42053    0.00157     0.42210
      H   19    0.09258      0.00000     0.40626    0.00116     0.40742
      H   20    0.11134      0.00000     0.38759    0.00107     0.38866
      H   21    0.09600      0.00000     0.40290    0.00110     0.40400
      H   22    0.11421      0.00000     0.38428    0.00151     0.38579
      H   23    0.11590      0.00000     0.38231    0.00179     0.38410
      H   24    0.23134      0.00000     0.26625    0.00241     0.26866
 =======================================================================
   * Total *    0.00332     11.99539    32.84587    0.15542    44.99668

 Normal termination of Gaussian 16 at Wed Dec  9 18:16:21 2020.
