 Gaussian 16, Revision A.03,

 -----------------------------------------------------------
 # opt freq B3LYP/6-31G(d) empiricaldispersion=gd3bj scf=xqc
 -----------------------------------------------------------

 ------------------------------
 CID_147775338_JID_120_neutraal
 ------------------------------
 Symbolic Z-matrix:
 Charge =  0 Multiplicity = 1

 SCF Done:  E(RB3LYP) =  -799.074224711     A.U. after   17 cycles
 SCF Done:  E(RB3LYP) =  -799.082378792     A.U. after   14 cycles
 SCF Done:  E(RB3LYP) =  -799.084140575     A.U. after   16 cycles
 SCF Done:  E(RB3LYP) =  -799.084294423     A.U. after   14 cycles
 SCF Done:  E(RB3LYP) =  -799.085262948     A.U. after   13 cycles
 SCF Done:  E(RB3LYP) =  -799.085487266     A.U. after   12 cycles
 SCF Done:  E(RB3LYP) =  -799.085616149     A.U. after   13 cycles
 SCF Done:  E(RB3LYP) =  -799.085646493     A.U. after   11 cycles
 SCF Done:  E(RB3LYP) =  -799.085662984     A.U. after   11 cycles
 SCF Done:  E(RB3LYP) =  -799.085664520     A.U. after    9 cycles
 SCF Done:  E(RB3LYP) =  -799.085665116     A.U. after    9 cycles
 Optimization completed.
    -- Stationary point found.
 Normal termination of Gaussian 16 at Tue Dec  8 10:17:07 2020.

 --------------------------------------------------------------------
 #N Geom=AllCheck Guess=TCheck SCRF=Check GenChk RB3LYP/6-31G(d) Freq
 --------------------------------------------------------------------

 Structure from the checkpoint file:  "JID_120.chk"
 ------------------------------
 CID_147775338_JID_120_neutraal
 ------------------------------
 Charge =  0 Multiplicity = 1

 SCF Done:  E(RB3LYP) =  -799.085665116     A.U. after    1 cycles

  Exact polarizability: 131.352   2.021 108.034  -5.570   1.184  53.926
 Approx polarizability: 219.915  27.018 199.951 -17.061   2.740  86.997

                      1                      2                      3
                      A                      A                      A
 Frequencies --     59.1358                91.7045               170.3426
 Red. masses --      4.7699                 5.9686                 1.1096
 Frc consts  --      0.0098                 0.0296                 0.0190
 IR Inten    --      6.0580                 1.7691                 1.4244

                      4                      5                      6
                      A                      A                      A
 Frequencies --    177.7999               200.8208               252.2488
 Red. masses --      5.1571                 3.9081                 3.5468
 Frc consts  --      0.0961                 0.0929                 0.1330
 IR Inten    --      1.7709                11.0917                 3.0619

                      7                      8                      9
                      A                      A                      A
 Frequencies --    292.0247               353.5136               412.4423
 Red. masses --      7.6805                 6.1943                 3.1835
 Frc consts  --      0.3859                 0.4561                 0.3191
 IR Inten    --      1.4474                 0.3594                 3.6692

                     10                     11                     12
                      A                      A                      A
 Frequencies --    418.2501               475.0909               551.6406
 Red. masses --      3.3381                 6.7255                 3.7458
 Frc consts  --      0.3441                 0.8944                 0.6716
 IR Inten    --      5.4284                 5.0307                 1.2714

                     13                     14                     15
                      A                      A                      A
 Frequencies --    597.6002               609.0883               648.5250
 Red. masses --      6.6493                 3.6151                 2.7339
 Frc consts  --      1.3991                 0.7902                 0.6775
 IR Inten    --     10.4563                16.3647                33.6901

                     16                     17                     18
                      A                      A                      A
 Frequencies --    760.0776               785.6372               818.5328
 Red. masses --      2.5452                 3.6002                 2.1526
 Frc consts  --      0.8664                 1.3092                 0.8497
 IR Inten    --     17.3805                12.2922                45.5279

                     19                     20                     21
                      A                      A                      A
 Frequencies --    888.4824               921.1404               939.7626
 Red. masses --      1.8956                 2.4270                 4.0199
 Frc consts  --      0.8817                 1.2133                 2.0917
 IR Inten    --     12.6289                 9.1031                11.9929

                     22                     23                     24
                      A                      A                      A
 Frequencies --    965.4854              1003.1954              1024.6371
 Red. masses --      2.0330                 2.1677                 1.2869
 Frc consts  --      1.1165                 1.2854                 0.7960
 IR Inten    --     26.3515                 0.6401                 1.0587

                     25                     26                     27
                      A                      A                      A
 Frequencies --   1055.6339              1079.4877              1254.9802
 Red. masses --      1.8268                 1.9627                 1.5408
 Frc consts  --      1.1994                 1.3475                 1.4298
 IR Inten    --      2.4663                16.0932               136.7990

                     28                     29                     30
                      A                      A                      A
 Frequencies --   1274.5644              1346.8557              1372.7599
 Red. masses --      1.6364                 1.2739                 1.2682
 Frc consts  --      1.5663                 1.3616                 1.4080
 IR Inten    --     79.6105                40.8423                 5.1120

                     31                     32                     33
                      A                      A                      A
 Frequencies --   1414.7778              1468.7522              1501.4601
 Red. masses --      1.3223                 1.6523                 1.0542
 Frc consts  --      1.5594                 2.1001                 1.4002
 IR Inten    --     49.2386                 4.6354                 7.6329

                     34                     35                     36
                      A                      A                      A
 Frequencies --   1510.0458              1592.8776              1685.2350
 Red. masses --      1.0475                 9.0007                 7.2899
 Frc consts  --      1.4073                13.4552                12.1981
 IR Inten    --     10.2371                29.4084                66.6623

                     37                     38                     39
                      A                      A                      A
 Frequencies --   1701.2378              1768.4643              3057.8925
 Red. masses --      7.3857                10.6895                 1.0386
 Frc consts  --     12.5943                19.6970                 5.7217
 IR Inten    --     18.5457               194.5281                 1.9442

                     40                     41                     42
                      A                      A                      A
 Frequencies --   3085.9428              3119.5658              3173.2195
 Red. masses --      1.0846                 1.0998                 1.1014
 Frc consts  --      6.0854                 6.3059                 6.5341
 IR Inten    --     21.6005                 7.6491                 9.3085

                     43                     44                     45
                      A                      A                      A
 Frequencies --   3174.3357              3199.0610              3204.8412
 Red. masses --      1.0870                 1.0884                 1.0906
 Frc consts  --      6.4535                 6.5628                 6.5996
 IR Inten    --      9.5052                 4.3529                 6.2290

 - Thermochemistry -
 -------------------
 Temperature   298.150 Kelvin.  Pressure   1.00000 Atm.
 Atom     1 has atomic number  6 and mass  12.00000

 Molecular mass:   153.02484 amu.
 Principal axes and moments of inertia in atomic units:
                           1         2         3
     Eigenvalues --   838.978032177.407002823.08395
           X            0.99843  -0.05599   0.00303
           Y            0.05603   0.99830  -0.01636
           Z           -0.00211   0.01650   0.99986
 This molecule is an asymmetric top.
 Rotational symmetry number  1.
 Warning -- assumption of classical behavior for rotation
           may cause significant error
 Rotational temperatures (Kelvin)      0.10324     0.03978     0.03068
 Rotational constants (GHZ):           2.15112     0.82885     0.63928
 Zero-point vibrational energy     331719.5 (Joules/Mol)
                                   79.28286 (Kcal/Mol)
 Warning -- explicit consideration of  14 degrees of freedom as
           vibrations may cause significant error
 Vibrational temperatures:     85.08   131.94   245.08   255.81   288.94
          (Kelvin)            362.93   420.16   508.63   593.41   601.77
                              683.55   793.69   859.81   876.34   933.08
                             1093.58  1130.36  1177.69  1278.33  1325.32
                             1352.11  1389.12  1443.37  1474.22  1518.82
                             1553.14  1805.64  1833.81  1937.82  1975.10
                             2035.55  2113.21  2160.27  2172.62  2291.80
                             2424.68  2447.70  2544.43  4399.63  4439.98
                             4488.36  4565.56  4567.16  4602.74  4611.05

 Zero-point correction=                           0.126345 (Hartree/Particle)
 Thermal correction to Energy=                    0.135895
 Thermal correction to Enthalpy=                  0.136840
 Thermal correction to Gibbs Free Energy=         0.091059
 Sum of electronic and zero-point Energies=           -798.959320
 Sum of electronic and thermal Energies=              -798.949770
 Sum of electronic and thermal Enthalpies=            -798.948826
 Sum of electronic and thermal Free Energies=         -798.994606

                     E (Thermal)             CV                S
                      KCal/Mol        Cal/Mol-Kelvin    Cal/Mol-Kelvin
 Total                   85.276             35.063             96.353
 Electronic               0.000              0.000              0.000
 Translational            0.889              2.981             40.986
 Rotational               0.889              2.981             30.023
 Vibrational             83.498             29.101             25.343
 Vibration     1          0.597              1.974              4.486
 Vibration     2          0.602              1.955              3.623
 Vibration     3          0.625              1.879              2.432
 Vibration     4          0.628              1.870              2.351
 Vibration     5          0.638              1.839              2.126
 Vibration     6          0.664              1.759              1.715
 Vibration     7          0.687              1.689              1.462
 Vibration     8          0.730              1.568              1.150
 Vibration     9          0.776              1.443              0.918
 Vibration    10          0.781              1.431              0.898
 Vibration    11          0.832              1.305              0.723
 Vibration    12          0.907              1.136              0.541
 Vibration    13          0.956              1.037              0.454
 Vibration    14          0.968              1.013              0.434

                           ! Non-Optimized Parameters !
 Normal termination of Gaussian 16 at Tue Dec  8 10:19:46 2020.

 ----------------------------------------------------------------------
 # B3LYP/6-311++G(d,p) empiricaldispersion=gd3bj scf=xqc pop=npa geom=c
 heck
 ----------------------------------------------------------------------

 --------------------------------------
 CID_147775338_JID_120_Energie_neutraal
 --------------------------------------
 Structure from the checkpoint file:  "JID_120.chk"
 Charge =  0 Multiplicity = 1

 SCF Done:  E(RB3LYP) =  -799.223399805     A.U. after   18 cycles
 Normal termination of Gaussian 16 at Tue Dec  8 10:20:51 2020.

 ----------------------------------------------------------------------
 # B3LYP/6-311++G(d,p) empiricaldispersion=gd3bj scf=xqc pop=npa geom=c
 heck
 ----------------------------------------------------------------------

 ------------------------------------
 CID_147775338_JID_120_Energie_kation
 ------------------------------------
 Structure from the checkpoint file:  "JID_120.chk"
 Charge =  1 Multiplicity = 2

 SCF Done:  E(UB3LYP) =  -798.919890142     A.U. after   23 cycles
 Normal termination of Gaussian 16 at Tue Dec  8 10:22:39 2020.
 Gaussian 16:  ES64L-G16RevA.03 25-Dec-2016

 ----------------------------------------------------------------------
 # B3LYP/6-311++G(d,p) empiricaldispersion=gd3bj scf=xqc pop=npa geom=c
 heck
 ----------------------------------------------------------------------

 -----------------------------------
 CID_147775338_JID_120_Energie_anion
 -----------------------------------
 Structure from the checkpoint file:  "JID_120.chk"
 Charge = -1 Multiplicity = 2

                         Standard orientation:
 ---------------------------------------------------------------------
 Center     Atomic      Atomic             Coordinates (Angstroms)
 Number     Number       Type             X           Y           Z
 ---------------------------------------------------------------------
      1          6           0        2.916906   -1.151680    0.441177
      2          6           0        2.186661    0.124218    0.061416
      3          8           0        2.802004    1.167668   -0.101719
      4          6           0        0.698399    0.095504   -0.130108
      5          6           0        0.031801   -1.088531   -0.131967
      6         16           0       -1.677663   -1.325041   -0.427939
      7          7           0       -2.469480   -0.197974    0.689180
      8          6           0       -2.184917    1.044838    0.588131
      9          6           0       -1.187820    1.770675   -0.199972
     10          6           0        0.085604    1.383786   -0.428910
     11          1           0        3.974329   -0.915612    0.568197
     12          1           0        2.813423   -1.913416   -0.340609
     13          1           0        2.522609   -1.575835    1.371053
     14          1           0        0.572344   -2.015490    0.037656
     15          1           0       -2.774413    1.676383    1.263870
     16          1           0       -1.455207    2.799431   -0.432240
     17          1           0        0.780046    2.116802   -0.830017
 ---------------------------------------------------------------------

 SCF Done:  E(UB3LYP) =  -799.264036009     A.U. after   24 cycles

 The electronic state is 2-A.
 Alpha  occ. eigenvalues --  -88.70907 -18.94949 -14.16339 -10.10332 -10.06149
 Alpha  occ. eigenvalues --  -10.04536 -10.02970 -10.02746 -10.02141 -10.02034
 Alpha  occ. eigenvalues --   -7.79260  -5.75725  -5.75249  -5.74655  -0.88834
 Alpha  occ. eigenvalues --   -0.76876  -0.66879  -0.63074  -0.60878  -0.54585
 Alpha  occ. eigenvalues --   -0.50552  -0.42876  -0.38962  -0.37282  -0.34762
 Alpha  occ. eigenvalues --   -0.31489  -0.31123  -0.29102  -0.27561  -0.27011
 Alpha  occ. eigenvalues --   -0.25087  -0.24168  -0.22816  -0.22257  -0.17495
 Alpha  occ. eigenvalues --   -0.16084  -0.12837  -0.12380  -0.10358  -0.05566
 Alpha  occ. eigenvalues --    0.02359
 Alpha virt. eigenvalues --    0.09113   0.09486   0.10063   0.11751   0.12231
 Alpha virt. eigenvalues --    0.13013   0.13742   0.14362   0.15019   0.15787
 Alpha virt. eigenvalues --    0.16293   0.16618   0.18148   0.18315   0.18881

  Beta  occ. eigenvalues --  -88.70909 -18.94697 -14.15974 -10.10236 -10.06084
  Beta  occ. eigenvalues --  -10.04545 -10.02622 -10.02362 -10.02017 -10.02009
  Beta  occ. eigenvalues --   -7.79260  -5.75736  -5.75277  -5.74622  -0.88399
  Beta  occ. eigenvalues --   -0.76255  -0.66268  -0.62592  -0.60655  -0.54321
  Beta  occ. eigenvalues --   -0.49715  -0.42343  -0.38568  -0.36925  -0.34551
  Beta  occ. eigenvalues --   -0.31267  -0.30863  -0.28881  -0.27143  -0.26781
  Beta  occ. eigenvalues --   -0.24870  -0.23308  -0.22220  -0.21450  -0.16931
  Beta  occ. eigenvalues --   -0.14416  -0.12056  -0.11091  -0.09993  -0.05050
  Beta virt. eigenvalues --    0.08714   0.09118   0.10049   0.10838   0.11792
  Beta virt. eigenvalues --    0.12288   0.13198   0.13742   0.14350   0.15469
  Beta virt. eigenvalues --    0.15854   0.16319   0.17348   0.18196   0.18448

 Mulliken charges and spin densities:
               1          2
     1  C   -0.469623  -0.012945
     2  C   -0.352740   0.054464
     3  O   -0.346331   0.083519
     4  C    1.828827   0.000576
     5  C   -1.214310   0.429266
     6  S   -0.214777   0.067381
     7  N   -0.115683   0.141688
     8  C   -0.905756   0.061614
     9  C   -0.023817   0.082839
    10  C   -0.208133   0.102031
    11  H    0.146029   0.000197
    12  H    0.120774   0.012915
    13  H    0.135632   0.004254
    14  H    0.211710  -0.021069
    15  H    0.108069   0.009815
    16  H    0.120529  -0.009191
    17  H    0.179600  -0.007354
 Sum of Mulliken charges =  -1.00000   1.00000

 Dipole moment (field-independent basis, Debye):
    X=              1.3196    Y=             -0.7086    Z=              0.1368  Tot=              1.5041
 Quadrupole moment (field-independent basis, Debye-Ang):
   XX=           -100.5939   YY=            -78.4789   ZZ=            -74.8624
   XY=            -12.5076   XZ=              2.3587   YZ=              0.3740

 Summary of Natural Population Analysis:

                                       Natural Population
                Natural  -----------------------------------------------
    Atom  No    Charge         Core      Valence    Rydberg      Total
 -----------------------------------------------------------------------
      C    1   -0.33248      0.99963     2.32838    0.00447     3.33248
      C    2    0.28281      0.99964     1.69726    0.02029     2.71719
      O    3   -0.28814      0.99988     3.28062    0.00765     4.28814
      C    4   -0.11791      0.99941     2.10253    0.01596     3.11791
      C    5   -0.01750      0.99943     2.00843    0.00964     3.01750
      S    6    0.16298      4.99951     2.80935    0.02817     7.83702
      N    7   -0.23782      0.99969     2.72433    0.01380     3.73782
      C    8    0.05466      0.99962     1.92807    0.01765     2.94534
      C    9   -0.13165      0.99952     2.12212    0.01001     3.13165
      C   10   -0.04235      0.99952     2.03239    0.01044     3.04235
      H   11    0.10181      0.00000     0.39659    0.00159     0.39819
      H   12    0.10415      0.00000     0.39483    0.00103     0.39585
      H   13    0.10484      0.00000     0.39416    0.00099     0.39516
      H   14    0.08621      0.00000     0.41259    0.00121     0.41379
      H   15    0.08023      0.00000     0.41764    0.00214     0.41977
      H   16    0.08831      0.00000     0.40982    0.00186     0.41169
      H   17    0.10185      0.00000     0.39680    0.00135     0.39815
 =======================================================================
   * Total *    0.00000     13.99586    25.85589    0.14826    40.00000

 Normal termination of Gaussian 16 at Tue Dec  8 10:24:33 2020.
