 Gaussian 16, Revision A.03,

 -----------------------------------------------------------
 # opt freq B3LYP/6-31G(d) empiricaldispersion=gd3bj scf=xqc
 -----------------------------------------------------------

 ------------------------------
 CID_130813402_JID_774_neutraal
 ------------------------------
 Symbolic Z-matrix:
 Charge =  0 Multiplicity = 1

 SCF Done:  E(RB3LYP) =  -494.570442111     A.U. after   15 cycles
 SCF Done:  E(RB3LYP) =  -494.574366749     A.U. after   13 cycles
 SCF Done:  E(RB3LYP) =  -494.575389867     A.U. after   13 cycles
 SCF Done:  E(RB3LYP) =  -494.575752209     A.U. after   13 cycles
 SCF Done:  E(RB3LYP) =  -494.575854217     A.U. after   12 cycles
 SCF Done:  E(RB3LYP) =  -494.576000274     A.U. after   12 cycles
 SCF Done:  E(RB3LYP) =  -494.576038151     A.U. after   12 cycles
 SCF Done:  E(RB3LYP) =  -494.576064749     A.U. after   10 cycles
 SCF Done:  E(RB3LYP) =  -494.576073230     A.U. after   10 cycles
 SCF Done:  E(RB3LYP) =  -494.576074645     A.U. after   10 cycles
 SCF Done:  E(RB3LYP) =  -494.576075068     A.U. after    8 cycles
 SCF Done:  E(RB3LYP) =  -494.576075282     A.U. after    8 cycles
 SCF Done:  E(RB3LYP) =  -494.576075335     A.U. after    8 cycles
 Optimization completed.
    -- Stationary point found.
 Normal termination of Gaussian 16 at Tue Dec  8 12:40:11 2020.

 --------------------------------------------------------------------
 #N Geom=AllCheck Guess=TCheck SCRF=Check GenChk RB3LYP/6-31G(d) Freq
 --------------------------------------------------------------------

 Structure from the checkpoint file:  "JID_774.chk"
 ------------------------------
 CID_130813402_JID_774_neutraal
 ------------------------------
 Charge =  0 Multiplicity = 1

 SCF Done:  E(RB3LYP) =  -494.576075335     A.U. after    1 cycles

  Exact polarizability:  90.375  -5.580  80.936   1.603  -1.407  64.057
 Approx polarizability: 122.460 -14.253 125.534   1.935  -7.232  92.655

                      1                      2                      3
                      A                      A                      A
 Frequencies --     29.5751                56.1065                98.2713
 Red. masses --      5.2132                 3.2838                 5.3482
 Frc consts  --      0.0027                 0.0061                 0.0304
 IR Inten    --      3.9214                 0.5761                 0.9135

                      4                      5                      6
                      A                      A                      A
 Frequencies --    121.4401               146.1698               221.4084
 Red. masses --      3.8632                 6.8847                 1.0582
 Frc consts  --      0.0336                 0.0867                 0.0306
 IR Inten    --      3.2030                 2.6582                 0.2795

                      7                      8                      9
                      A                      A                      A
 Frequencies --    238.5262               281.6862               321.3389
 Red. masses --      3.7038                 1.1474                 3.2008
 Frc consts  --      0.1242                 0.0536                 0.1947
 IR Inten    --     13.2194                 0.3085                 0.5449

                     10                     11                     12
                      A                      A                      A
 Frequencies --    336.6878               372.4061               423.9645
 Red. masses --      2.8436                 3.3131                 3.8596
 Frc consts  --      0.1899                 0.2707                 0.4087
 IR Inten    --      3.5250                 0.8507                 6.0932

                     13                     14                     15
                      A                      A                      A
 Frequencies --    459.6574               477.7787               478.1017
 Red. masses --      2.6350                 3.7413                 3.9577
 Frc consts  --      0.3280                 0.5032                 0.5330
 IR Inten    --     18.1650                 6.2465                15.2241

                     16                     17                     18
                      A                      A                      A
 Frequencies --    546.1346               698.0262               710.4264
 Red. masses --      2.7275                 2.2389                 5.0441
 Frc consts  --      0.4793                 0.6427                 1.4999
 IR Inten    --     47.7026               145.1410                16.6214

                     19                     20                     21
                      A                      A                      A
 Frequencies --    836.3447               871.9159               928.3860
 Red. masses --      2.7886                 4.0709                 2.3527
 Frc consts  --      1.1492                 1.8235                 1.1947
 IR Inten    --      8.5598                 6.0999                15.0795

                     22                     23                     24
                      A                      A                      A
 Frequencies --    948.2932               961.8489               965.3154
 Red. masses --      1.3180                 1.3799                 2.0894
 Frc consts  --      0.6983                 0.7522                 1.1471
 IR Inten    --      2.7260                 1.7772                 6.3737

                     25                     26                     27
                      A                      A                      A
 Frequencies --    975.5895              1114.3879              1151.8362
 Red. masses --      3.4172                 5.8731                 1.8547
 Frc consts  --      1.9163                 4.2972                 1.4498
 IR Inten    --      3.2826                25.6215                48.1688

                     28                     29                     30
                      A                      A                      A
 Frequencies --   1183.9416              1215.7925              1219.6683
 Red. masses --      2.0533                 1.8897                 1.2100
 Frc consts  --      1.6957                 1.6458                 1.0605
 IR Inten    --     33.9155                 6.1418                 7.2619

                     31                     32                     33
                      A                      A                      A
 Frequencies --   1327.9862              1370.6297              1374.4589
 Red. masses --      1.4320                 2.8235                 1.2950
 Frc consts  --      1.4879                 3.1252                 1.4414
 IR Inten    --      2.3843               103.8777                21.7920

                     34                     35                     36
                      A                      A                      A
 Frequencies --   1394.7556              1430.9247              1441.7105
 Red. masses --      1.3591                 1.3880                 1.3040
 Frc consts  --      1.5578                 1.6744                 1.5969
 IR Inten    --     15.4116                23.1629                 6.9336

                     37                     38                     39
                      A                      A                      A
 Frequencies --   1448.5673              1480.3166              1511.4588
 Red. masses --      1.3672                 1.0846                 1.0514
 Frc consts  --      1.6902                 1.4003                 1.4152
 IR Inten    --     26.4850                12.8936                 0.8929

                     40                     41                     42
                      A                      A                      A
 Frequencies --   1519.3275              1525.4960              1543.2129
 Red. masses --      1.0465                 1.0496                 1.0521
 Frc consts  --      1.4233                 1.4391                 1.4763
 IR Inten    --      1.5212                 5.1994                 8.9715

                     43                     44                     45
                      A                      A                      A
 Frequencies --   1816.6224              2377.5967              3030.4012
 Red. masses --      9.8269                12.6036                 1.0853
 Frc consts  --     19.1071                41.9780                 5.8724
 IR Inten    --    341.2286                 8.7022                35.5680

                     46                     47                     48
                      A                      A                      A
 Frequencies --   3055.0304              3065.9323              3089.8654
 Red. masses --      1.0357                 1.0353                 1.0590
 Frc consts  --      5.6953                 5.7337                 5.9569
 IR Inten    --     12.4017                 9.9183                 0.5684

                     49                     50                     51
                      A                      A                      A
 Frequencies --   3124.5450              3135.7911              3139.2210
 Red. masses --      1.1021                 1.1025                 1.1027
 Frc consts  --      6.3396                 6.3872                 6.4023
 IR Inten    --     17.7503                17.6486                31.4384

                     52                     53                     54
                      A                      A                      A
 Frequencies --   3143.2687              3145.5315              3523.3991
 Red. masses --      1.1033                 1.1033                 1.0771
 Frc consts  --      6.4224                 6.4318                 7.8786
 IR Inten    --      0.0938                17.7837                16.9703

 - Thermochemistry -
 -------------------
 Temperature   298.150 Kelvin.  Pressure   1.00000 Atm.
 Atom     1 has atomic number  6 and mass  12.00000

 Molecular mass:   142.07423 amu.
 Principal axes and moments of inertia in atomic units:
                           1         2         3
     Eigenvalues --  1057.131871845.389292395.67728
           X            0.99999  -0.00383   0.00329
           Y            0.00385   0.99997  -0.00645
           Z           -0.00327   0.00647   0.99997
 This molecule is an asymmetric top.
 Rotational symmetry number  1.
 Warning -- assumption of classical behavior for rotation
           may cause significant error
 Rotational temperatures (Kelvin)      0.08193     0.04694     0.03615
 Rotational constants (GHZ):           1.70721     0.97797     0.75333
 Zero-point vibrational energy     427109.2 (Joules/Mol)
                                  102.08154 (Kcal/Mol)
 Warning -- explicit consideration of  16 degrees of freedom as
           vibrations may cause significant error
 Vibrational temperatures:     42.55    80.72   141.39   174.73   210.31
          (Kelvin)            318.56   343.19   405.28   462.34   484.42
                              535.81   609.99   661.34   687.42   687.88
                              785.77  1004.30  1022.15  1203.31  1254.49
                             1335.74  1364.38  1383.89  1388.87  1403.66
                             1603.36  1657.24  1703.43  1749.25  1754.83
                             1910.68  1972.03  1977.54  2006.74  2058.78
                             2074.30  2084.17  2129.85  2174.65  2185.97
                             2194.85  2220.34  2613.71  3420.83  4360.07
                             4395.51  4411.19  4445.63  4495.52  4511.70
                             4516.64  4522.46  4525.72  5069.39

 Zero-point correction=                           0.162677 (Hartree/Particle)
 Thermal correction to Energy=                    0.173831
 Thermal correction to Enthalpy=                  0.174775
 Thermal correction to Gibbs Free Energy=         0.124955
 Sum of electronic and zero-point Energies=           -494.413398
 Sum of electronic and thermal Energies=              -494.402244
 Sum of electronic and thermal Enthalpies=            -494.401300
 Sum of electronic and thermal Free Energies=         -494.451120

                     E (Thermal)             CV                S
                      KCal/Mol        Cal/Mol-Kelvin    Cal/Mol-Kelvin
 Total                  109.081             39.434            104.855
 Electronic               0.000              0.000              0.000
 Translational            0.889              2.981             40.765
 Rotational               0.889              2.981             29.926
 Vibrational            107.303             33.473             34.165
 Vibration     1          0.593              1.984              5.858
 Vibration     2          0.596              1.975              4.590
 Vibration     3          0.604              1.950              3.488
 Vibration     4          0.609              1.931              3.077
 Vibration     5          0.617              1.907              2.721
 Vibration     6          0.648              1.808              1.948
 Vibration     7          0.657              1.782              1.814
 Vibration     8          0.681              1.708              1.523
 Vibration     9          0.707              1.633              1.303
 Vibration    10          0.717              1.602              1.228
 Vibration    11          0.744              1.529              1.070
 Vibration    12          0.786              1.418              0.879
 Vibration    13          0.818              1.340              0.767
 Vibration    14          0.834              1.299              0.716
 Vibration    15          0.835              1.299              0.715
 Vibration    16          0.901              1.148              0.552

 Optimization completed.
    -- Stationary point found.
 Normal termination of Gaussian 16 at Tue Dec  8 12:48:46 2020.

 ----------------------------------------------------------------------
 # B3LYP/6-311++G(d,p) empiricaldispersion=gd3bj scf=xqc pop=npa geom=c
 heck
 ----------------------------------------------------------------------

 --------------------------------------
 CID_130813402_JID_774_Energie_neutraal
 --------------------------------------
 Structure from the checkpoint file:  "JID_774.chk"
 Charge =  0 Multiplicity = 1

 SCF Done:  E(RB3LYP) =  -494.726384656     A.U. after   14 cycles
 Normal termination of Gaussian 16 at Tue Dec  8 12:51:34 2020.

 ----------------------------------------------------------------------
 # B3LYP/6-311++G(d,p) empiricaldispersion=gd3bj scf=xqc pop=npa geom=c
 heck
 ----------------------------------------------------------------------

 ------------------------------------
 CID_130813402_JID_774_Energie_kation
 ------------------------------------
 Structure from the checkpoint file:  "JID_774.chk"
 Charge =  1 Multiplicity = 2

 SCF Done:  E(UB3LYP) =  -494.361730759     A.U. after   26 cycles
 Normal termination of Gaussian 16 at Tue Dec  8 13:04:04 2020.
 Gaussian 16:  ES64L-G16RevA.03 25-Dec-2016

 ----------------------------------------------------------------------
 # B3LYP/6-311++G(d,p) empiricaldispersion=gd3bj scf=xqc pop=npa geom=c
 heck
 ----------------------------------------------------------------------

 -----------------------------------
 CID_130813402_JID_774_Energie_anion
 -----------------------------------
 Structure from the checkpoint file:  "JID_774.chk"
 Charge = -1 Multiplicity = 2

                         Standard orientation:
 ---------------------------------------------------------------------
 Center     Atomic      Atomic             Coordinates (Angstroms)
 Number     Number       Type             X           Y           Z
 ---------------------------------------------------------------------
      1          6           0       -1.837102   -0.655884    1.370529
      2          6           0       -1.926027   -0.444857   -0.134501
      3          6           0       -2.841893    0.703183   -0.529402
      4          8           0       -0.639755   -0.082813   -0.705247
      5          7           0        0.275501   -1.139189   -0.618582
      6          6           0        1.517993   -0.861040   -0.088462
      7          8           0        2.475702   -1.575216   -0.313049
      8          6           0        1.586931    0.336361    0.873390
      9          6           0        1.415282    1.631721    0.215664
     10          7           0        1.304165    2.668744   -0.292093
     11          1           0       -1.101042   -1.428123    1.613750
     12          1           0       -2.806843   -0.979944    1.762992
     13          1           0       -1.562085    0.277971    1.873903
     14          1           0       -2.252442   -1.375680   -0.619398
     15          1           0       -2.479535    1.641327   -0.096404
     16          1           0       -2.875396    0.816255   -1.616615
     17          1           0       -3.856559    0.518098   -0.163013
     18          1           0        0.299515   -1.694633   -1.471452
     19          1           0        0.824603    0.231721    1.652021
     20          1           0        2.573444    0.293447    1.341993
 ---------------------------------------------------------------------

 SCF Done:  E(UB3LYP) =  -494.716434758     A.U. after   32 cycles

 The electronic state is 2-A.
 Alpha  occ. eigenvalues --  -19.07200 -19.01059 -14.28866 -14.21256 -10.19222
 Alpha  occ. eigenvalues --  -10.12547 -10.12473 -10.11674 -10.05961 -10.05450
 Alpha  occ. eigenvalues --   -1.00536  -0.95275  -0.81008  -0.77638  -0.69270
 Alpha  occ. eigenvalues --   -0.66619  -0.59189  -0.51980  -0.49985  -0.44565
 Alpha  occ. eigenvalues --   -0.42761  -0.40636  -0.36481  -0.35953  -0.35300
 Alpha  occ. eigenvalues --   -0.33947  -0.30768  -0.29807  -0.28780  -0.27904
 Alpha  occ. eigenvalues --   -0.26863  -0.26292  -0.24890  -0.24072  -0.23258
 Alpha  occ. eigenvalues --   -0.20529  -0.17626  -0.16604   0.04607
 Alpha virt. eigenvalues --    0.06926   0.07962   0.08342   0.08978   0.10025
 Alpha virt. eigenvalues --    0.11080   0.11215   0.12103   0.12535   0.12870
 Alpha virt. eigenvalues --    0.12969   0.14470   0.14963   0.15425   0.16190

  Beta  occ. eigenvalues --  -19.07186 -19.00999 -14.28851 -14.21244 -10.19138
  Beta  occ. eigenvalues --  -10.12517 -10.12437 -10.11668 -10.05927 -10.05384
  Beta  occ. eigenvalues --   -1.00490  -0.95165  -0.80984  -0.77566  -0.69176
  Beta  occ. eigenvalues --   -0.66548  -0.59092  -0.51872  -0.49881  -0.44477
  Beta  occ. eigenvalues --   -0.42658  -0.40468  -0.36425  -0.35856  -0.35241
  Beta  occ. eigenvalues --   -0.33855  -0.30557  -0.29732  -0.28720  -0.27807
  Beta  occ. eigenvalues --   -0.26812  -0.26220  -0.24817  -0.24010  -0.23232
  Beta  occ. eigenvalues --   -0.20451  -0.17559  -0.16501
  Beta virt. eigenvalues --    0.07389   0.07913   0.08558   0.09247   0.09738
  Beta virt. eigenvalues --    0.10721   0.11610   0.11789   0.12603   0.12812
  Beta virt. eigenvalues --    0.13140   0.13308   0.14608   0.15092   0.15672

 Mulliken charges and spin densities:
               1          2
     1  C    2.342047  -2.836894
     2  C   -1.511226   1.496932
     3  C    0.854495  -1.351607
     4  O    0.091038  -0.001915
     5  N   -0.278015  -0.018095
     6  C   -0.292677   0.279026
     7  O   -0.337914   0.032260
     8  C    0.611956  -0.626973
     9  C    0.541666  -0.496333
    10  N   -0.392528   0.060657
    11  H   -0.471453   0.643238
    12  H   -0.307898   0.466682
    13  H   -0.297344   0.453609
    14  H   -0.648349   0.806984
    15  H    0.023596   0.123798
    16  H   -0.275627   0.426724
    17  H   -0.206934   0.358807
    18  H    0.066150   0.246297
    19  H   -0.426709   0.613706
    20  H   -0.084275   0.323096
 Sum of Mulliken charges =  -1.00000   1.00000

 Dipole moment (field-independent basis, Debye):
    X=              2.9452    Y=              0.9428    Z=             -1.7327  Tot=              3.5448
 Quadrupole moment (field-independent basis, Debye-Ang):
   XX=           -115.1288   YY=           -101.8791   ZZ=            -91.5574
   XY=             -6.2087   XZ=              3.5127   YZ=              4.3059

 Summary of Natural Population Analysis:

                                       Natural Population
                Natural  -----------------------------------------------
    Atom  No    Charge         Core      Valence    Rydberg      Total
 -----------------------------------------------------------------------
      C    1   -0.30275      0.99964     2.29637    0.00674     3.30275
      C    2    0.06686      0.99957     1.91934    0.01423     2.93314
      C    3   -0.29304      0.99963     2.28615    0.00727     3.29304
      O    4   -0.22331      0.99989     3.21102    0.01240     4.22331
      N    5   -0.16415      0.99962     2.65139    0.01314     3.66415
      C    6    0.35272      0.99969     1.62490    0.02269     2.64728
      O    7   -0.29955      0.99987     3.29378    0.00590     4.29955
      C    8   -0.28960      0.99950     2.28070    0.00939     3.28960
      C    9    0.16666      0.99965     1.81738    0.01631     2.83334
      N   10   -0.18301      0.99979     2.67201    0.01122     3.68301
      H   11    0.10606      0.00000     0.39115    0.00278     0.39394
      H   12    0.10971      0.00000     0.38760    0.00269     0.39029
      H   13    0.09853      0.00000     0.39936    0.00210     0.40147
      H   14    0.08574      0.00000     0.41055    0.00372     0.41426
      H   15    0.10253      0.00000     0.39609    0.00139     0.39747
      H   16    0.10360      0.00000     0.39503    0.00137     0.39640
      H   17    0.10583      0.00000     0.39291    0.00126     0.39417
      H   18    0.18913      0.00000     0.30894    0.00193     0.31087
      H   19    0.13814      0.00000     0.35865    0.00321     0.36186
      H   20    0.12989      0.00000     0.36878    0.00133     0.37011
 =======================================================================
   * Total *   -0.00000      9.99685    27.86210    0.14105    38.00000

 Normal termination of Gaussian 16 at Tue Dec  8 13:10:56 2020.
