 Gaussian 16, Revision A.03,

 -----------------------------------------------------------
 # opt freq B3LYP/6-31G(d) empiricaldispersion=gd3bj scf=xqc
 -----------------------------------------------------------

 -------------------------------
 CID_122225325_JID_9556_neutraal
 -------------------------------
 Symbolic Z-matrix:
 Charge =  0 Multiplicity = 1

 SCF Done:  E(RB3LYP) =  -773.238126795     A.U. after   14 cycles
 SCF Done:  E(RB3LYP) =  -773.240852538     A.U. after   12 cycles
 SCF Done:  E(RB3LYP) =  -773.241488096     A.U. after   12 cycles
 SCF Done:  E(RB3LYP) =  -773.241817379     A.U. after   12 cycles
 SCF Done:  E(RB3LYP) =  -773.241879360     A.U. after   11 cycles
 SCF Done:  E(RB3LYP) =  -773.242007418     A.U. after   12 cycles
 SCF Done:  E(RB3LYP) =  -773.242082017     A.U. after   12 cycles
 SCF Done:  E(RB3LYP) =  -773.242087699     A.U. after    9 cycles
 SCF Done:  E(RB3LYP) =  -773.242089990     A.U. after    9 cycles
 SCF Done:  E(RB3LYP) =  -773.242091147     A.U. after    9 cycles
 SCF Done:  E(RB3LYP) =  -773.242091557     A.U. after    9 cycles
 SCF Done:  E(RB3LYP) =  -773.242091626     A.U. after    7 cycles
 SCF Done:  E(RB3LYP) =  -773.242091642     A.U. after    7 cycles
 Optimization completed.
    -- Stationary point found.
 Normal termination of Gaussian 16 at Sun Dec 13 16:12:20 2020.

 --------------------------------------------------------------------
 #N Geom=AllCheck Guess=TCheck SCRF=Check GenChk RB3LYP/6-31G(d) Freq
 --------------------------------------------------------------------

 Structure from the checkpoint file:  "JID_9556.chk"
 -------------------------------
 CID_122225325_JID_9556_neutraal
 -------------------------------
 Charge =  0 Multiplicity = 1

 SCF Done:  E(RB3LYP) =  -773.242091642     A.U. after    1 cycles

  Exact polarizability: 306.195  13.271 186.174  20.495  -0.892 106.308
 Approx polarizability: 409.850  24.245 311.245  35.029   2.804 166.782

                      1                      2                      3
                      A                      A                      A
 Frequencies --     10.7380                13.2069                32.1794
 Red. masses --      4.0551                 4.2121                 4.0080
 Frc consts  --      0.0003                 0.0004                 0.0024
 IR Inten    --      0.3236                 0.2604                 0.0219

                      4                      5                      6
                      A                      A                      A
 Frequencies --     49.0223                55.3177                73.3273
 Red. masses --      4.2796                 3.3377                 4.5293
 Frc consts  --      0.0061                 0.0060                 0.0143
 IR Inten    --      0.4415                 0.0519                 0.3271

                      7                      8                      9
                      A                      A                      A
 Frequencies --     97.8144               132.2432               179.8645
 Red. masses --      3.3093                 3.6535                 2.5116
 Frc consts  --      0.0187                 0.0376                 0.0479
 IR Inten    --      2.7798                 0.0261                 0.3858

                     10                     11                     12
                      A                      A                      A
 Frequencies --    192.6628               218.3190               248.4222
 Red. masses --      2.8475                 3.2832                 3.0100
 Frc consts  --      0.0623                 0.0922                 0.1094
 IR Inten    --      1.9147                 0.5334                 2.4766

                     13                     14                     15
                      A                      A                      A
 Frequencies --    265.5940               312.1606               343.7427
 Red. masses --      1.2826                 3.5759                 2.5113
 Frc consts  --      0.0533                 0.2053                 0.1748
 IR Inten    --      0.4326                 2.7457                 1.2103

                     16                     17                     18
                      A                      A                      A
 Frequencies --    367.3548               394.5346               408.4789
 Red. masses --      2.1777                 3.3734                 3.8763
 Frc consts  --      0.1731                 0.3094                 0.3811
 IR Inten    --      0.6827                 0.2565                 0.3068

                     19                     20                     21
                      A                      A                      A
 Frequencies --    418.0947               425.7377               468.5723
 Red. masses --      3.0001                 3.1374                 3.4158
 Frc consts  --      0.3090                 0.3350                 0.4419
 IR Inten    --      0.0110                 0.0600                 0.5832

                     22                     23                     24
                      A                      A                      A
 Frequencies --    488.9095               498.3574               544.6886
 Red. masses --      3.1277                 3.7056                 2.4631
 Frc consts  --      0.4405                 0.5422                 0.4305
 IR Inten    --      2.9378                 4.4098                 3.1788

                     25                     26                     27
                      A                      A                      A
 Frequencies --    581.7100               598.0563               638.3383
 Red. masses --      3.7130                 3.4646                 6.3134
 Frc consts  --      0.7403                 0.7301                 1.5157
 IR Inten    --     15.9452                 9.2679                 0.1206

                     28                     29                     30
                      A                      A                      A
 Frequencies --    656.7204               714.9870               725.6322
 Red. masses --      6.8885                 1.9555                 3.8757
 Frc consts  --      1.7504                 0.5890                 1.2024
 IR Inten    --      1.7048                25.5687                 0.1418

                     31                     32                     33
                      A                      A                      A
 Frequencies --    752.2111               758.8383               776.5968
 Red. masses --      1.6775                 2.0616                 3.8021
 Frc consts  --      0.5592                 0.6994                 1.3510
 IR Inten    --     10.4846                22.9515                 5.3518

                     34                     35                     36
                      A                      A                      A
 Frequencies --    813.2103               821.3665               835.1083
 Red. masses --      1.7205                 1.6218                 1.5978
 Frc consts  --      0.6703                 0.6447                 0.6565
 IR Inten    --     10.1765                 8.2957                27.0539

                     37                     38                     39
                      A                      A                      A
 Frequencies --    854.8483               860.5922               868.9216
 Red. masses --      3.4772                 1.2580                 2.1462
 Frc consts  --      1.4971                 0.5489                 0.9547
 IR Inten    --      6.7733                 0.5752                 9.6147

                     40                     41                     42
                      A                      A                      A
 Frequencies --    897.9434               921.5217               940.1945
 Red. masses --      2.7245                 1.4320                 1.3494
 Frc consts  --      1.2943                 0.7165                 0.7028
 IR Inten    --      5.7818                 5.1898                 0.0078

                     43                     44                     45
                      A                      A                      A
 Frequencies --    954.2908               964.3137               968.9179
 Red. masses --      1.2967                 1.5390                 1.5980
 Frc consts  --      0.6958                 0.8432                 0.8839
 IR Inten    --      1.1866                 1.9796                 1.3762

                     46                     47                     48
                      A                      A                      A
 Frequencies --    993.2615              1014.5039              1021.7152
 Red. masses --      1.2469                 1.1220                 4.6891
 Frc consts  --      0.7248                 0.6804                 2.8840
 IR Inten    --      0.4818                20.3737                 1.2030

                     49                     50                     51
                      A                      A                      A
 Frequencies --   1025.9471              1032.7265              1061.7029
 Red. masses --      2.0229                 2.5803                 2.1750
 Frc consts  --      1.2545                 1.6214                 1.4445
 IR Inten    --      2.2834                 0.4511                 1.6985

                     52                     53                     54
                      A                      A                      A
 Frequencies --   1068.0768              1084.3242              1114.0250
 Red. masses --      2.1560                 5.9496                 2.6367
 Frc consts  --      1.4491                 4.1215                 1.9280
 IR Inten    --      3.5700                68.3313                 1.2667

                     55                     56                     57
                      A                      A                      A
 Frequencies --   1121.3287              1148.0205              1186.8909
 Red. masses --      1.7589                 1.3335                 1.2719
 Frc consts  --      1.3030                 1.0355                 1.0556
 IR Inten    --      3.3326                 6.6929                 0.7667

                     58                     59                     60
                      A                      A                      A
 Frequencies --   1189.2776              1193.3906              1204.8005
 Red. masses --      1.1806                 1.0929                 1.2459
 Frc consts  --      0.9838                 0.9171                 1.0655
 IR Inten    --      0.9846                 0.1768                 0.2314

                     61                     62                     63
                      A                      A                      A
 Frequencies --   1213.8365              1215.7611              1220.4658
 Red. masses --      1.1646                 1.1385                 1.3814
 Frc consts  --      1.0110                 0.9915                 1.2123
 IR Inten    --     45.7673                 0.4919                 8.6947

                     64                     65                     66
                      A                      A                      A
 Frequencies --   1236.7221              1252.8951              1296.7159
 Red. masses --      2.3478                 2.1320                 1.9918
 Frc consts  --      2.1157                 1.9718                 1.9732
 IR Inten    --      0.6735                 1.4542                89.8197

                     67                     68                     69
                      A                      A                      A
 Frequencies --   1305.9760              1339.5607              1342.5097
 Red. masses --      2.3586                 1.3212                 1.6375
 Frc consts  --      2.3701                 1.3968                 1.7389
 IR Inten    --    259.7380                 1.0934                17.3392

                     70                     71                     72
                      A                      A                      A
 Frequencies --   1349.7560              1360.5401              1367.7733
 Red. masses --      1.8744                 2.4375                 2.0061
 Frc consts  --      2.0120                 2.6583                 2.2112
 IR Inten    --     12.2228                24.6953                 1.4690

                     73                     74                     75
                      A                      A                      A
 Frequencies --   1375.7594              1389.0257              1395.5470
 Red. masses --      1.4235                 1.6108                 1.3941
 Frc consts  --      1.5874                 1.8311                 1.5997
 IR Inten    --      7.7840                28.5243                11.4480

                     76                     77                     78
                      A                      A                      A
 Frequencies --   1407.4891              1474.0417              1500.2825
 Red. masses --      1.5216                 2.9907                 1.1932
 Frc consts  --      1.7760                 3.8286                 1.5823
 IR Inten    --      4.0355                 8.6922                21.6594

                     79                     80                     81
                      A                      A                      A
 Frequencies --   1502.2958              1510.7795              1516.9255
 Red. masses --      2.0705                 1.1042                 1.1049
 Frc consts  --      2.7532                 1.4849                 1.4979
 IR Inten    --      4.1216                12.1159                11.2897

                     82                     83                     84
                      A                      A                      A
 Frequencies --   1520.7732              1526.1658              1536.2052
 Red. masses --      1.0477                 1.1263                 1.0628
 Frc consts  --      1.4277                 1.5456                 1.4777
 IR Inten    --      5.3624                 4.5809                48.2032

                     85                     86                     87
                      A                      A                      A
 Frequencies --   1548.9685              1569.0007              1628.5399
 Red. masses --      2.2235                 2.4477                 6.3228
 Frc consts  --      3.1433                 3.5503                 9.8800
 IR Inten    --     10.9042               126.2651                14.3359

                     88                     89                     90
                      A                      A                      A
 Frequencies --   1646.4596              1668.7081              1675.6930
 Red. masses --      5.4848                 5.6265                 5.7232
 Frc consts  --      8.7602                 9.2310                 9.4684
 IR Inten    --      0.8242                 5.6382                89.0362

                     91                     92                     93
                      A                      A                      A
 Frequencies --   1732.5666              3024.7675              3034.5173
 Red. masses --      5.6890                 1.0348                 1.0605
 Frc consts  --     10.0616                 5.5783                 5.7537
 IR Inten    --      1.0741                73.2785                11.6122

                     94                     95                     96
                      A                      A                      A
 Frequencies --   3037.7847              3045.7704              3072.8110
 Red. masses --      1.0620                 1.0628                 1.1013
 Frc consts  --      5.7740                 5.8090                 6.1269
 IR Inten    --     41.9218                38.4573                16.8220

                     97                     98                     99
                      A                      A                      A
 Frequencies --   3082.6913              3082.8971              3092.7458
 Red. masses --      1.1019                 1.1065                 1.1013
 Frc consts  --      6.1698                 6.1963                 6.2062
 IR Inten    --     34.5164                47.2122                66.9626

                    100                    101                    102
                      A                      A                      A
 Frequencies --   3133.1863              3158.8523              3167.3599
 Red. masses --      1.0882                 1.0996                 1.0870
 Frc consts  --      6.2940                 6.4649                 6.4251
 IR Inten    --     19.6150                30.6878                16.7182

                    103                    104                    105
                      A                      A                      A
 Frequencies --   3173.5147              3175.5299              3180.8231
 Red. masses --      1.0856                 1.0872                 1.0889
 Frc consts  --      6.4420                 6.4594                 6.4911
 IR Inten    --     10.7873                12.9921                19.0818

                    106                    107                    108
                      A                      A                      A
 Frequencies --   3188.0349              3196.5853              3197.4194
 Red. masses --      1.0896                 1.0935                 1.0868
 Frc consts  --      6.5246                 6.5835                 6.5466
 IR Inten    --      9.2677                49.8570                 8.4251

                    109                    110                    111
                      A                      A                      A
 Frequencies --   3209.3703              3216.3242              3227.6341
 Red. masses --      1.0979                 1.0941                 1.0912
 Frc consts  --      6.6626                 6.6684                 6.6974
 IR Inten    --     23.5849                11.3230                17.0697

 - Thermochemistry -
 -------------------
 Temperature   298.150 Kelvin.  Pressure   1.00000 Atm.
 Atom     1 has atomic number  6 and mass  12.00000

 Molecular mass:   252.15142 amu.
 Principal axes and moments of inertia in atomic units:
                           1         2         3
     Eigenvalues --  1871.24893********************
           X            1.00000   0.00141  -0.00001
           Y           -0.00141   0.99999  -0.00408
           Z            0.00001   0.00408   0.99999
 This molecule is an asymmetric top.
 Rotational symmetry number  1.
 Warning -- assumption of classical behavior for rotation
           may cause significant error
 Rotational temperatures (Kelvin)      0.04629     0.00581     0.00537
 Rotational constants (GHZ):           0.96446     0.12098     0.11186
 Zero-point vibrational energy     878836.6 (Joules/Mol)
                                  210.04700 (Kcal/Mol)
 Warning -- explicit consideration of  26 degrees of freedom as
           vibrations may cause significant error
 Vibrational temperatures:     15.45    19.00    46.30    70.53    79.59
          (Kelvin)            105.50   140.73   190.27   258.78   277.20
                              314.11   357.42   382.13   449.13   494.57
                              528.54   567.65   587.71   601.54   612.54
                              674.17   703.43   717.03   783.69   836.95
                              860.47   918.43   944.87  1028.71  1044.02
                             1082.26  1091.80  1117.35  1170.03  1181.76
                             1201.53  1229.94  1238.20  1250.18  1291.94
                             1325.86  1352.73  1373.01  1387.43  1394.06
                             1429.08  1459.64  1470.02  1476.11  1485.86
                             1527.55  1536.72  1560.10  1602.83  1613.34
                             1651.75  1707.67  1711.11  1717.02  1733.44
                             1746.44  1749.21  1755.98  1779.37  1802.64
                             1865.68  1879.01  1927.33  1931.57  1942.00
                             1957.51  1967.92  1979.41  1998.50  2007.88
                             2025.06  2120.82  2158.57  2161.47  2173.67
                             2182.52  2188.05  2195.81  2210.26  2228.62
                             2257.44  2343.11  2368.89  2400.90  2410.95
                             2492.78  4351.97  4365.99  4370.69  4382.18
                             4421.09  4435.31  4435.60  4449.77  4507.96
                             4544.88  4557.12  4565.98  4568.88  4576.49
                             4586.87  4599.17  4600.37  4617.57  4627.57
                             4643.85

 Zero-point correction=                           0.334731 (Hartree/Particle)
 Thermal correction to Energy=                    0.352379
 Thermal correction to Enthalpy=                  0.353323
 Thermal correction to Gibbs Free Energy=         0.284889
 Sum of electronic and zero-point Energies=           -772.907360
 Sum of electronic and thermal Energies=              -772.889713
 Sum of electronic and thermal Enthalpies=            -772.888769
 Sum of electronic and thermal Free Energies=         -772.957202

                     E (Thermal)             CV                S
                      KCal/Mol        Cal/Mol-Kelvin    Cal/Mol-Kelvin
 Total                  221.121             67.698            144.030
 Electronic               0.000              0.000              0.000
 Translational            0.889              2.981             42.475
 Rotational               0.889              2.981             34.465
 Vibrational            219.343             61.736             67.091
 Vibration     1          0.593              1.987              7.870
 Vibration     2          0.593              1.987              7.458
 Vibration     3          0.594              1.983              5.690
 Vibration     4          0.595              1.978              4.856
 Vibration     5          0.596              1.975              4.618
 Vibration     6          0.599              1.967              4.062
 Vibration     7          0.603              1.951              3.497
 Vibration     8          0.612              1.921              2.913
 Vibration     9          0.629              1.867              2.330
 Vibration    10          0.635              1.850              2.202
 Vibration    11          0.646              1.813              1.973
 Vibration    12          0.662              1.765              1.742
 Vibration    13          0.671              1.736              1.625
 Vibration    14          0.701              1.651              1.351
 Vibration    15          0.722              1.588              1.195
 Vibration    16          0.740              1.539              1.091
 Vibration    17          0.761              1.482              0.983
 Vibration    18          0.773              1.452              0.932
 Vibration    19          0.781              1.431              0.898
 Vibration    20          0.788              1.414              0.873
 Vibration    21          0.826              1.320              0.742
 Vibration    22          0.845              1.275              0.686
 Vibration    23          0.854              1.254              0.662
 Vibration    24          0.900              1.151              0.555
 Vibration    25          0.938              1.071              0.482
 Vibration    26          0.956              1.036              0.453

                           ! Non-Optimized Parameters !
 Normal termination of Gaussian 16 at Sun Dec 13 16:29:58 2020.

 ----------------------------------------------------------------------
 # B3LYP/6-311++G(d,p) empiricaldispersion=gd3bj scf=xqc pop=npa geom=c
 heck
 ----------------------------------------------------------------------

 ---------------------------------------
 CID_122225325_JID_9556_Energie_neutraal
 ---------------------------------------
 Structure from the checkpoint file:  "JID_9556.chk"
 Charge =  0 Multiplicity = 1

 SCF Done:  E(RB3LYP) =  -773.445029922     A.U. after   15 cycles
 Normal termination of Gaussian 16 at Sun Dec 13 16:38:29 2020.

 ----------------------------------------------------------------------
 # B3LYP/6-311++G(d,p) empiricaldispersion=gd3bj scf=xqc pop=npa geom=c
 heck
 ----------------------------------------------------------------------

 -------------------------------------
 CID_122225325_JID_9556_Energie_kation
 -------------------------------------
 Structure from the checkpoint file:  "JID_9556.chk"
 Charge =  1 Multiplicity = 2

 SCF Done:  E(UB3LYP) =  -773.178873189     A.U. after   23 cycles
 Normal termination of Gaussian 16 at Sun Dec 13 16:57:51 2020.
 Gaussian 16:  ES64L-G16RevA.03 25-Dec-2016

 ----------------------------------------------------------------------
 # B3LYP/6-311++G(d,p) empiricaldispersion=gd3bj scf=xqc pop=npa geom=c
 heck
 ----------------------------------------------------------------------

 ------------------------------------
 CID_122225325_JID_9556_Energie_anion
 ------------------------------------
 Structure from the checkpoint file:  "JID_9556.chk"
 Charge = -1 Multiplicity = 2

                         Standard orientation:
 ---------------------------------------------------------------------
 Center     Atomic      Atomic             Coordinates (Angstroms)
 Number     Number       Type             X           Y           Z
 ---------------------------------------------------------------------
      1          6           0        6.916888    0.705430    0.140086
      2          8           0        5.668530    1.346119    0.339080
      3          6           0        4.536680    0.621448    0.102434
      4          6           0        3.324247    1.297427    0.313049
      5          6           0        2.117862    0.652587    0.102078
      6          6           0        2.066862   -0.689145   -0.328279
      7          6           0        3.289071   -1.343345   -0.529800
      8          6           0        4.515124   -0.709820   -0.321644
      9          6           0        0.814459   -1.414133   -0.567039
     10          6           0       -0.436458   -0.942182   -0.463328
     11          6           0       -1.672596   -1.760396   -0.701522
     12          6           0       -2.426655   -2.129947    0.592782
     13          6           0       -2.865770   -0.920937    1.442423
     14          6           0       -3.734361    0.059208    0.685880
     15          6           0       -3.272896    1.341625    0.369317
     16          6           0       -4.063670    2.232902   -0.358009
     17          6           0       -5.336420    1.852299   -0.781308
     18          6           0       -5.812192    0.576905   -0.468621
     19          6           0       -5.017600   -0.308162    0.257528
     20          1           0        7.678505    1.449185    0.380238
     21          1           0        7.041146    0.380592   -0.901472
     22          1           0        7.034133   -0.162422    0.802599
     23          1           0        3.360462    2.330295    0.644498
     24          1           0        1.195820    1.198850    0.275948
     25          1           0        3.284071   -2.379189   -0.860670
     26          1           0        5.433766   -1.258669   -0.491893
     27          1           0        0.941776   -2.455646   -0.867110
     28          1           0       -0.599679    0.095323   -0.176976
     29          1           0       -2.358038   -1.206156   -1.356697
     30          1           0       -1.405952   -2.686121   -1.226321
     31          1           0       -3.311386   -2.721618    0.323151
     32          1           0       -1.786889   -2.775028    1.208015
     33          1           0       -3.407891   -1.294446    2.321013
     34          1           0       -1.978055   -0.403576    1.823474
     35          1           0       -2.283780    1.647279    0.702400
     36          1           0       -3.684362    3.223952   -0.591963
     37          1           0       -5.954870    2.543161   -1.347319
     38          1           0       -6.805217    0.273055   -0.788879
     39          1           0       -5.397243   -1.298364    0.499153
 ---------------------------------------------------------------------

 SCF Done:  E(UB3LYP) =  -773.435565575     A.U. after   33 cycles
 SCF Done:  E(UB3LYP) =  -773.435565575     a.u. after    1 cycles

 The electronic state is 2-A.
 Alpha  occ. eigenvalues --  -19.06049 -10.13318 -10.13232 -10.09285 -10.09125
 Alpha  occ. eigenvalues --  -10.08975 -10.08826 -10.08672 -10.08459 -10.07947
 Alpha  occ. eigenvalues --  -10.07682 -10.07544 -10.07507 -10.07504 -10.07485
 Alpha  occ. eigenvalues --  -10.07384 -10.07142 -10.06374 -10.06023  -0.97697
 Alpha  occ. eigenvalues --   -0.77395  -0.76049  -0.71788  -0.69143  -0.66635
 Alpha  occ. eigenvalues --   -0.66125  -0.65424  -0.63486  -0.60824  -0.57605
 Alpha  occ. eigenvalues --   -0.52838  -0.51951  -0.51840  -0.50008  -0.47949
 Alpha  occ. eigenvalues --   -0.44879  -0.44176  -0.42652  -0.39298  -0.39131
 Alpha  occ. eigenvalues --   -0.38119  -0.38016  -0.37109  -0.35766  -0.35027
 Alpha  occ. eigenvalues --   -0.34652  -0.33692  -0.32979  -0.32573  -0.31993
 Alpha  occ. eigenvalues --   -0.30169  -0.29711  -0.28932  -0.28167  -0.27185
 Alpha  occ. eigenvalues --   -0.27064  -0.26107  -0.25591  -0.24990  -0.24091
 Alpha  occ. eigenvalues --   -0.23685  -0.23427  -0.22721  -0.17723  -0.17084
 Alpha  occ. eigenvalues --   -0.16172  -0.16057  -0.10863   0.03855
 Alpha virt. eigenvalues --    0.04974   0.05700   0.06436   0.06790   0.06996
 Alpha virt. eigenvalues --    0.07284   0.07474   0.08033   0.08177   0.08584
 Alpha virt. eigenvalues --    0.08886   0.09237   0.09839   0.09963   0.10535

  Beta  occ. eigenvalues --  -19.06018 -10.13281 -10.13132 -10.09260 -10.09124
  Beta  occ. eigenvalues --  -10.08965 -10.08797 -10.08666 -10.08437 -10.07934
  Beta  occ. eigenvalues --  -10.07661 -10.07541 -10.07532 -10.07470 -10.07446
  Beta  occ. eigenvalues --  -10.07317 -10.07148 -10.06321 -10.05918  -0.97618
  Beta  occ. eigenvalues --   -0.77353  -0.75947  -0.71700  -0.69015  -0.66543
  Beta  occ. eigenvalues --   -0.66091  -0.65346  -0.63384  -0.60742  -0.57536
  Beta  occ. eigenvalues --   -0.52745  -0.51893  -0.51785  -0.49902  -0.47885
  Beta  occ. eigenvalues --   -0.44775  -0.44100  -0.42603  -0.39232  -0.39071
  Beta  occ. eigenvalues --   -0.38080  -0.37904  -0.37060  -0.35709  -0.34977
  Beta  occ. eigenvalues --   -0.34592  -0.33664  -0.32947  -0.32521  -0.31952
  Beta  occ. eigenvalues --   -0.30118  -0.29643  -0.28689  -0.28090  -0.27136
  Beta  occ. eigenvalues --   -0.27012  -0.26046  -0.25550  -0.24889  -0.23907
  Beta  occ. eigenvalues --   -0.23578  -0.23382  -0.22659  -0.17361  -0.17028
  Beta  occ. eigenvalues --   -0.15984  -0.15905  -0.10411
  Beta virt. eigenvalues --    0.05703   0.05921   0.06391   0.06827   0.07038
  Beta virt. eigenvalues --    0.07323   0.07485   0.07719   0.08173   0.08411
  Beta virt. eigenvalues --    0.08751   0.09076   0.09671   0.09941   0.10169

 Mulliken charges and spin densities:
               1          2
     1  C    0.582007  -0.921041
     2  O   -0.199409   0.044371
     3  C   -0.847859   0.268713
     4  C   -0.627671   0.098030
     5  C   -0.675887   0.151526
     6  C    1.673050  -0.434464
     7  C    0.254394  -0.354591
     8  C    0.027540  -0.039683
     9  C   -0.219961  -0.177363
    10  C    0.054689   0.076038
    11  C   -0.409195   0.326136
    12  C    0.330278  -0.618610
    13  C    0.757048  -1.091203
    14  C    0.000801   0.705693
    15  C   -0.625326   0.285462
    16  C   -0.502487   0.217531
    17  C    0.440636  -0.725725
    18  C    0.099123  -0.442612
    19  C   -0.175659   0.030028
    20  H   -0.396584   0.565769
    21  H   -0.186513   0.337032
    22  H   -0.103851   0.249568
    23  H    0.142572   0.041247
    24  H    0.028847   0.002587
    25  H   -0.062423   0.202493
    26  H    0.014357   0.153266
    27  H    0.149480  -0.069563
    28  H   -0.064088  -0.018670
    29  H    0.153912  -0.010046
    30  H    0.025334   0.155021
    31  H   -0.072814   0.201048
    32  H    0.006641   0.134986
    33  H   -0.101997   0.283143
    34  H    0.064124   0.092485
    35  H    0.051949   0.061178
    36  H    0.079342   0.087918
    37  H    0.035291   0.098405
    38  H   -0.345554   0.516518
    39  H   -0.354137   0.517377
 Sum of Mulliken charges =  -1.00000   1.00000

 Dipole moment (field-independent basis, Debye):
    X=             -2.1736    Y=              1.2483    Z=             -0.6035  Tot=              2.5781
 Quadrupole moment (field-independent basis, Debye-Ang):
   XX=           -277.2807   YY=           -143.4946   ZZ=           -141.8942
   XY=            -13.5777   XZ=              2.3492   YZ=              2.2002

 Summary of Natural Population Analysis:

                                       Natural Population
                Natural  -----------------------------------------------
    Atom  No    Charge         Core      Valence    Rydberg      Total
 -----------------------------------------------------------------------
      C    1   -0.10111      0.99960     2.09224    0.00926     3.10111
      O    2   -0.27250      0.99986     3.26286    0.00978     4.27250
      C    3    0.17123      0.99938     1.81563    0.01376     2.82877
      C    4   -0.12583      0.99953     2.11716    0.00914     3.12583
      C    5   -0.07074      0.99954     2.06410    0.00710     3.07074
      C    6   -0.04410      0.99950     2.03520    0.00940     3.04410
      C    7   -0.07943      0.99955     2.07108    0.00880     3.07943
      C    8   -0.15076      0.99952     2.14277    0.00847     3.15076
      C    9   -0.09247      0.99950     2.08466    0.00831     3.09247
      C   10   -0.06609      0.99953     2.05895    0.00761     3.06609
      C   11   -0.20751      0.99962     2.19813    0.00976     3.20751
      C   12   -0.17789      0.99962     2.17035    0.00792     3.17789
      C   13   -0.20120      0.99960     2.19194    0.00966     3.20120
      C   14   -0.00911      0.99951     1.99870    0.01090     3.00911
      C   15   -0.10192      0.99951     2.09440    0.00802     3.10192
      C   16   -0.10136      0.99956     2.09263    0.00917     3.10136
      C   17   -0.10662      0.99956     2.09662    0.01044     3.10662
      C   18   -0.09974      0.99957     2.09018    0.01000     3.09974
      C   19   -0.09993      0.99951     2.09040    0.01003     3.09993
      H   20    0.09324      0.00000     0.40553    0.00123     0.40676
      H   21    0.08486      0.00000     0.41339    0.00176     0.41514
      H   22    0.08334      0.00000     0.41524    0.00142     0.41666
      H   23    0.10332      0.00000     0.39567    0.00101     0.39668
      H   24    0.09700      0.00000     0.40173    0.00127     0.40300
      H   25    0.09554      0.00000     0.40315    0.00131     0.40446
      H   26    0.10379      0.00000     0.39503    0.00117     0.39621
      H   27    0.08826      0.00000     0.41013    0.00161     0.41174
      H   28    0.08709      0.00000     0.41122    0.00169     0.41291
      H   29    0.10247      0.00000     0.39644    0.00109     0.39753
      H   30    0.09819      0.00000     0.40086    0.00095     0.40181
      H   31    0.09560      0.00000     0.40299    0.00141     0.40440
      H   32    0.09734      0.00000     0.40163    0.00103     0.40266
      H   33    0.10499      0.00000     0.39394    0.00107     0.39501
      H   34    0.10204      0.00000     0.39685    0.00110     0.39796
      H   35    0.09949      0.00000     0.39925    0.00126     0.40051
      H   36    0.09892      0.00000     0.40033    0.00074     0.40108
      H   37    0.09883      0.00000     0.40043    0.00073     0.40117
      H   38    0.10045      0.00000     0.39856    0.00099     0.39955
      H   39    0.10231      0.00000     0.39630    0.00140     0.39769
 =======================================================================
   * Total *    0.00000     18.99157    48.80668    0.20176    68.00000

 Normal termination of Gaussian 16 at Sun Dec 13 17:24:05 2020.
