 Gaussian 16, Revision A.03,

 -----------------------------------------------------------
 # opt freq B3LYP/6-31G(d) empiricaldispersion=gd3bj scf=xqc
 -----------------------------------------------------------

 -------------------------------
 CID_114501903_JID_1153_neutraal
 -------------------------------
 Symbolic Z-matrix:
 Charge =  0 Multiplicity = 1

 SCF Done:  E(RB3LYP) =  -481.926254097     A.U. after   13 cycles
 SCF Done:  E(RB3LYP) =  -481.928880354     A.U. after   12 cycles
 SCF Done:  E(RB3LYP) =  -481.927600727     A.U. after   12 cycles
 SCF Done:  E(RB3LYP) =  -481.929070146     A.U. after   11 cycles
 SCF Done:  E(RB3LYP) =  -481.929104722     A.U. after   11 cycles
 SCF Done:  E(RB3LYP) =  -481.929239940     A.U. after   10 cycles
 SCF Done:  E(RB3LYP) =  -481.929254256     A.U. after   10 cycles
 SCF Done:  E(RB3LYP) =  -481.929256771     A.U. after    9 cycles
 SCF Done:  E(RB3LYP) =  -481.929257814     A.U. after    8 cycles
 Optimization completed.
    -- Stationary point found.
 Normal termination of Gaussian 16 at Tue Dec  8 19:14:29 2020.

 --------------------------------------------------------------------
 #N Geom=AllCheck Guess=TCheck SCRF=Check GenChk RB3LYP/6-31G(d) Freq
 --------------------------------------------------------------------

 Structure from the checkpoint file:  "JID_1153.chk"
 -------------------------------
 CID_114501903_JID_1153_neutraal
 -------------------------------
 Charge =  0 Multiplicity = 1

 SCF Done:  E(RB3LYP) =  -481.929257814     A.U. after    1 cycles

  Exact polarizability: 115.966  -7.433  89.554   8.758  -5.490  85.678
 Approx polarizability: 152.876 -14.164 128.397  21.856  -9.272 134.971

                      1                      2                      3
                      A                      A                      A
 Frequencies --     70.9956               108.4927               144.0631
 Red. masses --      3.7594                 3.7612                 2.8405
 Frc consts  --      0.0112                 0.0261                 0.0347
 IR Inten    --      0.3012                 0.5193                 0.4512

                      4                      5                      6
                      A                      A                      A
 Frequencies --    189.0857               199.8593               251.7294
 Red. masses --      2.3865                 1.4258                 2.9948
 Frc consts  --      0.0503                 0.0336                 0.1118
 IR Inten    --      1.3299                 1.3016                 1.2926

                      7                      8                      9
                      A                      A                      A
 Frequencies --    304.2528               316.1102               333.5516
 Red. masses --      2.5374                 3.1039                 4.1022
 Frc consts  --      0.1384                 0.1827                 0.2689
 IR Inten    --      2.0894                 0.1694                 1.6759

                     10                     11                     12
                      A                      A                      A
 Frequencies --    377.3324               393.7228               408.3258
 Red. masses --      2.1957                 1.3628                 1.9876
 Frc consts  --      0.1842                 0.1245                 0.1952
 IR Inten    --      5.7068                82.4258                 5.2371

                     13                     14                     15
                      A                      A                      A
 Frequencies --    426.2054               462.2715               474.2009
 Red. masses --      2.9346                 2.1404                 3.1047
 Frc consts  --      0.3141                 0.2695                 0.4113
 IR Inten    --     27.1707                 1.4585                15.5495

                     16                     17                     18
                      A                      A                      A
 Frequencies --    513.1793               586.5877               602.1247
 Red. masses --      2.5118                 3.3520                 1.2220
 Frc consts  --      0.3897                 0.6795                 0.2610
 IR Inten    --     26.3975                17.8829                58.6818

                     19                     20                     21
                      A                      A                      A
 Frequencies --    627.7406               673.4321               722.8081
 Red. masses --      1.2595                 2.3858                 2.9217
 Frc consts  --      0.2924                 0.6375                 0.8993
 IR Inten    --     36.9142                12.3171                 4.3066

                     22                     23                     24
                      A                      A                      A
 Frequencies --    814.6516               861.8573               893.8585
 Red. masses --      1.6418                 2.5243                 2.3943
 Frc consts  --      0.6420                 1.1047                 1.1271
 IR Inten    --     65.8969                 3.4412                 1.3327

                     25                     26                     27
                      A                      A                      A
 Frequencies --    907.0368               933.6083               951.1741
 Red. masses --      2.4958                 1.6997                 2.1987
 Frc consts  --      1.2098                 0.8729                 1.1720
 IR Inten    --      1.2904                25.7470                 2.4112

                     28                     29                     30
                      A                      A                      A
 Frequencies --    984.3301              1013.6321              1026.7420
 Red. masses --      2.2857                 1.8243                 2.0134
 Frc consts  --      1.3048                 1.1044                 1.2506
 IR Inten    --      0.7814                23.1589                 0.1278

                     31                     32                     33
                      A                      A                      A
 Frequencies --   1041.2941              1090.1920              1114.5765
 Red. masses --      1.7910                 1.8759                 2.0675
 Frc consts  --      1.1442                 1.3136                 1.5133
 IR Inten    --      8.4013                17.2986                 7.5480

                     34                     35                     36
                      A                      A                      A
 Frequencies --   1120.1231              1168.1781              1174.8387
 Red. masses --      2.2219                 1.6436                 2.8717
 Frc consts  --      1.6425                 1.3215                 2.3353
 IR Inten    --     30.0907                 3.0431                13.8116

                     37                     38                     39
                      A                      A                      A
 Frequencies --   1199.1229              1226.0829              1249.0427
 Red. masses --      2.6416                 1.1646                 1.2330
 Frc consts  --      2.2379                 1.0315                 1.1334
 IR Inten    --     26.0790                 8.7063                 6.6081

                     40                     41                     42
                      A                      A                      A
 Frequencies --   1290.5594              1310.9873              1327.4222
 Red. masses --      1.3414                 1.3063                 1.2348
 Frc consts  --      1.3163                 1.3228                 1.2820
 IR Inten    --      5.5397                32.0853                 1.4201

                     43                     44                     45
                      A                      A                      A
 Frequencies --   1350.0446              1371.7308              1384.4446
 Red. masses --      1.4028                 1.4288                 1.5304
 Frc consts  --      1.5064                 1.5840                 1.7282
 IR Inten    --     10.6046                13.8320                14.4669

                     46                     47                     48
                      A                      A                      A
 Frequencies --   1388.8080              1430.3057              1446.5457
 Red. masses --      1.3608                 1.3553                 1.6491
 Frc consts  --      1.5465                 1.6336                 2.0331
 IR Inten    --      8.5253                 6.5442                43.3097

                     49                     50                     51
                      A                      A                      A
 Frequencies --   1451.8222              1491.9057              1496.8584
 Red. masses --      1.3809                 1.1050                 1.2560
 Frc consts  --      1.7149                 1.4491                 1.6580
 IR Inten    --      6.0343                 2.7938                 7.2830

                     52                     53                     54
                      A                      A                      A
 Frequencies --   1504.8196              1521.7530              1530.5176
 Red. masses --      1.1092                 1.0979                 1.0622
 Frc consts  --      1.4799                 1.4979                 1.4660
 IR Inten    --      6.6145                 1.9300                 1.2696

                     55                     56                     57
                      A                      A                      A
 Frequencies --   1540.1462              1543.0367              2233.5908
 Red. masses --      1.0769                 1.0730                 5.9933
 Frc consts  --      1.5051                 1.5052                17.6168
 IR Inten    --      7.9387                 2.2917                 2.3498

                     58                     59                     60
                      A                      A                      A
 Frequencies --   2973.9974              2975.1977              3035.8192
 Red. masses --      1.0719                 1.0703                 1.0837
 Frc consts  --      5.5856                 5.5819                 5.8846
 IR Inten    --     27.7251                92.5181                33.8022

                     61                     62                     63
                      A                      A                      A
 Frequencies --   3053.5867              3058.4229              3062.5443
 Red. masses --      1.0592                 1.0438                 1.0582
 Frc consts  --      5.8189                 5.7525                 5.8477
 IR Inten    --      8.6013                15.1304                23.0193

                     64                     65                     66
                      A                      A                      A
 Frequencies --   3076.9548              3081.0055              3094.7609
 Red. masses --      1.0904                 1.0886                 1.1018
 Frc consts  --      6.0823                 6.0885                 6.2176
 IR Inten    --     52.6009                46.5079                 6.4616

                     67                     68                     69
                      A                      A                      A
 Frequencies --   3108.0739              3118.2377              3146.2700
 Red. masses --      1.1043                 1.0992                 1.1017
 Frc consts  --      6.2855                 6.2969                 6.4255
 IR Inten    --     43.7325                30.8529                21.8074

                     70                     71                     72
                      A                      A                      A
 Frequencies --   3495.0033              3501.7120              3699.9956
 Red. masses --      1.1592                 1.0746                 1.0655
 Frc consts  --      8.3425                 7.7636                 8.5941
 IR Inten    --     61.8789                 2.0339                18.3039

 - Thermochemistry -
 -------------------
 Temperature   298.150 Kelvin.  Pressure   1.00000 Atm.
 Atom     1 has atomic number  6 and mass  12.00000

 Molecular mass:   153.11536 amu.
 Principal axes and moments of inertia in atomic units:
                           1         2         3
     Eigenvalues --   929.655762178.671472462.31242
           X            0.99996  -0.00927  -0.00074
           Y            0.00924   0.99946  -0.03145
           Z            0.00103   0.03144   0.99951
 This molecule is an asymmetric top.
 Rotational symmetry number  1.
 Warning -- assumption of classical behavior for rotation
           may cause significant error
 Rotational temperatures (Kelvin)      0.09317     0.03976     0.03518
 Rotational constants (GHZ):           1.94130     0.82837     0.73295
 Zero-point vibrational energy     604432.9 (Joules/Mol)
                                  144.46294 (Kcal/Mol)
 Warning -- explicit consideration of  18 degrees of freedom as
           vibrations may cause significant error
 Vibrational temperatures:    102.15   156.10   207.27   272.05   287.55
          (Kelvin)            362.18   437.75   454.81   479.91   542.90
                              566.48   587.49   613.21   665.11   682.27
                              738.35   843.97   866.32   903.18   968.92
                             1039.96  1172.10  1240.02  1286.06  1305.02
                             1343.25  1368.53  1416.23  1458.39  1477.25
                             1498.19  1568.54  1603.63  1611.61  1680.75
                             1690.33  1725.27  1764.06  1797.09  1856.83
                             1886.22  1909.86  1942.41  1973.61  1991.91
                             1998.18  2057.89  2081.26  2088.85  2146.52
                             2153.65  2165.10  2189.46  2202.07  2215.93
                             2220.09  3213.64  4278.92  4280.65  4367.87
                             4393.43  4400.39  4406.32  4427.05  4432.88
                             4452.67  4471.83  4486.45  4526.78  5028.53
                             5038.18  5323.47

 Zero-point correction=                           0.230216 (Hartree/Particle)
 Thermal correction to Energy=                    0.241423
 Thermal correction to Enthalpy=                  0.242367
 Thermal correction to Gibbs Free Energy=         0.194383
 Sum of electronic and zero-point Energies=           -481.699041
 Sum of electronic and thermal Energies=              -481.687835
 Sum of electronic and thermal Enthalpies=            -481.686891
 Sum of electronic and thermal Free Energies=         -481.734874

                     E (Thermal)             CV                S
                      KCal/Mol        Cal/Mol-Kelvin    Cal/Mol-Kelvin
 Total                  151.495             44.624            100.990
 Electronic               0.000              0.000              0.000
 Translational            0.889              2.981             40.988
 Rotational               0.889              2.981             29.990
 Vibrational            149.718             38.663             30.012
 Vibration     1          0.598              1.968              4.126
 Vibration     2          0.606              1.942              3.296
 Vibration     3          0.616              1.909              2.749
 Vibration     4          0.633              1.855              2.237
 Vibration     5          0.638              1.840              2.134
 Vibration     6          0.664              1.760              1.718
 Vibration     7          0.695              1.666              1.393
 Vibration     8          0.703              1.643              1.330
 Vibration     9          0.715              1.609              1.243
 Vibration    10          0.748              1.518              1.050
 Vibration    11          0.761              1.484              0.986
 Vibration    12          0.773              1.452              0.933
 Vibration    13          0.788              1.413              0.871
 Vibration    14          0.820              1.334              0.760
 Vibration    15          0.831              1.307              0.726
 Vibration    16          0.868              1.221              0.626
 Vibration    17          0.944              1.060              0.473
 Vibration    18          0.960              1.027              0.446

 Optimization completed.
    -- Stationary point found.
 Normal termination of Gaussian 16 at Tue Dec  8 19:20:55 2020.

 ----------------------------------------------------------------------
 # B3LYP/6-311++G(d,p) empiricaldispersion=gd3bj scf=xqc pop=npa geom=c
 heck
 ----------------------------------------------------------------------

 ---------------------------------------
 CID_114501903_JID_1153_Energie_neutraal
 ---------------------------------------
 Structure from the checkpoint file:  "JID_1153.chk"
 Charge =  0 Multiplicity = 1

 SCF Done:  E(RB3LYP) =  -482.079587205     A.U. after   14 cycles
 Normal termination of Gaussian 16 at Tue Dec  8 19:23:39 2020.

 ----------------------------------------------------------------------
 # B3LYP/6-311++G(d,p) empiricaldispersion=gd3bj scf=xqc pop=npa geom=c
 heck
 ----------------------------------------------------------------------

 -------------------------------------
 CID_114501903_JID_1153_Energie_kation
 -------------------------------------
 Structure from the checkpoint file:  "JID_1153.chk"
 Charge =  1 Multiplicity = 2

 SCF Done:  E(UB3LYP) =  -481.774549141     A.U. after   24 cycles
 Normal termination of Gaussian 16 at Tue Dec  8 19:30:19 2020.
 Gaussian 16:  ES64L-G16RevA.03 25-Dec-2016

 ----------------------------------------------------------------------
 # B3LYP/6-311++G(d,p) empiricaldispersion=gd3bj scf=xqc pop=npa geom=c
 heck
 ----------------------------------------------------------------------

 ------------------------------------
 CID_114501903_JID_1153_Energie_anion
 ------------------------------------
 Structure from the checkpoint file:  "JID_1153.chk"
 Charge = -1 Multiplicity = 2

                         Standard orientation:
 ---------------------------------------------------------------------
 Center     Atomic      Atomic             Coordinates (Angstroms)
 Number     Number       Type             X           Y           Z
 ---------------------------------------------------------------------
      1          6           0        0.066083    1.922532    0.909080
      2          6           0        0.113303    0.955004   -0.280658
      3          6           0        1.483821    0.991601   -0.976817
      4          7           0        2.504800    0.430321   -0.088773
      5          6           0        2.264831   -0.994789    0.147492
      6          6           0        0.924413   -1.165921    0.864824
      7          6           0       -0.223720   -0.517299    0.081327
      8          6           0       -1.543064   -0.651614    0.887103
      9          6           0       -2.687506   -0.122093    0.148561
     10          6           0       -3.590502    0.315001   -0.525197
     11          8           0       -0.353173   -1.283556   -1.121756
     12          1           0        0.787380    1.642040    1.681070
     13          1           0       -0.932997    1.972849    1.352873
     14          1           0        0.324629    2.933406    0.574000
     15          1           0       -0.642112    1.280339   -1.009252
     16          1           0        1.410604    0.445195   -1.933004
     17          1           0        1.751127    2.030425   -1.202069
     18          1           0        3.424034    0.556528   -0.506029
     19          1           0        3.072502   -1.387264    0.775631
     20          1           0        2.245720   -1.584465   -0.785727
     21          1           0        0.985676   -0.707633    1.857973
     22          1           0        0.700637   -2.230791    0.995569
     23          1           0       -1.698805   -1.718537    1.089076
     24          1           0       -1.452354   -0.149627    1.856674
     25          1           0       -4.409670    0.702582   -1.086877
     26          1           0       -1.120546   -0.923379   -1.598736
 ---------------------------------------------------------------------

 SCF Done:  E(UB3LYP) =  -482.062483617     A.U. after   33 cycles
 SCF Done:  E(UB3LYP) =  -482.062483617     a.u. after    1 cycles

 The electronic state is 2-A.
 Alpha  occ. eigenvalues --  -19.02062 -14.18954 -10.13486 -10.09723 -10.08480
 Alpha  occ. eigenvalues --  -10.08160 -10.08159 -10.07093 -10.06877 -10.06609
 Alpha  occ. eigenvalues --  -10.05451  -0.92854  -0.80498  -0.71505  -0.67356
 Alpha  occ. eigenvalues --   -0.66280  -0.61335  -0.57685  -0.51856  -0.51277
 Alpha  occ. eigenvalues --   -0.44895  -0.43576  -0.41311  -0.38571  -0.37199
 Alpha  occ. eigenvalues --   -0.36862  -0.34536  -0.34361  -0.32408  -0.30922
 Alpha  occ. eigenvalues --   -0.29437  -0.29192  -0.26609  -0.26276  -0.24719
 Alpha  occ. eigenvalues --   -0.23923  -0.22682  -0.21050  -0.19066  -0.18080
 Alpha  occ. eigenvalues --   -0.16954  -0.12217   0.04627
 Alpha virt. eigenvalues --    0.06350   0.07417   0.08046   0.08854   0.09537
 Alpha virt. eigenvalues --    0.10052   0.10592   0.10942   0.11422   0.12123
 Alpha virt. eigenvalues --    0.12653   0.13112   0.13210   0.13884   0.14738

  Beta  occ. eigenvalues --  -19.02048 -14.18928 -10.13486 -10.09706 -10.08460
  Beta  occ. eigenvalues --  -10.08166 -10.08139 -10.07085 -10.06835 -10.06595
  Beta  occ. eigenvalues --  -10.05431  -0.92829  -0.80459  -0.71481  -0.67329
  Beta  occ. eigenvalues --   -0.66250  -0.61296  -0.57640  -0.51799  -0.51235
  Beta  occ. eigenvalues --   -0.44850  -0.43490  -0.41248  -0.38530  -0.37172
  Beta  occ. eigenvalues --   -0.36836  -0.34506  -0.34322  -0.32377  -0.30896
  Beta  occ. eigenvalues --   -0.29411  -0.29165  -0.26578  -0.26247  -0.24691
  Beta  occ. eigenvalues --   -0.23893  -0.22646  -0.21021  -0.19035  -0.18054
  Beta  occ. eigenvalues --   -0.16925  -0.12167
  Beta virt. eigenvalues --    0.06877   0.07848   0.08044   0.08516   0.09472
  Beta virt. eigenvalues --    0.10122   0.10366   0.10868   0.11127   0.11672
  Beta virt. eigenvalues --    0.12459   0.12908   0.13413   0.13453   0.14186

 Mulliken charges and spin densities:
               1          2
     1  C    0.352414  -1.099822
     2  C   -1.063104   1.332122
     3  C    0.966250  -1.438974
     4  N   -0.422647   0.252455
     5  C    0.536242  -1.037825
     6  C   -0.672613   0.501348
     7  C    0.809926  -0.857934
     8  C   -1.362895   0.861475
     9  C    4.047314  -3.626803
    10  C   -1.342655   0.777231
    11  O   -0.215245   0.054754
    12  H    0.055900   0.111929
    13  H   -0.010061   0.131353
    14  H   -0.017160   0.147090
    15  H    0.121628   0.097654
    16  H   -0.230623   0.364368
    17  H   -0.281082   0.459830
    18  H   -0.203923   0.461678
    19  H   -0.480698   0.650832
    20  H    0.016803   0.144635
    21  H   -0.060460   0.229092
    22  H    0.021481   0.127944
    23  H    0.016852   0.178266
    24  H    0.012832   0.144486
    25  H   -1.802313   1.996415
    26  H    0.207836   0.036402
 Sum of Mulliken charges =  -1.00000   1.00000

 Dipole moment (field-independent basis, Debye):
    X=              1.8748    Y=             -1.8041    Z=              2.2892  Tot=              3.4656
 Quadrupole moment (field-independent basis, Debye-Ang):
   XX=           -154.5319   YY=           -103.9355   ZZ=           -100.5437
   XY=              5.6209   XZ=             -8.2524   YZ=              1.8617

 Summary of Natural Population Analysis:

                                       Natural Population
                Natural  -----------------------------------------------
    Atom  No    Charge         Core      Valence    Rydberg      Total
 -----------------------------------------------------------------------
      C    1   -0.28764      0.99964     2.28246    0.00554     3.28764
      C    2   -0.12908      0.99954     2.11568    0.01386     3.12908
      C    3   -0.08528      0.99960     2.07291    0.01277     3.08528
      N    4   -0.34413      0.99974     2.83156    0.01283     3.84413
      C    5   -0.08581      0.99962     2.07468    0.01152     3.08581
      C    6   -0.20134      0.99956     2.19093    0.01085     3.20134
      C    7    0.14925      0.99950     1.83533    0.01593     2.85075
      C    8   -0.24384      0.99952     2.23304    0.01128     3.24384
      C    9   -0.01001      0.99938     2.00100    0.00963     3.01001
      C   10   -0.11431      0.99924     2.11087    0.00420     3.11431
      O   11   -0.38110      0.99989     3.37450    0.00672     4.38110
      H   12    0.10363      0.00000     0.39480    0.00157     0.39637
      H   13    0.09874      0.00000     0.40007    0.00119     0.40126
      H   14    0.10058      0.00000     0.39843    0.00099     0.39942
      H   15    0.10339      0.00000     0.39463    0.00198     0.39661
      H   16    0.08659      0.00000     0.41158    0.00182     0.41341
      H   17    0.09544      0.00000     0.40324    0.00132     0.40456
      H   18    0.17756      0.00000     0.31827    0.00417     0.32244
      H   19    0.09519      0.00000     0.40339    0.00142     0.40481
      H   20    0.08385      0.00000     0.41442    0.00173     0.41615
      H   21    0.10181      0.00000     0.39684    0.00134     0.39819
      H   22    0.10356      0.00000     0.39523    0.00121     0.39644
      H   23    0.11691      0.00000     0.38161    0.00148     0.38309
      H   24    0.11698      0.00000     0.38160    0.00142     0.38302
      H   25    0.11569      0.00000     0.37945    0.00486     0.38431
      H   26    0.23338      0.00000     0.26354    0.00307     0.26662
 =======================================================================
   * Total *   -0.00000     10.99522    30.86009    0.14468    42.00000

 Normal termination of Gaussian 16 at Tue Dec  8 19:39:30 2020.
