 Gaussian 16, Revision A.03,

 -----------------------------------------------------------
 # opt freq B3LYP/6-31G(d) empiricaldispersion=gd3bj scf=xqc
 -----------------------------------------------------------

 ------------------------------
 CID_43620721_JID_8624_neutraal
 ------------------------------
 Symbolic Z-matrix:
 Charge =  0 Multiplicity = 1

 SCF Done:  E(RB3LYP) =  -842.862123870     A.U. after   15 cycles
 SCF Done:  E(RB3LYP) =  -842.865971030     A.U. after   12 cycles
 SCF Done:  E(RB3LYP) =  -842.866264618     A.U. after   12 cycles
 SCF Done:  E(RB3LYP) =  -842.866355045     A.U. after   11 cycles
 SCF Done:  E(RB3LYP) =  -842.866400892     A.U. after   12 cycles
 SCF Done:  E(RB3LYP) =  -842.866420299     A.U. after   10 cycles
 SCF Done:  E(RB3LYP) =  -842.866438845     A.U. after   11 cycles
 SCF Done:  E(RB3LYP) =  -842.866455089     A.U. after   11 cycles
 SCF Done:  E(RB3LYP) =  -842.866473649     A.U. after   11 cycles
 SCF Done:  E(RB3LYP) =  -842.866482751     A.U. after   12 cycles
 SCF Done:  E(RB3LYP) =  -842.866810853     A.U. after    8 cycles
 SCF Done:  E(RB3LYP) =  -842.866811192     A.U. after    9 cycles
 SCF Done:  E(RB3LYP) =  -842.866811308     A.U. after    9 cycles
 SCF Done:  E(RB3LYP) =  -842.866811327     A.U. after    7 cycles
 SCF Done:  E(RB3LYP) =  -842.866811328     A.U. after    6 cycles
 Optimization completed.
    -- Stationary point found.
 Normal termination of Gaussian 16 at Fri Dec 11 21:42:42 2020.

 --------------------------------------------------------------------
 #N Geom=AllCheck Guess=TCheck SCRF=Check GenChk RB3LYP/6-31G(d) Freq
 --------------------------------------------------------------------

 Structure from the checkpoint file:  "JID_8624.chk"
 ------------------------------
 CID_43620721_JID_8624_neutraal
 ------------------------------
 Charge =  0 Multiplicity = 1

 SCF Done:  E(RB3LYP) =  -842.866811328     A.U. after    1 cycles

  Exact polarizability: 176.348  -6.526 157.840   3.185  13.502 130.189
 Approx polarizability: 223.769 -10.807 270.045   6.669  39.236 217.394

                      1                      2                      3
                      A                      A                      A
 Frequencies --     11.5395                12.6744                15.7538
 Red. masses --      1.3108                 3.1082                 3.5165
 Frc consts  --      0.0001                 0.0003                 0.0005
 IR Inten    --      0.2074                 0.4082                 0.6860

                      4                      5                      6
                      A                      A                      A
 Frequencies --     41.5873                52.0023                77.8740
 Red. masses --      1.2541                 3.3044                 4.3721
 Frc consts  --      0.0013                 0.0053                 0.0156
 IR Inten    --      0.4572                 0.1640                 0.2907

                      7                      8                      9
                      A                      A                      A
 Frequencies --    100.1752               132.1609               173.9125
 Red. masses --      6.8606                 7.2684                 5.3557
 Frc consts  --      0.0406                 0.0748                 0.0954
 IR Inten    --      0.5471                 0.4808                 1.9062

                     10                     11                     12
                      A                      A                      A
 Frequencies --    197.6653               207.9842               226.4245
 Red. masses --      4.2052                 3.2972                 3.4350
 Frc consts  --      0.0968                 0.0840                 0.1038
 IR Inten    --      1.2539                 0.3357                 0.5994

                     13                     14                     15
                      A                      A                      A
 Frequencies --    260.0906               293.9131               314.4075
 Red. masses --      3.9821                 3.3730                 4.1429
 Frc consts  --      0.1587                 0.1717                 0.2413
 IR Inten    --      1.6368                 6.5282                 1.3447

                     16                     17                     18
                      A                      A                      A
 Frequencies --    365.3154               390.2191               418.1889
 Red. masses --      2.8673                 4.1673                 5.6797
 Frc consts  --      0.2255                 0.3739                 0.5852
 IR Inten    --      4.1449                 0.6349                12.7419

                     19                     20                     21
                      A                      A                      A
 Frequencies --    455.3214               498.8207               524.1459
 Red. masses --      3.0321                 5.7211                 4.9050
 Frc consts  --      0.3704                 0.8387                 0.7939
 IR Inten    --      1.8028                 1.2106                 0.7113

                     22                     23                     24
                      A                      A                      A
 Frequencies --    554.5781               563.1966               569.1441
 Red. masses --      3.7636                 1.4470                 4.0528
 Frc consts  --      0.6820                 0.2704                 0.7735
 IR Inten    --      6.9307                45.3451                 1.2786

                     25                     26                     27
                      A                      A                      A
 Frequencies --    585.7519               618.1628               654.8084
 Red. masses --      4.2958                 4.8994                 2.9627
 Frc consts  --      0.8684                 1.1031                 0.7485
 IR Inten    --      2.3753                16.0457                47.1156

                     28                     29                     30
                      A                      A                      A
 Frequencies --    674.3973               700.4030               722.7068
 Red. masses --      4.3017                 2.3563                 4.3410
 Frc consts  --      1.1527                 0.6811                 1.3359
 IR Inten    --     34.6425                 5.6335                10.7397

                     31                     32                     33
                      A                      A                      A
 Frequencies --    739.5613               765.3153               777.6692
 Red. masses --      5.7794                 8.0280                 1.4777
 Frc consts  --      1.8624                 2.7704                 0.5265
 IR Inten    --      9.2343                19.8904                40.2075

                     34                     35                     36
                      A                      A                      A
 Frequencies --    811.0236               837.9902               862.4562
 Red. masses --      3.5987                 1.4951                 1.3005
 Frc consts  --      1.3946                 0.6186                 0.5699
 IR Inten    --     24.7331                22.1738                 0.4093

                     37                     38                     39
                      A                      A                      A
 Frequencies --    890.3555               924.7592               958.0741
 Red. masses --      1.4242                 3.7154                 1.2572
 Frc consts  --      0.6652                 1.8720                 0.6799
 IR Inten    --     12.3841                 4.1409                 0.3048

                     40                     41                     42
                      A                      A                      A
 Frequencies --    990.3938              1014.3364              1017.4191
 Red. masses --      2.6130                 2.1612                 3.5323
 Frc consts  --      1.5101                 1.3101                 2.1543
 IR Inten    --     28.3672                 8.5742                 1.8789

                     43                     44                     45
                      A                      A                      A
 Frequencies --   1024.3261              1029.9922              1073.6938
 Red. masses --      1.9108                 2.1602                 1.4737
 Frc consts  --      1.1812                 1.3502                 1.0010
 IR Inten    --      3.6948                 4.8031                 1.4576

                     46                     47                     48
                      A                      A                      A
 Frequencies --   1074.4587              1084.9275              1126.8465
 Red. masses --      1.5103                 3.1223                 4.5227
 Frc consts  --      1.0273                 2.1653                 3.3836
 IR Inten    --      6.0598               101.7000               224.1384

                     49                     50                     51
                      A                      A                      A
 Frequencies --   1134.5023              1168.7146              1183.7798
 Red. masses --      1.5761                 3.5299                 1.4787
 Frc consts  --      1.1952                 2.8407                 1.2208
 IR Inten    --      6.2426               144.7870                44.7896

                     52                     53                     54
                      A                      A                      A
 Frequencies --   1190.8175              1210.5475              1261.7105
 Red. masses --      1.7371                 1.1985                 2.8679
 Frc consts  --      1.4513                 1.0348                 2.6898
 IR Inten    --    121.0539                 4.6592                56.7124

                     55                     56                     57
                      A                      A                      A
 Frequencies --   1278.7633              1299.6077              1329.2718
 Red. masses --      1.8517                 3.2550                 2.2893
 Frc consts  --      1.7841                 3.2391                 2.3833
 IR Inten    --     25.5545               139.9783                21.6394

                     58                     59                     60
                      A                      A                      A
 Frequencies --   1339.2646              1372.3379              1376.3489
 Red. masses --      1.6222                 3.2654                 3.2095
 Frc consts  --      1.7143                 3.6234                 3.5822
 IR Inten    --     25.9307                35.5955                22.8155

                     61                     62                     63
                      A                      A                      A
 Frequencies --   1418.7600              1442.0849              1446.7852
 Red. masses --      1.3883                 1.2518                 1.2218
 Frc consts  --      1.6465                 1.5337                 1.5068
 IR Inten    --     22.8830                 0.2261                 0.8623

                     64                     65                     66
                      A                      A                      A
 Frequencies --   1474.8392              1487.9118              1511.8531
 Red. masses --      4.2465                 2.1675                 1.0434
 Frc consts  --      5.4421                 2.8273                 1.4052
 IR Inten    --    125.3606                12.0373                 5.7838

                     67                     68                     69
                      A                      A                      A
 Frequencies --   1515.6984              1517.9038              1523.4916
 Red. masses --      1.0484                 1.0911                 1.1453
 Frc consts  --      1.4191                 1.4812                 1.5662
 IR Inten    --      5.5676                 5.3586                 4.8395

                     70                     71                     72
                      A                      A                      A
 Frequencies --   1529.2750              1544.2819              1577.6494
 Red. masses --      1.4262                 2.0462                 8.9252
 Frc consts  --      1.9651                 2.8751                13.0885
 IR Inten    --      9.0299                72.8340                42.8949

                     73                     74                     75
                      A                      A                      A
 Frequencies --   1645.5206              1648.7139              1675.0757
 Red. masses --      5.5981                 7.2238                 6.1041
 Frc consts  --      8.9309                11.5692                10.0911
 IR Inten    --     66.3530                 2.0256                78.9736

                     76                     77                     78
                      A                      A                      A
 Frequencies --   1831.6160              3044.8934              3056.1643
 Red. masses --      9.7532                 1.0382                 1.0639
 Frc consts  --     19.2782                 5.6714                 5.8546
 IR Inten    --    391.1304                32.7375                36.6637

                     79                     80                     81
                      A                      A                      A
 Frequencies --   3065.2570              3097.9431              3116.0610
 Red. masses --      1.0356                 1.0998                 1.1009
 Frc consts  --      5.7328                 6.2186                 6.2980
 IR Inten    --     16.7106                20.0642                11.3931

                     82                     83                     84
                      A                      A                      A
 Frequencies --   3126.1731              3130.1386              3140.9441
 Red. masses --      1.1007                 1.1012                 1.1038
 Frc consts  --      6.3382                 6.3567                 6.4157
 IR Inten    --      9.2722                16.6878                16.6431

                     85                     86                     87
                      A                      A                      A
 Frequencies --   3180.3323              3197.8267              3205.9351
 Red. masses --      1.0865                 1.0940                 1.0908
 Frc consts  --      6.4747                 6.5914                 6.6056
 IR Inten    --      6.1001                31.7480                 2.9215

                     88                     89                     90
                      A                      A                      A
 Frequencies --   3243.4650              3260.0387              3699.6763
 Red. masses --      1.0908                 1.0970                 1.0641
 Frc consts  --      6.7613                 6.8690                 8.5816
 IR Inten    --     15.5640                 3.1627                84.9743

 - Thermochemistry -
 -------------------
 Temperature   298.150 Kelvin.  Pressure   1.00000 Atm.
 Atom     1 has atomic number  6 and mass  12.00000

 Molecular mass:   246.08921 amu.
 Principal axes and moments of inertia in atomic units:
                           1         2         3
     Eigenvalues --  2502.941708583.342589022.70824
           X            0.99976  -0.02187  -0.00094
           Y            0.02188   0.99965   0.01465
           Z            0.00062  -0.01467   0.99989
 This molecule is an asymmetric top.
 Rotational symmetry number  1.
 Warning -- assumption of classical behavior for rotation
           may cause significant error
 Rotational temperatures (Kelvin)      0.03460     0.01009     0.00960
 Rotational constants (GHZ):           0.72105     0.21026     0.20002
 Zero-point vibrational energy     669423.7 (Joules/Mol)
                                  159.99610 (Kcal/Mol)
 Warning -- explicit consideration of  26 degrees of freedom as
           vibrations may cause significant error
 Vibrational temperatures:     16.60    18.24    22.67    59.83    74.82
          (Kelvin)            112.04   144.13   190.15   250.22   284.40
                              299.24   325.77   374.21   422.88   452.36
                              525.61   561.44   601.68   655.11   717.69
                              754.13   797.91   810.31   818.87   842.77
                              889.40   942.12   970.31  1007.72  1039.81
                             1064.06  1101.12  1118.89  1166.88  1205.68
                             1240.88  1281.02  1330.52  1378.45  1424.96
                             1459.40  1463.84  1473.78  1481.93  1544.81
                             1545.91  1560.97  1621.28  1632.30  1681.52
                             1703.20  1713.32  1741.71  1815.32  1839.86
                             1869.85  1912.53  1926.90  1974.49  1980.26
                             2041.28  2074.84  2081.60  2121.96  2140.77
                             2175.22  2180.75  2183.93  2191.96  2200.29
                             2221.88  2269.89  2367.54  2372.13  2410.06
                             2635.29  4380.92  4397.14  4410.22  4457.25
                             4483.32  4497.87  4503.57  4519.12  4575.79
                             4600.96  4612.63  4666.62  4690.47  5323.01

 Zero-point correction=                           0.254970 (Hartree/Particle)
 Thermal correction to Energy=                    0.272074
 Thermal correction to Enthalpy=                  0.273019
 Thermal correction to Gibbs Free Energy=         0.204932
 Sum of electronic and zero-point Energies=           -842.611841
 Sum of electronic and thermal Energies=              -842.594737
 Sum of electronic and thermal Enthalpies=            -842.593793
 Sum of electronic and thermal Free Energies=         -842.661879

                     E (Thermal)             CV                S
                      KCal/Mol        Cal/Mol-Kelvin    Cal/Mol-Kelvin
 Total                  170.729             62.641            143.300
 Electronic               0.000              0.000              0.000
 Translational            0.889              2.981             42.402
 Rotational               0.889              2.981             33.627
 Vibrational            168.952             56.679             67.270
 Vibration     1          0.593              1.987              7.727
 Vibration     2          0.593              1.987              7.540
 Vibration     3          0.593              1.986              7.108
 Vibration     4          0.594              1.981              5.182
 Vibration     5          0.596              1.977              4.740
 Vibration     6          0.599              1.964              3.944
 Vibration     7          0.604              1.949              3.451
 Vibration     8          0.612              1.921              2.914
 Vibration     9          0.627              1.875              2.393
 Vibration    10          0.637              1.843              2.155
 Vibration    11          0.641              1.828              2.061
 Vibration    12          0.650              1.801              1.907
 Vibration    13          0.668              1.746              1.661
 Vibration    14          0.689              1.685              1.451
 Vibration    15          0.702              1.646              1.339
 Vibration    16          0.739              1.544              1.099
 Vibration    17          0.758              1.491              0.999
 Vibration    18          0.781              1.431              0.898
 Vibration    19          0.814              1.349              0.780
 Vibration    20          0.854              1.253              0.661
 Vibration    21          0.879              1.197              0.600
 Vibration    22          0.910              1.130              0.535
 Vibration    23          0.919              1.111              0.517
 Vibration    24          0.925              1.098              0.506
 Vibration    25          0.943              1.062              0.475
 Vibration    26          0.978              0.994              0.419

                           ! Non-Optimized Parameters !
 Normal termination of Gaussian 16 at Fri Dec 11 21:54:49 2020.

 ----------------------------------------------------------------------
 # B3LYP/6-311++G(d,p) empiricaldispersion=gd3bj scf=xqc pop=npa geom=c
 heck
 ----------------------------------------------------------------------

 --------------------------------------
 CID_43620721_JID_8624_Energie_neutraal
 --------------------------------------
 Structure from the checkpoint file:  "JID_8624.chk"
 Charge =  0 Multiplicity = 1

 SCF Done:  E(RB3LYP) =  -843.106025926     A.U. after   15 cycles
 Normal termination of Gaussian 16 at Fri Dec 11 22:00:51 2020.

 ----------------------------------------------------------------------
 # B3LYP/6-311++G(d,p) empiricaldispersion=gd3bj scf=xqc pop=npa geom=c
 heck
 ----------------------------------------------------------------------

 ------------------------------------
 CID_43620721_JID_8624_Energie_kation
 ------------------------------------
 Structure from the checkpoint file:  "JID_8624.chk"
 Charge =  1 Multiplicity = 2

 SCF Done:  E(UB3LYP) =  -842.812661833     A.U. after   30 cycles
 Normal termination of Gaussian 16 at Fri Dec 11 22:19:39 2020.
 Gaussian 16:  ES64L-G16RevA.03 25-Dec-2016

 ----------------------------------------------------------------------
 # B3LYP/6-311++G(d,p) empiricaldispersion=gd3bj scf=xqc pop=npa geom=c
 heck
 ----------------------------------------------------------------------

 -----------------------------------
 CID_43620721_JID_8624_Energie_anion
 -----------------------------------
 Structure from the checkpoint file:  "JID_8624.chk"
 Charge = -1 Multiplicity = 2

                         Standard orientation:
 ---------------------------------------------------------------------
 Center     Atomic      Atomic             Coordinates (Angstroms)
 Number     Number       Type             X           Y           Z
 ---------------------------------------------------------------------
      1          6           0        4.856431   -1.891969    0.747368
      2          6           0        3.868335   -0.769310    0.542206
      3          6           0        2.970682   -0.797359   -0.522029
      4          6           0        2.059756    0.246971   -0.725580
      5          6           0        2.036190    1.335917    0.147592
      6          6           0        2.937377    1.361972    1.216704
      7          6           0        3.843524    0.327950    1.418244
      8          8           0        1.254284    0.102042   -1.827107
      9          6           0        0.196602    1.029777   -2.039582
     10          6           0       -0.922112    0.889577   -1.061909
     11          6           0       -1.512426    1.754776   -0.180172
     12          6           0       -2.557427    1.038713    0.479323
     13          6           0       -2.520650   -0.230044   -0.059916
     14          8           0       -1.529491   -0.319500   -1.002093
     15          6           0       -3.296257   -1.443978    0.164411
     16          8           0       -3.145387   -2.501771   -0.409552
     17          8           0       -4.246567   -1.252309    1.124343
     18          6           0       -3.474072    1.573953    1.537158
     19          1           0        4.653928   -2.731162    0.075389
     20          1           0        5.883666   -1.554342    0.560181
     21          1           0        4.823452   -2.266966    1.776951
     22          1           0        2.955468   -1.631000   -1.217463
     23          1           0        1.334190    2.149344    0.020145
     24          1           0        2.919225    2.206609    1.900217
     25          1           0        4.533298    0.363112    2.257433
     26          1           0        0.559365    2.065050   -2.027643
     27          1           0       -0.155521    0.803421   -3.050024
     28          1           0       -1.234768    2.786183   -0.009322
     29          1           0       -4.707110   -2.108244    1.200879
     30          1           0       -3.344135    1.036046    2.481807
     31          1           0       -3.276010    2.634874    1.713616
     32          1           0       -4.523474    1.457715    1.250197
 ---------------------------------------------------------------------

 SCF Done:  E(UB3LYP) =  -843.107872166     A.U. after   33 cycles
 SCF Done:  E(UB3LYP) =  -843.107872166     a.u. after    1 cycles

 The electronic state is 2-A.
 Alpha  occ. eigenvalues --  -19.03994 -19.03257 -19.02388 -18.94731 -10.13479
 Alpha  occ. eigenvalues --  -10.12977 -10.12002 -10.08397 -10.08165 -10.07650
 Alpha  occ. eigenvalues --  -10.07563 -10.07086 -10.06724 -10.06655 -10.06413
 Alpha  occ. eigenvalues --  -10.05108 -10.03975 -10.03907  -0.97357  -0.95763
 Alpha  occ. eigenvalues --   -0.95237  -0.86407  -0.75629  -0.68288  -0.67627
 Alpha  occ. eigenvalues --   -0.66814  -0.63443  -0.59223  -0.58631  -0.57925
 Alpha  occ. eigenvalues --   -0.50988  -0.50467  -0.47347  -0.46049  -0.42959
 Alpha  occ. eigenvalues --   -0.40515  -0.39011  -0.38613  -0.38115  -0.34566
 Alpha  occ. eigenvalues --   -0.34226  -0.33946  -0.33171  -0.32606  -0.32264
 Alpha  occ. eigenvalues --   -0.31202  -0.30733  -0.29323  -0.29195  -0.28575
 Alpha  occ. eigenvalues --   -0.28141  -0.27844  -0.26386  -0.26108  -0.25396
 Alpha  occ. eigenvalues --   -0.24796  -0.23171  -0.21556  -0.21262  -0.18401
 Alpha  occ. eigenvalues --   -0.15080  -0.14419  -0.13332  -0.12085  -0.10007
 Alpha  occ. eigenvalues --    0.04824
 Alpha virt. eigenvalues --    0.06187   0.07652   0.08346   0.08542   0.08758
 Alpha virt. eigenvalues --    0.09120   0.09590   0.09998   0.10498   0.10748
 Alpha virt. eigenvalues --    0.11820   0.12009   0.12406   0.12980   0.13436

  Beta  occ. eigenvalues --  -19.03933 -19.02950 -19.02298 -18.94429 -10.13211
  Beta  occ. eigenvalues --  -10.12978 -10.12014 -10.08374 -10.07863 -10.07630
  Beta  occ. eigenvalues --  -10.07546 -10.06978 -10.06714 -10.06658 -10.06397
  Beta  occ. eigenvalues --  -10.05128 -10.04001 -10.03760  -0.96905  -0.95528
  Beta  occ. eigenvalues --   -0.94978  -0.85941  -0.75590  -0.67962  -0.67548
  Beta  occ. eigenvalues --   -0.66609  -0.63185  -0.59184  -0.58591  -0.57543
  Beta  occ. eigenvalues --   -0.50748  -0.50275  -0.47224  -0.45950  -0.42839
  Beta  occ. eigenvalues --   -0.40257  -0.38869  -0.38432  -0.38019  -0.34236
  Beta  occ. eigenvalues --   -0.33934  -0.33786  -0.32950  -0.32401  -0.31592
  Beta  occ. eigenvalues --   -0.31125  -0.30659  -0.29223  -0.28616  -0.28069
  Beta  occ. eigenvalues --   -0.27967  -0.27246  -0.26292  -0.26036  -0.25277
  Beta  occ. eigenvalues --   -0.24614  -0.23018  -0.21464  -0.21108  -0.17106
  Beta  occ. eigenvalues --   -0.14868  -0.13529  -0.13042  -0.11994  -0.08370
  Beta virt. eigenvalues --    0.06525   0.07623   0.08340   0.08610   0.08728
  Beta virt. eigenvalues --    0.09172   0.09534   0.09966   0.10325   0.10819
  Beta virt. eigenvalues --    0.10893   0.11825   0.12012   0.12458   0.12967

 Mulliken charges and spin densities:
               1          2
     1  C    0.714797  -1.233388
     2  C    0.204245   0.400775
     3  C   -0.310580  -0.253854
     4  C   -0.530673   0.112957
     5  C    0.265555  -0.010473
     6  C   -0.358434   0.011568
     7  C   -0.490267   0.374733
     8  O   -0.002623  -0.021334
     9  C   -0.874620   0.039389
    10  C    0.129314   0.190340
    11  C   -0.113696  -0.058037
    12  C    0.600933   0.144488
    13  C   -0.755010   0.098249
    14  O   -0.006242   0.065759
    15  C    0.360225   0.136501
    16  O   -0.409850   0.105210
    17  O   -0.242059   0.013440
    18  C   -0.367329  -0.007271
    19  H    0.011140   0.134966
    20  H   -0.139993   0.299633
    21  H    0.053829   0.082464
    22  H    0.125931   0.012072
    23  H    0.025893  -0.008557
    24  H    0.153607   0.003286
    25  H   -0.064069   0.193093
    26  H    0.146787  -0.003783
    27  H    0.042248   0.147000
    28  H    0.125167   0.004129
    29  H    0.273654  -0.001709
    30  H    0.163211   0.016730
    31  H    0.111284  -0.000002
    32  H    0.157623   0.011625
 Sum of Mulliken charges =  -1.00000   1.00000

 Dipole moment (field-independent basis, Debye):
    X=              1.1314    Y=              4.7079    Z=              1.4594  Tot=              5.0571
 Quadrupole moment (field-independent basis, Debye-Ang):
   XX=           -171.6755   YY=           -124.9017   ZZ=           -121.0341
   XY=             -3.1011   XZ=             -4.8563   YZ=             -4.0275

 Summary of Natural Population Analysis:

                                       Natural Population
                Natural  -----------------------------------------------
    Atom  No    Charge         Core      Valence    Rydberg      Total
 -----------------------------------------------------------------------
      C    1   -0.29288      0.99964     2.28776    0.00549     3.29288
      C    2   -0.00902      0.99953     2.00091    0.00859     3.00902
      C    3   -0.11906      0.99947     2.11029    0.00930     3.11906
      C    4    0.16966      0.99937     1.81741    0.01355     2.83034
      C    5   -0.14544      0.99952     2.13701    0.00891     3.14544
      C    6   -0.08722      0.99958     2.07884    0.00880     3.08722
      C    7   -0.12678      0.99952     2.11694    0.01033     3.12678
      O    8   -0.26732      0.99986     3.25776    0.00970     4.26732
      C    9   -0.03322      0.99952     2.02002    0.01369     3.03322
      C   10    0.19038      0.99948     1.79756    0.01258     2.80962
      C   11   -0.17247      0.99947     2.16609    0.00692     3.17247
      C   12   -0.00701      0.99951     1.99935    0.00815     3.00701
      C   13    0.10371      0.99934     1.88364    0.01331     2.89629
      O   14   -0.19430      0.99985     3.18648    0.00798     4.19430
      C   15    0.40565      0.99966     1.57190    0.02279     2.59435
      O   16   -0.29472      0.99987     3.28792    0.00693     4.29472
      O   17   -0.35410      0.99988     3.34829    0.00593     4.35410
      C   18   -0.28777      0.99959     2.28358    0.00460     3.28777
      H   19    0.10141      0.00000     0.39784    0.00075     0.39859
      H   20    0.10377      0.00000     0.39502    0.00122     0.39623
      H   21    0.10204      0.00000     0.39718    0.00079     0.39796
      H   22    0.10398      0.00000     0.39435    0.00167     0.39602
      H   23    0.10610      0.00000     0.39260    0.00129     0.39390
      H   24    0.09627      0.00000     0.40293    0.00080     0.40373
      H   25    0.09653      0.00000     0.40261    0.00086     0.40347
      H   26    0.08475      0.00000     0.41423    0.00103     0.41525
      H   27    0.10155      0.00000     0.39712    0.00133     0.39845
      H   28    0.09712      0.00000     0.40199    0.00089     0.40288
      H   29    0.22679      0.00000     0.26720    0.00601     0.27321
      H   30    0.10535      0.00000     0.39341    0.00124     0.39465
      H   31    0.09104      0.00000     0.40769    0.00127     0.40896
      H   32    0.10521      0.00000     0.39356    0.00123     0.39479
 =======================================================================
   * Total *    0.00001     17.99265    46.80945    0.19789    64.99999

 Normal termination of Gaussian 16 at Fri Dec 11 22:38:34 2020.
