 Gaussian 16, Revision A.03,

 -----------------------------------------------------------
 # opt freq B3LYP/6-31G(d) empiricaldispersion=gd3bj scf=xqc
 -----------------------------------------------------------

 ------------------------------
 CID_66474565_JID_1091_neutraal
 ------------------------------
 Symbolic Z-matrix:
 Charge =  0 Multiplicity = 1

 SCF Done:  E(RB3LYP) =  -549.908435354     A.U. after   15 cycles
 SCF Done:  E(RB3LYP) =  -549.909327938     A.U. after   14 cycles
 SCF Done:  E(RB3LYP) =  -549.910972431     A.U. after   13 cycles
 SCF Done:  E(RB3LYP) =  -549.911053426     A.U. after   12 cycles
 SCF Done:  E(RB3LYP) =  -549.911170419     A.U. after   11 cycles
 SCF Done:  E(RB3LYP) =  -549.911174479     A.U. after    9 cycles
 SCF Done:  E(RB3LYP) =  -549.911176118     A.U. after   10 cycles
 SCF Done:  E(RB3LYP) =  -549.911178524     A.U. after   10 cycles
 SCF Done:  E(RB3LYP) =  -549.911181547     A.U. after   12 cycles
 SCF Done:  E(RB3LYP) =  -549.911186327     A.U. after   11 cycles
 SCF Done:  E(RB3LYP) =  -549.911194549     A.U. after   12 cycles
 SCF Done:  E(RB3LYP) =  -549.911194509     A.U. after   11 cycles
 SCF Done:  E(RB3LYP) =  -549.911195463     A.U. after    9 cycles
 SCF Done:  E(RB3LYP) =  -549.911195680     A.U. after    8 cycles
 Optimization completed.
    -- Stationary point found.
 Normal termination of Gaussian 16 at Tue Dec  8 19:13:44 2020.

 --------------------------------------------------------------------
 #N Geom=AllCheck Guess=TCheck SCRF=Check GenChk RB3LYP/6-31G(d) Freq
 --------------------------------------------------------------------

 Structure from the checkpoint file:  "JID_1091.chk"
 ------------------------------
 CID_66474565_JID_1091_neutraal
 ------------------------------
 Charge =  0 Multiplicity = 1

 SCF Done:  E(RB3LYP) =  -549.911195680     A.U. after    1 cycles

  Exact polarizability: 115.205 -11.181  78.242   8.117  -2.295  69.601
 Approx polarizability: 161.479 -37.520 128.366  17.962  -6.142 106.257

                      1                      2                      3
                      A                      A                      A
 Frequencies --     16.9005                41.4477               108.4307
 Red. masses --      7.7977                 5.7207                 4.2624
 Frc consts  --      0.0013                 0.0058                 0.0295
 IR Inten    --      0.0219                 0.2167                 0.3514

                      4                      5                      6
                      A                      A                      A
 Frequencies --    148.5378               167.0855               224.7692
 Red. masses --      5.4176                 3.1580                 3.2092
 Frc consts  --      0.0704                 0.0519                 0.0955
 IR Inten    --      2.6628                 2.7439                 2.2534

                      7                      8                      9
                      A                      A                      A
 Frequencies --    265.7939               322.9694               377.1435
 Red. masses --      2.4698                 2.5894                 2.1987
 Frc consts  --      0.1028                 0.1591                 0.1843
 IR Inten    --      3.2948                 2.9743                 3.4443

                     10                     11                     12
                      A                      A                      A
 Frequencies --    448.5318               462.6177               532.5258
 Red. masses --      2.9803                 5.2072                 3.4052
 Frc consts  --      0.3533                 0.6566                 0.5689
 IR Inten    --     16.0332                 5.7845                 3.1373

                     13                     14                     15
                      A                      A                      A
 Frequencies --    542.5823               572.5774               647.1265
 Red. masses --      2.3562                12.7978                 6.1513
 Frc consts  --      0.4087                 2.4720                 1.5177
 IR Inten    --     12.6880                 9.4827                13.7267

                     16                     17                     18
                      A                      A                      A
 Frequencies --    685.6637               772.1920               857.4680
 Red. masses --      2.7022                 2.2958                 2.8768
 Frc consts  --      0.7485                 0.8065                 1.2462
 IR Inten    --      2.3348                 2.7993                12.5294

                     19                     20                     21
                      A                      A                      A
 Frequencies --    880.6513               900.0564               913.7123
 Red. masses --      3.3611                 2.4339                 1.4676
 Frc consts  --      1.5358                 1.1617                 0.7219
 IR Inten    --     10.9590                 8.2590                15.0144

                     22                     23                     24
                      A                      A                      A
 Frequencies --    933.7150               990.0134              1037.6868
 Red. masses --      2.5906                 1.9939                 2.7035
 Frc consts  --      1.3307                 1.1514                 1.7152
 IR Inten    --      4.6260                18.9339                55.5196

                     25                     26                     27
                      A                      A                      A
 Frequencies --   1057.6778              1066.3115              1087.2086
 Red. masses --      2.5250                 2.5113                 3.8750
 Frc consts  --      1.6642                 1.6823                 2.6986
 IR Inten    --     11.8934                 7.1245                40.6372

                     28                     29                     30
                      A                      A                      A
 Frequencies --   1117.2523              1171.3719              1188.4951
 Red. masses --      2.6161                 2.9799                 2.7562
 Frc consts  --      1.9240                 2.4090                 2.2938
 IR Inten    --     43.2128               147.7759               115.0532

                     31                     32                     33
                      A                      A                      A
 Frequencies --   1240.6984              1254.0599              1284.9660
 Red. masses --      1.2245                 1.2553                 1.3096
 Frc consts  --      1.1106                 1.1632                 1.2740
 IR Inten    --      7.6947                 4.7510                63.4735

                     34                     35                     36
                      A                      A                      A
 Frequencies --   1285.7220              1324.8504              1347.2408
 Red. masses --      1.3206                 1.1440                 3.7481
 Frc consts  --      1.2863                 1.1831                 4.0082
 IR Inten    --     25.6239                 2.8435                98.5604

                     37                     38                     39
                      A                      A                      A
 Frequencies --   1367.8464              1384.9810              1402.0166
 Red. masses --      1.5408                 1.3005                 1.2989
 Frc consts  --      1.6985                 1.4698                 1.5043
 IR Inten    --     17.6018                 0.1838                49.1383

                     40                     41                     42
                      A                      A                      A
 Frequencies --   1408.4459              1423.9447              1436.4859
 Red. masses --      1.3075                 1.3337                 1.3709
 Frc consts  --      1.5282                 1.5932                 1.6667
 IR Inten    --      8.9713                22.2101                17.2285

                     43                     44                     45
                      A                      A                      A
 Frequencies --   1440.0223              1499.1085              1504.4088
 Red. masses --      1.3215                 1.1004                 1.0952
 Frc consts  --      1.6145                 1.4570                 1.4605
 IR Inten    --     21.9204                 2.8217                 6.2158

                     46                     47                     48
                      A                      A                      A
 Frequencies --   1517.5951              1535.9001              1546.4659
 Red. masses --      1.0859                 1.0885                 1.0922
 Frc consts  --      1.4735                 1.5128                 1.5390
 IR Inten    --     19.5226                 0.8404                 4.4594

                     49                     50                     51
                      A                      A                      A
 Frequencies --   2268.1406              2996.3072              3003.7856
 Red. masses --     13.4797                 1.0718                 1.0719
 Frc consts  --     40.8575                 5.6695                 5.6984
 IR Inten    --    555.8808                33.3522                64.4307

                     52                     53                     54
                      A                      A                      A
 Frequencies --   3040.0934              3060.4152              3077.8953
 Red. masses --      1.0599                 1.0603                 1.0648
 Frc consts  --      5.7714                 5.8510                 5.9433
 IR Inten    --     30.2787                23.2569                12.2163

                     55                     56                     57
                      A                      A                      A
 Frequencies --   3093.1369              3108.0459              3116.8729
 Red. masses --      1.1003                 1.1006                 1.0929
 Frc consts  --      6.2023                 6.2639                 6.2559
 IR Inten    --     22.5384                28.8238                48.7513

                     58                     59                     60
                      A                      A                      A
 Frequencies --   3118.0076              3120.5160              3136.7715
 Red. masses --      1.0994                 1.0970                 1.0929
 Frc consts  --      6.2976                 6.2939                 6.3355
 IR Inten    --     11.3008                34.1732                39.7149

 - Thermochemistry -
 -------------------
 Temperature   298.150 Kelvin.  Pressure   1.00000 Atm.
 Atom     1 has atomic number  6 and mass  12.00000

 Molecular mass:   157.08513 amu.
 Principal axes and moments of inertia in atomic units:
                           1         2         3
     Eigenvalues --   638.430713366.841393592.06781
           X            0.99996   0.00851  -0.00048
           Y           -0.00851   0.99992  -0.00882
           Z            0.00041   0.00883   0.99996
 This molecule is an asymmetric top.
 Rotational symmetry number  1.
 Warning -- assumption of classical behavior for rotation
           may cause significant error
 Rotational temperatures (Kelvin)      0.13567     0.02573     0.02411
 Rotational constants (GHZ):           2.82684     0.53603     0.50242
 Zero-point vibrational energy     483789.3 (Joules/Mol)
                                  115.62843 (Kcal/Mol)
 Warning -- explicit consideration of  14 degrees of freedom as
           vibrations may cause significant error
 Vibrational temperatures:     24.32    59.63   156.01   213.71   240.40
          (Kelvin)            323.39   382.42   464.68   542.63   645.34
                              665.60   766.19   780.65   823.81   931.07
                              986.52  1111.01  1233.71  1267.06  1294.98
                             1314.63  1343.41  1424.41  1493.00  1521.76
                             1534.18  1564.25  1607.48  1685.34  1709.98
                             1785.09  1804.31  1848.78  1849.87  1906.16
                             1938.38  1968.03  1992.68  2017.19  2026.44
                             2048.74  2066.78  2071.87  2156.88  2164.51
                             2183.48  2209.82  2225.02  3263.35  4311.02
                             4321.78  4374.02  4403.25  4428.40  4450.33
                             4471.78  4484.48  4486.12  4489.73  4513.11

 Zero-point correction=                           0.184266 (Hartree/Particle)
 Thermal correction to Energy=                    0.194611
 Thermal correction to Enthalpy=                  0.195555
 Thermal correction to Gibbs Free Energy=         0.146276
 Sum of electronic and zero-point Energies=           -549.726930
 Sum of electronic and thermal Energies=              -549.716585
 Sum of electronic and thermal Enthalpies=            -549.715641
 Sum of electronic and thermal Free Energies=         -549.764920

                     E (Thermal)             CV                S
                      KCal/Mol        Cal/Mol-Kelvin    Cal/Mol-Kelvin
 Total                  122.120             37.829            103.717
 Electronic               0.000              0.000              0.000
 Translational            0.889              2.981             41.064
 Rotational               0.889              2.981             30.424
 Vibrational            120.343             31.867             32.228
 Vibration     1          0.593              1.986              6.969
 Vibration     2          0.594              1.981              5.189
 Vibration     3          0.606              1.942              3.297
 Vibration     4          0.618              1.904              2.691
 Vibration     5          0.624              1.883              2.468
 Vibration     6          0.649              1.803              1.920
 Vibration     7          0.672              1.736              1.623
 Vibration     8          0.708              1.629              1.295
 Vibration     9          0.748              1.519              1.051
 Vibration    10          0.808              1.364              0.800
 Vibration    11          0.820              1.333              0.759
 Vibration    12          0.887              1.178              0.582
 Vibration    13          0.898              1.156              0.560
 Vibration    14          0.929              1.091              0.499

 Optimization completed.
    -- Stationary point found.
 Normal termination of Gaussian 16 at Tue Dec  8 19:17:59 2020.

 ----------------------------------------------------------------------
 # B3LYP/6-311++G(d,p) empiricaldispersion=gd3bj scf=xqc pop=npa geom=c
 heck
 ----------------------------------------------------------------------

 --------------------------------------
 CID_66474565_JID_1091_Energie_neutraal
 --------------------------------------
 Structure from the checkpoint file:  "JID_1091.chk"
 Charge =  0 Multiplicity = 1

 SCF Done:  E(RB3LYP) =  -550.068590635     A.U. after   15 cycles
 Normal termination of Gaussian 16 at Tue Dec  8 19:19:52 2020.

 ----------------------------------------------------------------------
 # B3LYP/6-311++G(d,p) empiricaldispersion=gd3bj scf=xqc pop=npa geom=c
 heck
 ----------------------------------------------------------------------

 ------------------------------------
 CID_66474565_JID_1091_Energie_kation
 ------------------------------------
 Structure from the checkpoint file:  "JID_1091.chk"
 Charge =  1 Multiplicity = 2

 SCF Done:  E(UB3LYP) =  -549.738083101     A.U. after   28 cycles
 Normal termination of Gaussian 16 at Tue Dec  8 19:24:51 2020.
 Gaussian 16:  ES64L-G16RevA.03 25-Dec-2016

 ----------------------------------------------------------------------
 # B3LYP/6-311++G(d,p) empiricaldispersion=gd3bj scf=xqc pop=npa geom=c
 heck
 ----------------------------------------------------------------------

 -----------------------------------
 CID_66474565_JID_1091_Energie_anion
 -----------------------------------
 Structure from the checkpoint file:  "JID_1091.chk"
 Charge = -1 Multiplicity = 2

                         Standard orientation:
 ---------------------------------------------------------------------
 Center     Atomic      Atomic             Coordinates (Angstroms)
 Number     Number       Type             X           Y           Z
 ---------------------------------------------------------------------
      1          6           0        3.034127    0.750802    0.045871
      2          6           0        2.805509   -0.758334   -0.008851
      3          8           0        1.705676   -1.061125   -0.865585
      4          6           0        0.508225   -0.387248   -0.532885
      5          8           0        0.673284    1.019324   -0.441222
      6          6           0        1.721661    1.426055    0.437626
      7          6           0       -0.160233   -0.975559    0.719057
      8          6           0       -1.505011   -0.321336    1.009313
      9          7           0       -2.434439   -0.635455   -0.104721
     10          7           0       -3.387966    0.135280   -0.237091
     11          7           0       -4.305576    0.779059   -0.459401
     12          1           0        3.826516    0.998150    0.762811
     13          1           0        3.339547    1.105390   -0.944639
     14          1           0        3.663166   -1.286470   -0.433294
     15          1           0        2.635149   -1.155931    1.004352
     16          1           0       -0.151385   -0.534095   -1.389836
     17          1           0        1.469818    1.190256    1.484363
     18          1           0        1.777256    2.513868    0.346208
     19          1           0       -0.293614   -2.050149    0.556480
     20          1           0        0.475876   -0.858410    1.602333
     21          1           0       -1.923395   -0.709853    1.946763
     22          1           0       -1.380419    0.763175    1.106618
 ---------------------------------------------------------------------

 SCF Done:  E(UB3LYP) =  -550.059484103     A.U. after   31 cycles

 The electronic state is 2-A.
 Alpha  occ. eigenvalues --  -19.02456 -19.02329 -14.34747 -14.24850 -14.23622
 Alpha  occ. eigenvalues --  -10.16059 -10.11554 -10.11343 -10.10212 -10.06693
 Alpha  occ. eigenvalues --  -10.06399  -1.01392  -0.97081  -0.90415  -0.85649
 Alpha  occ. eigenvalues --   -0.70295  -0.67273  -0.58453  -0.57589  -0.53402
 Alpha  occ. eigenvalues --   -0.45217  -0.43158  -0.41409  -0.40161  -0.39416
 Alpha  occ. eigenvalues --   -0.38486  -0.35567  -0.35489  -0.33885  -0.33392
 Alpha  occ. eigenvalues --   -0.31521  -0.30515  -0.29408  -0.27272  -0.26831
 Alpha  occ. eigenvalues --   -0.25131  -0.22886  -0.21156  -0.18860  -0.16567
 Alpha  occ. eigenvalues --   -0.15980  -0.13480   0.04639
 Alpha virt. eigenvalues --    0.06629   0.07968   0.08275   0.09318   0.10384
 Alpha virt. eigenvalues --    0.10649   0.11350   0.11584   0.12215   0.12610
 Alpha virt. eigenvalues --    0.13762   0.14990   0.15430   0.16101   0.17157

  Beta  occ. eigenvalues --  -19.02453 -19.02331 -14.34545 -14.24560 -14.23676
  Beta  occ. eigenvalues --  -10.16055 -10.11532 -10.11310 -10.10132 -10.06666
  Beta  occ. eigenvalues --  -10.06369  -1.00990  -0.97071  -0.90407  -0.85447
  Beta  occ. eigenvalues --   -0.70239  -0.67187  -0.58355  -0.57532  -0.53277
  Beta  occ. eigenvalues --   -0.45127  -0.43082  -0.41345  -0.40097  -0.39077
  Beta  occ. eigenvalues --   -0.37875  -0.35447  -0.35363  -0.33832  -0.32856
  Beta  occ. eigenvalues --   -0.31397  -0.30436  -0.29370  -0.27143  -0.26686
  Beta  occ. eigenvalues --   -0.25079  -0.22846  -0.21117  -0.18440  -0.16548
  Beta  occ. eigenvalues --   -0.15941  -0.13407
  Beta virt. eigenvalues --    0.07441   0.08362   0.08879   0.09190   0.10075
  Beta virt. eigenvalues --    0.10792   0.11090   0.11797   0.11868   0.12676
  Beta virt. eigenvalues --    0.13054   0.13981   0.15320   0.15716   0.16319

 Mulliken charges and spin densities:
               1          2
     1  C    0.240553  -0.442939
     2  C    0.470205  -0.737645
     3  O   -0.084827   0.023614
     4  C   -1.321637   0.590419
     5  O   -0.088922   0.025765
     6  C    0.635863  -0.856690
     7  C    0.925439  -0.702208
     8  C    0.286764  -0.982255
     9  N   -0.761594   0.546536
    10  N    0.517872  -0.069586
    11  N    0.010730  -0.145410
    12  H   -0.669852   0.823864
    13  H    0.215448  -0.060974
    14  H   -0.271001   0.435470
    15  H   -0.171200   0.319315
    16  H    0.055558   0.159893
    17  H   -0.332948   0.480263
    18  H   -0.198417   0.369685
    19  H   -0.005961   0.202829
    20  H   -0.085789   0.261584
    21  H   -0.503637   0.688690
    22  H    0.137352   0.069780
 Sum of Mulliken charges =  -1.00000   1.00000

 Dipole moment (field-independent basis, Debye):
    X=             -0.6174    Y=             -0.4844    Z=             -3.3810  Tot=              3.4709
 Quadrupole moment (field-independent basis, Debye-Ang):
   XX=           -135.5696   YY=            -93.3389   ZZ=            -99.1419
   XY=              0.5267   XZ=            -10.1711   YZ=             -0.8663

 Summary of Natural Population Analysis:

                                       Natural Population
                Natural  -----------------------------------------------
    Atom  No    Charge         Core      Valence    Rydberg      Total
 -----------------------------------------------------------------------
      C    1   -0.21810      0.99963     2.20949    0.00898     3.21810
      C    2   -0.01303      0.99957     1.99992    0.01354     3.01303
      O    3   -0.30335      0.99988     3.29507    0.00839     4.30335
      C    4    0.22152      0.99956     1.75898    0.01993     2.77848
      O    5   -0.30573      0.99989     3.29748    0.00836     4.30573
      C    6   -0.01446      0.99957     2.00079    0.01410     3.01446
      C    7   -0.22009      0.99959     2.21027    0.01023     3.22009
      C    8   -0.08917      0.99959     2.07778    0.01181     3.08917
      N    9   -0.20840      0.99970     2.69477    0.01393     3.70840
      N   10    0.13428      0.99971     2.35103    0.01498     3.36572
      N   11   -0.03087      0.99982     2.51716    0.01390     3.53087
      H   12    0.10689      0.00000     0.39025    0.00287     0.39311
      H   13    0.09641      0.00000     0.40237    0.00122     0.40359
      H   14    0.09136      0.00000     0.40738    0.00126     0.40864
      H   15    0.08186      0.00000     0.41629    0.00185     0.41814
      H   16    0.09218      0.00000     0.40631    0.00151     0.40782
      H   17    0.08290      0.00000     0.41442    0.00268     0.41710
      H   18    0.09205      0.00000     0.40672    0.00123     0.40795
      H   19    0.10667      0.00000     0.39177    0.00157     0.39333
      H   20    0.10562      0.00000     0.39232    0.00207     0.39438
      H   21    0.09495      0.00000     0.40316    0.00189     0.40505
      H   22    0.09653      0.00000     0.40173    0.00175     0.40347
 =======================================================================
   * Total *   -0.00000     10.99651    30.84545    0.15804    42.00000

 Normal termination of Gaussian 16 at Tue Dec  8 19:30:16 2020.
