 Gaussian 16, Revision A.03,

 -----------------------------------------------------------
 # opt freq B3LYP/6-31G(d) empiricaldispersion=gd3bj scf=xqc
 -----------------------------------------------------------

 ------------------------------
 CID_73439753_JID_8650_neutraal
 ------------------------------
 Symbolic Z-matrix:
 Charge =  0 Multiplicity = 1

 SCF Done:  E(RB3LYP) =  -1142.14359173     A.U. after   15 cycles
 SCF Done:  E(RB3LYP) =  -1142.15041092     A.U. after   13 cycles
 SCF Done:  E(RB3LYP) =  -1142.15160351     A.U. after   12 cycles
 SCF Done:  E(RB3LYP) =  -1142.15212471     A.U. after   12 cycles
 SCF Done:  E(RB3LYP) =  -1142.15226093     A.U. after   12 cycles
 SCF Done:  E(RB3LYP) =  -1142.15233971     A.U. after   11 cycles
 SCF Done:  E(RB3LYP) =  -1142.15237700     A.U. after   10 cycles
 SCF Done:  E(RB3LYP) =  -1142.15238818     A.U. after   10 cycles
 SCF Done:  E(RB3LYP) =  -1142.15239837     A.U. after   10 cycles
 SCF Done:  E(RB3LYP) =  -1142.15240946     A.U. after   10 cycles
 SCF Done:  E(RB3LYP) =  -1142.15241187     A.U. after   10 cycles
 SCF Done:  E(RB3LYP) =  -1142.15241277     A.U. after    9 cycles
 Optimization completed.
    -- Stationary point found.
 Normal termination of Gaussian 16 at Fri Dec 11 21:19:52 2020.

 --------------------------------------------------------------------
 #N Geom=AllCheck Guess=TCheck SCRF=Check GenChk RB3LYP/6-31G(d) Freq
 --------------------------------------------------------------------

 Structure from the checkpoint file:  "JID_8650.chk"
 ------------------------------
 CID_73439753_JID_8650_neutraal
 ------------------------------
 Charge =  0 Multiplicity = 1

 SCF Done:  E(RB3LYP) =  -1142.15241277     A.U. after    1 cycles

  Exact polarizability: 259.178  -9.282 187.862  13.764   9.684  95.124
 Approx polarizability: 371.993 -11.208 318.759  33.764  24.938 154.100

                      1                      2                      3
                      A                      A                      A
 Frequencies --     22.1678                33.5637                48.7349
 Red. masses --      5.0783                 5.0995                 4.6399
 Frc consts  --      0.0015                 0.0034                 0.0065
 IR Inten    --      0.0325                 0.0767                 0.2288

                      4                      5                      6
                      A                      A                      A
 Frequencies --     74.7329               110.2658               138.0633
 Red. masses --      5.0732                 5.9689                 4.8626
 Frc consts  --      0.0167                 0.0428                 0.0546
 IR Inten    --      0.1717                 0.3560                 0.8954

                      7                      8                      9
                      A                      A                      A
 Frequencies --    147.6212               162.6826               240.7994
 Red. masses --      5.0839                 5.2152                 1.2007
 Frc consts  --      0.0653                 0.0813                 0.0410
 IR Inten    --      7.7597                 2.1879                92.3050

                     10                     11                     12
                      A                      A                      A
 Frequencies --    253.1579               276.3509               313.8918
 Red. masses --      6.2231                 2.6962                 5.5137
 Frc consts  --      0.2350                 0.1213                 0.3201
 IR Inten    --      1.3765                 2.8277                 0.6535

                     13                     14                     15
                      A                      A                      A
 Frequencies --    344.8275               385.4364               408.9994
 Red. masses --      3.2997                 3.1912                 2.5284
 Frc consts  --      0.2312                 0.2793                 0.2492
 IR Inten    --      3.7605                 0.8331                 1.7292

                     16                     17                     18
                      A                      A                      A
 Frequencies --    430.7119               441.9385               469.0862
 Red. masses --      2.5378                 3.7396                 3.2609
 Frc consts  --      0.2774                 0.4303                 0.4228
 IR Inten    --      2.2144                 3.9278                 5.4547

                     19                     20                     21
                      A                      A                      A
 Frequencies --    491.5126               499.4278               561.0488
 Red. masses --      3.3239                 4.0186                 4.8372
 Frc consts  --      0.4731                 0.5906                 0.8971
 IR Inten    --     10.2873                 4.8645                 7.7629

                     22                     23                     24
                      A                      A                      A
 Frequencies --    576.6186               587.0868               642.3777
 Red. masses --      3.2077                 3.9383                 9.7515
 Frc consts  --      0.6284                 0.7998                 2.3708
 IR Inten    --      0.0966                 5.4699                12.0647

                     25                     26                     27
                      A                      A                      A
 Frequencies --    684.2019               705.1233               706.5449
 Red. masses --      2.0873                 4.3431                 6.4563
 Frc consts  --      0.5757                 1.2723                 1.8990
 IR Inten    --      3.2612                 3.2648                 8.2910

                     28                     29                     30
                      A                      A                      A
 Frequencies --    716.7703               754.2753               794.3117
 Red. masses --      1.1670                 6.8895                 1.9059
 Frc consts  --      0.3533                 2.3094                 0.7085
 IR Inten    --     48.6123                 6.2198                 1.3425

                     31                     32                     33
                      A                      A                      A
 Frequencies --    798.0560               808.7667               811.3358
 Red. masses --      3.8755                 1.5876                 2.6842
 Frc consts  --      1.4543                 0.6118                 1.0411
 IR Inten    --      3.9299                 0.8432                50.4669

                     34                     35                     36
                      A                      A                      A
 Frequencies --    819.5375               845.0702               869.6644
 Red. masses --      4.1253                 1.5218                 4.2414
 Frc consts  --      1.6325                 0.6403                 1.8900
 IR Inten    --     13.8465                 0.5465                12.8226

                     37                     38                     39
                      A                      A                      A
 Frequencies --    904.7539               913.3345               944.7825
 Red. masses --      2.4400                 1.3315                 2.9036
 Frc consts  --      1.1768                 0.6544                 1.5270
 IR Inten    --      4.8417                 0.2956                38.6667

                     40                     41                     42
                      A                      A                      A
 Frequencies --    989.2507               990.7556              1000.5107
 Red. masses --      1.6086                 2.8391                 5.0914
 Frc consts  --      0.9275                 1.6420                 3.0028
 IR Inten    --      0.7534                 4.1465                11.4375

                     43                     44                     45
                      A                      A                      A
 Frequencies --   1009.8355              1024.9294              1042.8928
 Red. masses --      1.5811                 2.8142                 2.3018
 Frc consts  --      0.9500                 1.7418                 1.4750
 IR Inten    --      3.9215                13.5857                46.7024

                     46                     47                     48
                      A                      A                      A
 Frequencies --   1074.0937              1099.0359              1108.7274
 Red. masses --      2.0608                 1.9682                 1.5887
 Frc consts  --      1.4008                 1.4007                 1.1506
 IR Inten    --      5.9651                28.3061                11.6384

                     49                     50                     51
                      A                      A                      A
 Frequencies --   1122.3869              1130.2825              1143.0004
 Red. masses --      1.2079                 1.7463                 1.6475
 Frc consts  --      0.8965                 1.3145                 1.2681
 IR Inten    --      8.1381                 7.6793               143.1522

                     52                     53                     54
                      A                      A                      A
 Frequencies --   1176.6152              1215.4408              1249.2057
 Red. masses --      2.0747                 1.1933                 1.4342
 Frc consts  --      1.6923                 1.0387                 1.3186
 IR Inten    --      1.4331                 0.0334                76.7197

                     55                     56                     57
                      A                      A                      A
 Frequencies --   1262.6303              1282.1247              1297.1016
 Red. masses --      1.6298                 1.8683                 6.5944
 Frc consts  --      1.5309                 1.8095                 6.5369
 IR Inten    --      3.7171                35.4934                19.7156

                     58                     59                     60
                      A                      A                      A
 Frequencies --   1310.8602              1312.8531              1337.5483
 Red. masses --      1.5112                 1.6531                 2.3512
 Frc consts  --      1.5300                 1.6788                 2.4783
 IR Inten    --      6.4461                85.4851                 0.7974

                     61                     62                     63
                      A                      A                      A
 Frequencies --   1365.0030              1376.8189              1388.6908
 Red. masses --      1.3681                 1.3641                 2.3526
 Frc consts  --      1.5018                 1.5235                 2.6731
 IR Inten    --      0.4809                 0.5665               129.3243

                     64                     65                     66
                      A                      A                      A
 Frequencies --   1400.1930              1400.4524              1409.4273
 Red. masses --      1.7431                 1.4255                 1.6235
 Frc consts  --      2.0134                 1.6473                 1.9001
 IR Inten    --      2.3794                 4.3939                77.5525

                     67                     68                     69
                      A                      A                      A
 Frequencies --   1424.4875              1446.0920              1474.5895
 Red. masses --      1.5424                 1.2690                 3.5387
 Frc consts  --      1.8441                 1.5636                 4.5335
 IR Inten    --     25.1516                60.2848                20.0733

                     70                     71                     72
                      A                      A                      A
 Frequencies --   1494.4280              1497.9125              1507.7212
 Red. masses --      1.6123                 1.8607                 1.0947
 Frc consts  --      2.1216                 2.4598                 1.4662
 IR Inten    --     56.4293               107.4144                13.1119

                     73                     74                     75
                      A                      A                      A
 Frequencies --   1516.3338              1521.7450              1560.9393
 Red. masses --      1.3815                 1.0908                 2.6416
 Frc consts  --      1.8715                 1.4882                 3.7922
 IR Inten    --     94.8289                13.8741               361.7667

                     76                     77                     78
                      A                      A                      A
 Frequencies --   1592.5749              1610.4356              1633.4435
 Red. masses --      6.3761                 5.7489                 6.1661
 Frc consts  --      9.5281                 8.7846                 9.6932
 IR Inten    --     79.9370               184.9555               707.7882

                     79                     80                     81
                      A                      A                      A
 Frequencies --   3014.3737              3019.4253              3052.1691
 Red. masses --      1.0741                 1.0747                 1.0613
 Frc consts  --      5.7505                 5.7727                 5.8252
 IR Inten    --      8.9364               127.6368                16.3615

                     82                     83                     84
                      A                      A                      A
 Frequencies --   3055.0423              3086.8608              3102.2463
 Red. masses --      1.0624                 1.0859                 1.1030
 Frc consts  --      5.8422                 6.0962                 6.2540
 IR Inten    --     15.8797                57.9659                26.8077

                     85                     86                     87
                      A                      A                      A
 Frequencies --   3104.4568              3166.7663              3181.9719
 Red. masses --      1.1043                 1.0905                 1.0900
 Frc consts  --      6.2704                 6.4434                 6.5023
 IR Inten    --     58.8546                42.0312                 3.4119

                     88                     89                     90
                      A                      A                      A
 Frequencies --   3183.2930              3220.1809              3233.3911
 Red. masses --      1.0898                 1.0884                 1.0952
 Frc consts  --      6.5067                 6.6499                 6.7464
 IR Inten    --      2.3698                 8.5133                 3.5246

                     91                     92                     93
                      A                      A                      A
 Frequencies --   3241.2390              3267.7857              3747.9438
 Red. masses --      1.0930                 1.0971                 1.0654
 Frc consts  --      6.7655                 6.9022                 8.8178
 IR Inten    --      9.7700                 1.2948                 4.3751

 - Thermochemistry -
 -------------------
 Temperature   298.150 Kelvin.  Pressure   1.00000 Atm.
 Atom     1 has atomic number  6 and mass  12.00000

 Molecular mass:   261.09358 amu.
 Principal axes and moments of inertia in atomic units:
                           1         2         3
     Eigenvalues --  2255.042508647.43084**********
           X            0.99999   0.00504   0.00057
           Y           -0.00504   0.99998   0.00412
           Z           -0.00055  -0.00413   0.99999
 This molecule is an asymmetric top.
 Rotational symmetry number  1.
 Warning -- assumption of classical behavior for rotation
           may cause significant error
 Rotational temperatures (Kelvin)      0.03841     0.01002     0.00826
 Rotational constants (GHZ):           0.80031     0.20870     0.17214
 Zero-point vibrational energy     707089.6 (Joules/Mol)
                                  168.99847 (Kcal/Mol)
 Warning -- explicit consideration of  23 degrees of freedom as
           vibrations may cause significant error
 Vibrational temperatures:     31.89    48.29    70.12   107.52   158.65
          (Kelvin)            198.64   212.39   234.06   346.46   364.24
                              397.61   451.62   496.13   554.56   588.46
                              619.70   635.85   674.91   707.18   718.57
                              807.22   829.63   844.69   924.24   984.41
                             1014.52  1016.56  1031.27  1085.23  1142.84
                             1148.22  1163.63  1167.33  1179.13  1215.87
                             1251.25  1301.74  1314.08  1359.33  1423.31
                             1425.48  1439.51  1452.93  1474.64  1500.49
                             1545.38  1581.27  1595.21  1614.86  1626.22
                             1644.52  1692.89  1748.75  1797.33  1816.64
                             1844.69  1866.24  1886.04  1888.90  1924.43
                             1963.93  1980.94  1998.02  2014.57  2014.94
                             2027.85  2049.52  2080.60  2121.61  2150.15
                             2155.16  2169.27  2181.67  2189.45  2245.84
                             2291.36  2317.06  2350.16  4337.01  4344.28
                             4391.39  4395.52  4441.30  4463.44  4466.62
                             4556.27  4578.15  4580.05  4633.12  4652.13
                             4663.42  4701.61  5392.46

 Zero-point correction=                           0.269316 (Hartree/Particle)
 Thermal correction to Energy=                    0.284697
 Thermal correction to Enthalpy=                  0.285642
 Thermal correction to Gibbs Free Energy=         0.224691
 Sum of electronic and zero-point Energies=          -1141.883097
 Sum of electronic and thermal Energies=             -1141.867715
 Sum of electronic and thermal Enthalpies=           -1141.866771
 Sum of electronic and thermal Free Energies=        -1141.927722

                     E (Thermal)             CV                S
                      KCal/Mol        Cal/Mol-Kelvin    Cal/Mol-Kelvin
 Total                  178.650             60.352            128.281
 Electronic               0.000              0.000              0.000
 Translational            0.889              2.981             42.579
 Rotational               0.889              2.981             33.680
 Vibrational            176.873             54.390             52.023
 Vibration     1          0.593              1.985              6.430
 Vibration     2          0.594              1.983              5.607
 Vibration     3          0.595              1.978              4.868
 Vibration     4          0.599              1.966              4.025
 Vibration     5          0.606              1.941              3.264
 Vibration     6          0.614              1.915              2.831
 Vibration     7          0.617              1.905              2.703
 Vibration     8          0.623              1.888              2.518
 Vibration     9          0.658              1.778              1.797
 Vibration    10          0.664              1.757              1.708
 Vibration    11          0.678              1.717              1.556
 Vibration    12          0.702              1.647              1.342
 Vibration    13          0.723              1.586              1.190
 Vibration    14          0.754              1.501              1.018
 Vibration    15          0.773              1.451              0.930
 Vibration    16          0.792              1.403              0.856
 Vibration    17          0.802              1.379              0.821
 Vibration    18          0.826              1.319              0.740
 Vibration    19          0.847              1.269              0.680
 Vibration    20          0.855              1.251              0.660
 Vibration    21          0.917              1.116              0.522
 Vibration    22          0.933              1.082              0.492
 Vibration    23          0.944              1.059              0.472

                           ! Non-Optimized Parameters !
 Normal termination of Gaussian 16 at Fri Dec 11 21:33:42 2020.

 ----------------------------------------------------------------------
 # B3LYP/6-311++G(d,p) empiricaldispersion=gd3bj scf=xqc pop=npa geom=c
 heck
 ----------------------------------------------------------------------

 --------------------------------------
 CID_73439753_JID_8650_Energie_neutraal
 --------------------------------------
 Structure from the checkpoint file:  "JID_8650.chk"
 Charge =  0 Multiplicity = 1

 SCF Done:  E(RB3LYP) =  -1142.38161355     A.U. after   15 cycles
 Normal termination of Gaussian 16 at Fri Dec 11 21:39:54 2020.

 ----------------------------------------------------------------------
 # B3LYP/6-311++G(d,p) empiricaldispersion=gd3bj scf=xqc pop=npa geom=c
 heck
 ----------------------------------------------------------------------

 ------------------------------------
 CID_73439753_JID_8650_Energie_kation
 ------------------------------------
 Structure from the checkpoint file:  "JID_8650.chk"
 Charge =  1 Multiplicity = 2

 SCF Done:  E(UB3LYP) =  -1142.10656073     A.U. after   25 cycles
 Normal termination of Gaussian 16 at Fri Dec 11 21:55:00 2020.
 Gaussian 16:  ES64L-G16RevA.03 25-Dec-2016

 ----------------------------------------------------------------------
 # B3LYP/6-311++G(d,p) empiricaldispersion=gd3bj scf=xqc pop=npa geom=c
 heck
 ----------------------------------------------------------------------

 -----------------------------------
 CID_73439753_JID_8650_Energie_anion
 -----------------------------------
 Structure from the checkpoint file:  "JID_8650.chk"
 Charge = -1 Multiplicity = 2

                         Standard orientation:
 ---------------------------------------------------------------------
 Center     Atomic      Atomic             Coordinates (Angstroms)
 Number     Number       Type             X           Y           Z
 ---------------------------------------------------------------------
      1          6           0       -3.817433    0.486300    0.755307
      2          6           0       -3.131669    0.964908   -0.532224
      3          7           0       -1.824749    0.329439   -0.681295
      4          6           0       -1.870287   -1.130251   -0.710871
      5          6           0       -2.514348   -1.674328    0.571831
      6          6           0       -3.897397   -1.048085    0.815798
      7          8           0       -4.873133   -1.558945   -0.097770
      8          6           0       -0.673700    0.996655   -0.356795
      9          7           0       -0.765658    2.330394   -0.146522
     10          6           0        0.379380    2.953879    0.129034
     11          6           0        1.610193    2.313293    0.212031
     12          6           0        1.598595    0.927144   -0.008213
     13          7           0        0.461616    0.274603   -0.287970
     14          6           0        2.806638    0.112773    0.059713
     15          6           0        4.106810    0.486479    0.319422
     16          6           0        5.017375   -0.605568    0.301090
     17          6           0        4.397990   -1.797961    0.028198
     18         16           0        2.694297   -1.611238   -0.212511
     19          1           0       -4.828316    0.903598    0.824243
     20          1           0       -3.240735    0.856508    1.612392
     21          1           0       -2.994084    2.044113   -0.532283
     22          1           0       -3.738530    0.703283   -1.411746
     23          1           0       -0.858590   -1.508855   -0.839117
     24          1           0       -2.455032   -1.432339   -1.592385
     25          1           0       -1.852625   -1.443269    1.416126
     26          1           0       -2.616391   -2.763691    0.512424
     27          1           0       -4.267961   -1.354976    1.799048
     28          1           0       -4.600489   -1.314145   -0.995285
     29          1           0        0.305393    4.027715    0.296319
     30          1           0        2.517350    2.856724    0.443453
     31          1           0        4.402595    1.510520    0.516621
     32          1           0        6.081882   -0.508410    0.482383
     33          1           0        4.850491   -2.777876   -0.045277
 ---------------------------------------------------------------------

 SCF Done:  E(UB3LYP) =  -1142.39757356     A.U. after   23 cycles

 The electronic state is 2-A.
 Alpha  occ. eigenvalues --  -88.71869 -19.03706 -14.20984 -14.14367 -14.14141
 Alpha  occ. eigenvalues --  -10.13162 -10.12477 -10.09602 -10.09262 -10.07396
 Alpha  occ. eigenvalues --  -10.07061 -10.05983 -10.05416 -10.04264 -10.04224
 Alpha  occ. eigenvalues --  -10.03466 -10.02158 -10.02052  -7.80500  -5.76788
 Alpha  occ. eigenvalues --   -5.76429  -5.76126  -0.93897  -0.86400  -0.80014
 Alpha  occ. eigenvalues --   -0.74265  -0.72206  -0.69089  -0.66145  -0.63635
 Alpha  occ. eigenvalues --   -0.58878  -0.58303  -0.56490  -0.54018  -0.50485
 Alpha  occ. eigenvalues --   -0.49787  -0.46244  -0.43281  -0.41884  -0.39633
 Alpha  occ. eigenvalues --   -0.38069  -0.37741  -0.37665  -0.35859  -0.35296
 Alpha  occ. eigenvalues --   -0.34550  -0.32389  -0.32045  -0.29427  -0.29228
 Alpha  occ. eigenvalues --   -0.28896  -0.27210  -0.26714  -0.26144  -0.25844
 Alpha  occ. eigenvalues --   -0.24904  -0.24537  -0.24049  -0.23170  -0.22970
 Alpha  occ. eigenvalues --   -0.19980  -0.18678  -0.17815  -0.17130  -0.16048
 Alpha  occ. eigenvalues --   -0.11399  -0.09888  -0.09520  -0.07791   0.03983
 Alpha virt. eigenvalues --    0.06969   0.07977   0.08816   0.09109   0.09737
 Alpha virt. eigenvalues --    0.10447   0.11364   0.11555   0.11674   0.12042
 Alpha virt. eigenvalues --    0.12321   0.12640   0.13944   0.14232   0.14450

  Beta  occ. eigenvalues --  -88.71816 -19.03705 -14.20994 -14.14060 -14.13913
  Beta  occ. eigenvalues --  -10.13162 -10.12518 -10.09603 -10.09262 -10.07394
  Beta  occ. eigenvalues --  -10.07060 -10.05838 -10.05030 -10.04210 -10.03890
  Beta  occ. eigenvalues --  -10.03574 -10.02214 -10.01802  -7.80453  -5.76765
  Beta  occ. eigenvalues --   -5.76407  -5.75951  -0.93896  -0.86237  -0.79739
  Beta  occ. eigenvalues --   -0.73761  -0.71793  -0.69047  -0.66129  -0.63314
  Beta  occ. eigenvalues --   -0.58607  -0.57893  -0.56356  -0.53964  -0.50453
  Beta  occ. eigenvalues --   -0.49189  -0.46148  -0.43173  -0.41570  -0.39481
  Beta  occ. eigenvalues --   -0.37912  -0.37651  -0.37608  -0.35797  -0.35218
  Beta  occ. eigenvalues --   -0.34469  -0.32273  -0.31979  -0.29257  -0.28987
  Beta  occ. eigenvalues --   -0.28663  -0.26976  -0.26511  -0.25991  -0.25676
  Beta  occ. eigenvalues --   -0.24851  -0.24331  -0.23495  -0.22794  -0.22733
  Beta  occ. eigenvalues --   -0.19741  -0.18669  -0.16921  -0.15694  -0.15566
  Beta  occ. eigenvalues --   -0.10401  -0.09563  -0.08610  -0.06662
  Beta virt. eigenvalues --    0.06952   0.07947   0.08781   0.09068   0.09637
  Beta virt. eigenvalues --    0.09739   0.10408   0.11332   0.11537   0.11633
  Beta virt. eigenvalues --    0.11991   0.12302   0.13129   0.13927   0.14362

 Mulliken charges and spin densities:
               1          2
     1  C   -0.212975  -0.004826
     2  C   -0.305688   0.004800
     3  N    0.218439  -0.004991
     4  C   -0.258379   0.007270
     5  C   -0.263942  -0.011759
     6  C   -0.328118   0.000893
     7  O   -0.192767  -0.000440
     8  C   -0.305896  -0.026978
     9  N   -0.206897   0.140819
    10  C   -0.298579   0.143316
    11  C   -0.628802  -0.014542
    12  C    0.256713   0.198303
    13  N   -0.045506   0.121092
    14  C    0.202788  -0.022643
    15  C   -0.030093   0.222649
    16  C   -0.344423  -0.057914
    17  C   -0.196402   0.229234
    18  S   -0.375204   0.095121
    19  H    0.165606   0.000760
    20  H    0.146462   0.002274
    21  H    0.238099  -0.003135
    22  H    0.110256   0.002477
    23  H    0.250799  -0.002364
    24  H    0.115036   0.001198
    25  H    0.139609   0.013963
    26  H    0.166846  -0.000003
    27  H    0.194729   0.000066
    28  H    0.227564   0.000310
    29  H    0.129227  -0.011635
    30  H    0.094401   0.002770
    31  H    0.061930  -0.014525
    32  H    0.102377   0.005026
    33  H    0.172790  -0.016587
 Sum of Mulliken charges =  -1.00000   1.00000

 Dipole moment (field-independent basis, Debye):
    X=             -5.1797    Y=             -0.8719    Z=              0.3005  Tot=              5.2611
 Quadrupole moment (field-independent basis, Debye-Ang):
   XX=           -170.2676   YY=           -135.1758   ZZ=           -122.8235
   XY=              1.0901   XZ=              2.0039   YZ=              1.9379

 Summary of Natural Population Analysis:

                                       Natural Population
                Natural  -----------------------------------------------
    Atom  No    Charge         Core      Valence    Rydberg      Total
 -----------------------------------------------------------------------
      C    1   -0.20880      0.99961     2.20231    0.00688     3.20880
      C    2   -0.08874      0.99962     2.07902    0.01010     3.08874
      N    3   -0.26133      0.99963     2.74814    0.01355     3.76133
      C    4   -0.08919      0.99962     2.07934    0.01023     3.08919
      C    5   -0.20900      0.99961     2.20248    0.00690     3.20900
      C    6    0.06364      0.99956     1.92345    0.01334     2.93636
      O    7   -0.37703      0.99990     3.36996    0.00716     4.37703
      C    8    0.30096      0.99958     1.68066    0.01880     2.69904
      N    9   -0.26154      0.99967     2.74984    0.01203     3.76154
      C   10    0.06720      0.99961     1.91864    0.01455     2.93280
      C   11   -0.17243      0.99952     2.16486    0.00805     3.17243
      C   12    0.16802      0.99950     1.81956    0.01292     2.83198
      N   13   -0.25877      0.99964     2.74758    0.01155     3.75877
      C   14   -0.10172      0.99938     2.08935    0.01299     3.10172
      C   15   -0.06714      0.99940     2.05862    0.00912     3.06714
      C   16   -0.17047      0.99957     2.15978    0.01113     3.17047
      C   17   -0.13983      0.99956     2.12812    0.01216     3.13983
      S   18    0.22361      4.99942     2.75564    0.02133     7.77639
      H   19    0.09726      0.00000     0.40143    0.00130     0.40274
      H   20    0.10459      0.00000     0.39430    0.00111     0.39541
      H   21    0.12402      0.00000     0.37472    0.00126     0.37598
      H   22    0.07847      0.00000     0.42003    0.00150     0.42153
      H   23    0.12791      0.00000     0.37096    0.00113     0.37209
      H   24    0.07828      0.00000     0.42027    0.00145     0.42172
      H   25    0.10627      0.00000     0.39258    0.00116     0.39373
      H   26    0.09882      0.00000     0.39993    0.00125     0.40118
      H   27    0.08450      0.00000     0.41407    0.00143     0.41550
      H   28    0.22451      0.00000     0.27261    0.00288     0.27549
      H   29    0.07689      0.00000     0.42183    0.00129     0.42311
      H   30    0.09801      0.00000     0.40067    0.00132     0.40199
      H   31    0.09463      0.00000     0.40404    0.00132     0.40537
      H   32    0.09466      0.00000     0.40409    0.00126     0.40534
      H   33    0.09379      0.00000     0.40504    0.00117     0.40621
 =======================================================================
   * Total *    0.00003     21.99241    46.77394    0.23362    68.99997

 Normal termination of Gaussian 16 at Fri Dec 11 22:08:20 2020.
