 Gaussian 16, Revision A.03,

 -----------------------------------------------------------
 # opt freq B3LYP/6-31G(d) empiricaldispersion=gd3bj scf=xqc
 -----------------------------------------------------------

 -------------------------------
 CID_131464963_JID_5037_neutraal
 -------------------------------
 Symbolic Z-matrix:
 Charge =  0 Multiplicity = 1

 SCF Done:  E(RB3LYP) =  -688.741233572     A.U. after   15 cycles
 SCF Done:  E(RB3LYP) =  -688.741582954     A.U. after   14 cycles
 SCF Done:  E(RB3LYP) =  -688.749024588     A.U. after   14 cycles
 SCF Done:  E(RB3LYP) =  -688.749611053     A.U. after   13 cycles
 SCF Done:  E(RB3LYP) =  -688.749615766     A.U. after   14 cycles
 SCF Done:  E(RB3LYP) =  -688.748867297     A.U. after   13 cycles
 SCF Done:  E(RB3LYP) =  -688.750109919     A.U. after   12 cycles
 SCF Done:  E(RB3LYP) =  -688.750492015     A.U. after   12 cycles
 SCF Done:  E(RB3LYP) =  -688.750528809     A.U. after   12 cycles
 SCF Done:  E(RB3LYP) =  -688.750562238     A.U. after   10 cycles
 SCF Done:  E(RB3LYP) =  -688.750636619     A.U. after   10 cycles
 SCF Done:  E(RB3LYP) =  -688.750638332     A.U. after    8 cycles
 SCF Done:  E(RB3LYP) =  -688.750638233     A.U. after    9 cycles
 SCF Done:  E(RB3LYP) =  -688.750638715     A.U. after    8 cycles
 SCF Done:  E(RB3LYP) =  -688.750638727     A.U. after    6 cycles
 Optimization completed.
    -- Stationary point found.
 Normal termination of Gaussian 16 at Thu Dec 10 14:50:27 2020.

 --------------------------------------------------------------------
 #N Geom=AllCheck Guess=TCheck SCRF=Check GenChk RB3LYP/6-31G(d) Freq
 --------------------------------------------------------------------

 Structure from the checkpoint file:  "JID_5037.chk"
 -------------------------------
 CID_131464963_JID_5037_neutraal
 -------------------------------
 Charge =  0 Multiplicity = 1

 SCF Done:  E(RB3LYP) =  -688.750638727     A.U. after    1 cycles

  Exact polarizability: 128.184   1.171 139.418 -11.628  -0.063 114.729
 Approx polarizability: 182.286  -4.420 228.811 -24.677  14.182 185.145

                      1                      2                      3
                      A                      A                      A
 Frequencies --     51.5390                66.9001                92.8651
 Red. masses --      3.1499                 3.1562                 1.4515
 Frc consts  --      0.0049                 0.0083                 0.0074
 IR Inten    --      0.1358                 0.4516                 1.1122

                      4                      5                      6
                      A                      A                      A
 Frequencies --    137.8516               152.4958               175.4631
 Red. masses --      4.4750                 3.1756                 3.2441
 Frc consts  --      0.0501                 0.0435                 0.0588
 IR Inten    --      0.6994                 0.6675                 1.9982

                      7                      8                      9
                      A                      A                      A
 Frequencies --    195.7400               203.5591               271.1416
 Red. masses --      5.7567                 3.5939                 2.8878
 Frc consts  --      0.1300                 0.0877                 0.1251
 IR Inten    --      9.6993                 1.4600                 5.7088

                     10                     11                     12
                      A                      A                      A
 Frequencies --    295.4403               309.0362               356.7075
 Red. masses --      3.0205                 3.5634                 2.5859
 Frc consts  --      0.1553                 0.2005                 0.1939
 IR Inten    --      1.8575                 0.9186                 1.1686

                     13                     14                     15
                      A                      A                      A
 Frequencies --    403.3487               419.1816               436.1103
 Red. masses --      2.2410                 2.5846                 4.0123
 Frc consts  --      0.2148                 0.2676                 0.4496
 IR Inten    --      3.0741                 1.5380                 6.7419

                     16                     17                     18
                      A                      A                      A
 Frequencies --    450.8002               468.6013               514.7588
 Red. masses --      5.2779                 3.9728                 4.8784
 Frc consts  --      0.6319                 0.5140                 0.7616
 IR Inten    --      1.0779                 5.0866                10.1151

                     19                     20                     21
                      A                      A                      A
 Frequencies --    523.5192               534.1416               580.7208
 Red. masses --      3.4210                 2.2708                 3.3244
 Frc consts  --      0.5524                 0.3817                 0.6605
 IR Inten    --      4.9362                25.8908                 2.9411

                     22                     23                     24
                      A                      A                      A
 Frequencies --    633.1773               690.5088               756.8410
 Red. masses --      5.4472                 3.0299                 2.7650
 Frc consts  --      1.2867                 0.8512                 0.9332
 IR Inten    --     13.0461                 2.0240                54.0999

                     25                     26                     27
                      A                      A                      A
 Frequencies --    797.6298               807.0088               828.6748
 Red. masses --      1.6922                 2.3874                 2.0216
 Frc consts  --      0.6343                 0.9161                 0.8179
 IR Inten    --      5.8059                37.7138                 7.8055

                     28                     29                     30
                      A                      A                      A
 Frequencies --    839.2148               862.3579               891.4303
 Red. masses --      2.7638                 2.4480                 2.4354
 Frc consts  --      1.1468                 1.0726                 1.1402
 IR Inten    --     37.6212                 3.7230                 0.7629

                     31                     32                     33
                      A                      A                      A
 Frequencies --    899.1304               931.2427               939.4657
 Red. masses --      2.3277                 3.8614                 2.2460
 Frc consts  --      1.1087                 1.9730                 1.1679
 IR Inten    --      2.5682                15.8336                 5.6599

                     34                     35                     36
                      A                      A                      A
 Frequencies --    994.4099              1011.5501              1028.8535
 Red. masses --      1.9766                 1.3958                 1.4742
 Frc consts  --      1.1516                 0.8415                 0.9194
 IR Inten    --      4.4341                 0.0811                 0.4875

                     37                     38                     39
                      A                      A                      A
 Frequencies --   1049.4636              1066.0543              1073.7649
 Red. masses --      1.7073                 2.3989                 1.6751
 Frc consts  --      1.1079                 1.6063                 1.1379
 IR Inten    --     16.3904                21.9741                 4.7878

                     40                     41                     42
                      A                      A                      A
 Frequencies --   1084.9054              1117.6632              1140.2478
 Red. masses --      2.1076                 1.7210                 2.4970
 Frc consts  --      1.4616                 1.2666                 1.9128
 IR Inten    --     23.0872                 9.0893                15.0562

                     43                     44                     45
                      A                      A                      A
 Frequencies --   1157.9692              1170.8784              1198.3146
 Red. masses --      3.9452                 3.5994                 1.2253
 Frc consts  --      3.1168                 2.9074                 1.0367
 IR Inten    --      3.7151               205.8364                 2.2772

                     46                     47                     48
                      A                      A                      A
 Frequencies --   1221.3481              1229.8190              1244.0748
 Red. masses --      1.4702                 1.1353                 2.9987
 Frc consts  --      1.2921                 1.0116                 2.7345
 IR Inten    --      5.5854                 4.8155                16.0899

                     49                     50                     51
                      A                      A                      A
 Frequencies --   1266.2512              1299.0047              1306.0079
 Red. masses --      2.0615                 2.4526                 1.2532
 Frc consts  --      1.9475                 2.4383                 1.2594
 IR Inten    --     63.6811                 3.3598                 2.3344

                     52                     53                     54
                      A                      A                      A
 Frequencies --   1332.2952              1346.9541              1367.2905
 Red. masses --      1.2391                 1.3071                 1.5746
 Frc consts  --      1.2959                 1.3972                 1.7344
 IR Inten    --      3.5186                17.6858                 6.1557

                     55                     56                     57
                      A                      A                      A
 Frequencies --   1373.2428              1395.4534              1412.4181
 Red. masses --      1.2709                 1.3236                 1.4950
 Frc consts  --      1.4120                 1.5186                 1.7571
 IR Inten    --     21.9247                 5.2948                 0.9574

                     58                     59                     60
                      A                      A                      A
 Frequencies --   1425.7564              1435.8865              1443.2845
 Red. masses --      1.2631                 1.1752                 1.6642
 Frc consts  --      1.5128                 1.4276                 2.0425
 IR Inten    --     12.7370                 8.2461                16.0453

                     61                     62                     63
                      A                      A                      A
 Frequencies --   1458.0261              1488.9762              1502.8139
 Red. masses --      1.4036                 1.1092                 1.1023
 Frc consts  --      1.7580                 1.4488                 1.4668
 IR Inten    --      3.3539                15.6958                 5.8481

                     64                     65                     66
                      A                      A                      A
 Frequencies --   1503.9719              1505.6206              1520.0207
 Red. masses --      1.1526                 1.1222                 1.0704
 Frc consts  --      1.5360                 1.4988                 1.4571
 IR Inten    --     21.0823                21.5280                 1.0513

                     67                     68                     69
                      A                      A                      A
 Frequencies --   1532.3622              1541.2553              1612.9456
 Red. masses --      1.1267                 1.1005                 7.3193
 Frc consts  --      1.5588                 1.5402                11.2191
 IR Inten    --      0.1187                 2.2719                98.8175

                     70                     71                     72
                      A                      A                      A
 Frequencies --   1677.6601              1774.8812              2914.1584
 Red. masses --      6.8915                11.6183                 1.0779
 Frc consts  --     11.4281                21.5641                 5.3931
 IR Inten    --     63.7360               215.9923                14.8820

                     73                     74                     75
                      A                      A                      A
 Frequencies --   2965.4490              2971.4929              3055.4833
 Red. masses --      1.0714                 1.0697                 1.0700
 Frc consts  --      5.5510                 5.5647                 5.8855
 IR Inten    --     35.9259               120.2426                 3.4163

                     76                     77                     78
                      A                      A                      A
 Frequencies --   3056.7430              3070.9995              3078.4474
 Red. masses --      1.0712                 1.0374                 1.0890
 Frc consts  --      5.8970                 5.7646                 6.0805
 IR Inten    --     17.5031                 6.3335                47.3659

                     79                     80                     81
                      A                      A                      A
 Frequencies --   3084.3094              3088.4790              3122.7058
 Red. masses --      1.0872                 1.0879                 1.0963
 Frc consts  --      6.0935                 6.1140                 6.2985
 IR Inten    --     53.3050                59.8996                32.3748

                     82                     83                     84
                      A                      A                      A
 Frequencies --   3131.3191              3161.7465              3170.9020
 Red. masses --      1.0990                 1.0930                 1.1029
 Frc consts  --      6.3488                 6.4374                 6.5334
 IR Inten    --      3.7157                 1.9284                 5.3108

                     85                     86                     87
                      A                      A                      A
 Frequencies --   3186.2584              3218.0942              3498.8243
 Red. masses --      1.0887                 1.0956                 1.0747
 Frc consts  --      6.5119                 6.6849                 7.7511
 IR Inten    --     20.5901                11.4394                 1.0047

 - Thermochemistry -
 -------------------
 Temperature   298.150 Kelvin.  Pressure   1.00000 Atm.
 Atom     1 has atomic number  6 and mass  12.00000

 Molecular mass:   208.12118 amu.
 Principal axes and moments of inertia in atomic units:
                           1         2         3
     Eigenvalues --  2237.339213008.762053490.22614
           X            0.99994  -0.01076  -0.00350
           Y            0.01051   0.99792  -0.06368
           Z            0.00417   0.06363   0.99796
 This molecule is an asymmetric top.
 Rotational symmetry number  1.
 Warning -- assumption of classical behavior for rotation
           may cause significant error
 Rotational temperatures (Kelvin)      0.03871     0.02879     0.02482
 Rotational constants (GHZ):           0.80665     0.59983     0.51708
 Zero-point vibrational energy     697445.1 (Joules/Mol)
                                  166.69338 (Kcal/Mol)
 Warning -- explicit consideration of  21 degrees of freedom as
           vibrations may cause significant error
 Vibrational temperatures:     74.15    96.25   133.61   198.34   219.41
          (Kelvin)            252.45   281.63   292.88   390.11   425.07
                              444.63   513.22   580.33   603.11   627.47
                              648.60   674.21   740.62   753.23   768.51
                              835.53   911.00   993.49  1088.93  1147.61
                             1161.11  1192.28  1207.44  1240.74  1282.57
                             1293.65  1339.85  1351.68  1430.73  1455.39
                             1480.29  1509.94  1533.81  1544.91  1560.94
                             1608.07  1640.56  1666.06  1684.63  1724.11
                             1757.25  1769.44  1789.95  1821.85  1868.98
                             1879.05  1916.88  1937.97  1967.23  1975.79
                             2007.75  2032.15  2051.35  2065.92  2076.56
                             2097.77  2142.30  2162.21  2163.88  2166.25
                             2186.97  2204.73  2217.52  2320.67  2413.78
                             2553.66  4192.82  4266.62  4275.32  4396.16
                             4397.97  4418.48  4429.20  4437.63  4443.63
                             4492.88  4505.27  4549.05  4562.22  4584.32
                             4630.12  5034.03

 Zero-point correction=                           0.265643 (Hartree/Particle)
 Thermal correction to Energy=                    0.279129
 Thermal correction to Enthalpy=                  0.280073
 Thermal correction to Gibbs Free Energy=         0.225960
 Sum of electronic and zero-point Energies=           -688.484996
 Sum of electronic and thermal Energies=              -688.471510
 Sum of electronic and thermal Enthalpies=            -688.470565
 Sum of electronic and thermal Free Energies=         -688.524678

                     E (Thermal)             CV                S
                      KCal/Mol        Cal/Mol-Kelvin    Cal/Mol-Kelvin
 Total                  175.156             53.188            113.890
 Electronic               0.000              0.000              0.000
 Translational            0.889              2.981             41.903
 Rotational               0.889              2.981             31.530
 Vibrational            173.379             47.227             40.457
 Vibration     1          0.596              1.977              4.757
 Vibration     2          0.598              1.970              4.243
 Vibration     3          0.602              1.954              3.599
 Vibration     4          0.614              1.916              2.833
 Vibration     5          0.619              1.900              2.641
 Vibration     6          0.627              1.873              2.376
 Vibration     7          0.636              1.846              2.173
 Vibration     8          0.639              1.835              2.101
 Vibration     9          0.675              1.726              1.589
 Vibration    10          0.690              1.682              1.443
 Vibration    11          0.698              1.657              1.367
 Vibration    12          0.732              1.561              1.136
 Vibration    13          0.769              1.463              0.950
 Vibration    14          0.782              1.429              0.895
 Vibration    15          0.797              1.391              0.839
 Vibration    16          0.810              1.359              0.793
 Vibration    17          0.826              1.320              0.741
 Vibration    18          0.870              1.217              0.622
 Vibration    19          0.878              1.198              0.602
 Vibration    20          0.889              1.174              0.578
 Vibration    21          0.937              1.073              0.484

 Optimization completed.
    -- Stationary point found.
 Normal termination of Gaussian 16 at Thu Dec 10 15:01:31 2020.

 ----------------------------------------------------------------------
 # B3LYP/6-311++G(d,p) empiricaldispersion=gd3bj scf=xqc pop=npa geom=c
 heck
 ----------------------------------------------------------------------

 ---------------------------------------
 CID_131464963_JID_5037_Energie_neutraal
 ---------------------------------------
 Structure from the checkpoint file:  "JID_5037.chk"
 Charge =  0 Multiplicity = 1

 SCF Done:  E(RB3LYP) =  -688.944963526     A.U. after   16 cycles
 Normal termination of Gaussian 16 at Thu Dec 10 15:05:59 2020.

 ----------------------------------------------------------------------
 # B3LYP/6-311++G(d,p) empiricaldispersion=gd3bj scf=xqc pop=npa geom=c
 heck
 ----------------------------------------------------------------------

 -------------------------------------
 CID_131464963_JID_5037_Energie_kation
 -------------------------------------
 Structure from the checkpoint file:  "JID_5037.chk"
 Charge =  1 Multiplicity = 2

 SCF Done:  E(UB3LYP) =  -688.635766520     A.U. after   33 cycles
 SCF Done:  E(UB3LYP) =  -688.635766520     a.u. after    1 cycles
 Normal termination of Gaussian 16 at Thu Dec 10 15:19:18 2020.
 Gaussian 16:  ES64L-G16RevA.03 25-Dec-2016

 ----------------------------------------------------------------------
 # B3LYP/6-311++G(d,p) empiricaldispersion=gd3bj scf=xqc pop=npa geom=c
 heck
 ----------------------------------------------------------------------

 ------------------------------------
 CID_131464963_JID_5037_Energie_anion
 ------------------------------------
 Structure from the checkpoint file:  "JID_5037.chk"
 Charge = -1 Multiplicity = 2

                         Standard orientation:
 ---------------------------------------------------------------------
 Center     Atomic      Atomic             Coordinates (Angstroms)
 Number     Number       Type             X           Y           Z
 ---------------------------------------------------------------------
      1          6           0       -0.970237    2.629245   -0.580767
      2          6           0       -1.337997    1.249896   -0.101174
      3          7           0       -2.083311    1.146126    0.947958
      4          6           0       -2.482284   -0.125288    1.362272
      5          6           0       -2.202758   -1.294223    0.740356
      6          6           0       -1.345565   -1.320140   -0.442972
      7          8           0       -0.997230   -2.349648   -1.000540
      8          6           0       -0.982036    0.071540   -1.001418
      9          8           0        0.212417    0.176092   -1.733033
     10          6           0        1.548647   -0.006810   -1.193492
     11          6           0        1.829282   -1.335601   -0.471695
     12          6           0        1.535938   -1.307849    1.031245
     13          7           0        2.249161   -0.189898    1.651694
     14          6           0        1.756528    1.085713    1.134076
     15          6           0        2.074644    1.176031   -0.361550
     16          1           0       -1.857737    3.268212   -0.548488
     17          1           0       -0.559427    2.603569   -1.591359
     18          1           0       -0.225867    3.080116    0.083397
     19          1           0       -3.067843   -0.119888    2.278834
     20          1           0       -2.533088   -2.247135    1.141643
     21          1           0       -1.761887    0.182287   -1.784383
     22          1           0        2.113008   -0.020427   -2.130449
     23          1           0        1.289922   -2.145116   -0.964232
     24          1           0        2.904592   -1.521286   -0.586125
     25          1           0        0.447971   -1.249586    1.214922
     26          1           0        1.882023   -2.243055    1.484599
     27          1           0        2.116508   -0.220320    2.660180
     28          1           0        2.260537    1.901493    1.664815
     29          1           0        0.672242    1.209357    1.306814
     30          1           0        3.167372    1.162222   -0.459179
     31          1           0        1.724270    2.119323   -0.789237
 ---------------------------------------------------------------------

 SCF Done:  E(UB3LYP) =  -688.980101618     A.U. after   23 cycles

 The electronic state is 2-A.
 Alpha  occ. eigenvalues --  -18.98507 -18.92328 -14.18317 -14.14123 -10.10026
 Alpha  occ. eigenvalues --  -10.07775 -10.07367 -10.07322 -10.06630 -10.05025
 Alpha  occ. eigenvalues --  -10.04501 -10.03777 -10.03288 -10.03011  -9.99566
 Alpha  occ. eigenvalues --   -0.89678  -0.86015  -0.79610  -0.77348  -0.66665
 Alpha  occ. eigenvalues --   -0.63556  -0.62471  -0.59847  -0.55933  -0.51504
 Alpha  occ. eigenvalues --   -0.50737  -0.47135  -0.42466  -0.41411  -0.39968
 Alpha  occ. eigenvalues --   -0.36403  -0.35271  -0.34568  -0.33480  -0.31815
 Alpha  occ. eigenvalues --   -0.31483  -0.30529  -0.29610  -0.28264  -0.27025
 Alpha  occ. eigenvalues --   -0.26882  -0.26373  -0.24888  -0.24235  -0.23326
 Alpha  occ. eigenvalues --   -0.22975  -0.22052  -0.21332  -0.20034  -0.19664
 Alpha  occ. eigenvalues --   -0.16774  -0.14607  -0.11416  -0.09567  -0.09090
 Alpha  occ. eigenvalues --   -0.07696   0.02794
 Alpha virt. eigenvalues --    0.07998   0.09451   0.09606   0.10242   0.11143
 Alpha virt. eigenvalues --    0.11856   0.12107   0.12531   0.12839   0.13544
 Alpha virt. eigenvalues --    0.14239   0.14597   0.15369   0.15640   0.16149

  Beta  occ. eigenvalues --  -18.98439 -18.92007 -14.18310 -14.14243 -10.10012
  Beta  occ. eigenvalues --  -10.07829 -10.07359 -10.07144 -10.06616 -10.05026
  Beta  occ. eigenvalues --  -10.03890 -10.03778 -10.03053 -10.02915  -9.99461
  Beta  occ. eigenvalues --   -0.89497  -0.85458  -0.79595  -0.76906  -0.66608
  Beta  occ. eigenvalues --   -0.63494  -0.61881  -0.59506  -0.55773  -0.51234
  Beta  occ. eigenvalues --   -0.50720  -0.46590  -0.42196  -0.40879  -0.39912
  Beta  occ. eigenvalues --   -0.36159  -0.35114  -0.34385  -0.33351  -0.31510
  Beta  occ. eigenvalues --   -0.31141  -0.30120  -0.29558  -0.27954  -0.26954
  Beta  occ. eigenvalues --   -0.26655  -0.26255  -0.24772  -0.23969  -0.23178
  Beta  occ. eigenvalues --   -0.22503  -0.21763  -0.21268  -0.19151  -0.18334
  Beta  occ. eigenvalues --   -0.16517  -0.14513  -0.11336  -0.09240  -0.07740
  Beta  occ. eigenvalues --   -0.07164
  Beta virt. eigenvalues --    0.07970   0.09158   0.09574   0.09633   0.10367
  Beta virt. eigenvalues --    0.11132   0.11851   0.12091   0.12581   0.12982
  Beta virt. eigenvalues --    0.13736   0.14332   0.14914   0.15446   0.15906

 Mulliken charges and spin densities:
               1          2
     1  C   -0.498025  -0.064798
     2  C   -0.542551   0.482315
     3  N    0.050697  -0.051705
     4  C   -0.381323   0.275950
     5  C    0.292974   0.078081
     6  C   -0.552549   0.112195
     7  O   -0.340495   0.120797
     8  C    0.253327  -0.128580
     9  O   -0.060879  -0.042297
    10  C   -0.012171   0.058704
    11  C   -0.635406  -0.030109
    12  C   -0.181201  -0.012818
    13  N   -0.172145   0.003359
    14  C   -0.421243   0.021186
    15  C   -0.302750  -0.020815
    16  H    0.119367   0.031153
    17  H    0.150161   0.010970
    18  H    0.123213   0.022770
    19  H    0.120980  -0.023000
    20  H    0.122908  -0.005153
    21  H    0.095245   0.164273
    22  H    0.179935   0.006113
    23  H    0.228403  -0.001658
    24  H    0.104851  -0.001448
    25  H    0.207655   0.002967
    26  H    0.146955  -0.000165
    27  H    0.220963   0.000887
    28  H    0.147726   0.000069
    29  H    0.260075  -0.008443
    30  H    0.127712   0.000506
    31  H    0.147588  -0.001306
 Sum of Mulliken charges =  -1.00000   1.00000

 Dipole moment (field-independent basis, Debye):
    X=              4.9271    Y=              2.2534    Z=              1.1822  Tot=              5.5454
 Quadrupole moment (field-independent basis, Debye-Ang):
   XX=           -118.1955   YY=           -115.3655   ZZ=           -105.2360
   XY=              0.2586   XZ=              1.0193   YZ=             -7.7037

 Summary of Natural Population Analysis:

                                       Natural Population
                Natural  -----------------------------------------------
    Atom  No    Charge         Core      Valence    Rydberg      Total
 -----------------------------------------------------------------------
      C    1   -0.31466      0.99963     2.30972    0.00531     3.31466
      C    2    0.25370      0.99958     1.72832    0.01840     2.74630
      N    3   -0.30019      0.99965     2.78677    0.01378     3.80019
      C    4    0.09728      0.99954     1.88922    0.01396     2.90272
      C    5   -0.17106      0.99950     2.16210    0.00946     3.17106
      C    6    0.26665      0.99960     1.71077    0.02298     2.73335
      O    7   -0.28784      0.99987     3.28031    0.00765     4.28784
      C    8   -0.00322      0.99941     1.98624    0.01757     3.00322
      O    9   -0.30393      0.99988     3.29231    0.01175     4.30393
      C   10    0.07876      0.99951     1.90894    0.01278     2.92124
      C   11   -0.21566      0.99960     2.20860    0.00746     3.21566
      C   12   -0.09276      0.99963     2.08341    0.00972     3.09276
      N   13   -0.34878      0.99974     2.83459    0.01445     3.84878
      C   14   -0.09440      0.99963     2.08525    0.00952     3.09440
      C   15   -0.20861      0.99960     2.20166    0.00735     3.20861
      H   16    0.10663      0.00000     0.39246    0.00091     0.39337
      H   17    0.10121      0.00000     0.39740    0.00139     0.39879
      H   18    0.10468      0.00000     0.39435    0.00097     0.39532
      H   19    0.07381      0.00000     0.42495    0.00125     0.42619
      H   20    0.09397      0.00000     0.40409    0.00194     0.40603
      H   21    0.12326      0.00000     0.37510    0.00164     0.37674
      H   22    0.08631      0.00000     0.41249    0.00120     0.41369
      H   23    0.12534      0.00000     0.37350    0.00116     0.37466
      H   24    0.09242      0.00000     0.40625    0.00133     0.40758
      H   25    0.09673      0.00000     0.40187    0.00140     0.40327
      H   26    0.08839      0.00000     0.41057    0.00104     0.41161
      H   27    0.17011      0.00000     0.32793    0.00196     0.32989
      H   28    0.08680      0.00000     0.41212    0.00107     0.41320
      H   29    0.09601      0.00000     0.40244    0.00155     0.40399
      H   30    0.09533      0.00000     0.40329    0.00137     0.40467
      H   31    0.10371      0.00000     0.39523    0.00105     0.39629
 =======================================================================
   * Total *    0.00000     14.99437    40.80223    0.20340    56.00000

 Normal termination of Gaussian 16 at Thu Dec 10 15:28:24 2020.
