 Gaussian 16, Revision A.03,

 -----------------------------------------------------------
 # opt freq B3LYP/6-31G(d) empiricaldispersion=gd3bj scf=xqc
 -----------------------------------------------------------

 -------------------------------
 CID_110718281_JID_5648_neutraal
 -------------------------------
 Symbolic Z-matrix:
 Charge =  0 Multiplicity = 1

 SCF Done:  E(RB3LYP) =  -1047.65209611     A.U. after   15 cycles
 SCF Done:  E(RB3LYP) =  -1047.65726435     A.U. after   12 cycles
 SCF Done:  E(RB3LYP) =  -1047.65857304     A.U. after   12 cycles
 SCF Done:  E(RB3LYP) =  -1047.65956344     A.U. after   13 cycles
 SCF Done:  E(RB3LYP) =  -1047.66014012     A.U. after   12 cycles
 SCF Done:  E(RB3LYP) =  -1047.66081431     A.U. after   12 cycles
 SCF Done:  E(RB3LYP) =  -1047.66122160     A.U. after   12 cycles
 SCF Done:  E(RB3LYP) =  -1047.66152664     A.U. after   12 cycles
 SCF Done:  E(RB3LYP) =  -1047.66163347     A.U. after   11 cycles
 SCF Done:  E(RB3LYP) =  -1047.66171755     A.U. after   11 cycles
 SCF Done:  E(RB3LYP) =  -1047.66175425     A.U. after   10 cycles
 SCF Done:  E(RB3LYP) =  -1047.66175706     A.U. after    9 cycles
 SCF Done:  E(RB3LYP) =  -1047.66175798     A.U. after    8 cycles
 SCF Done:  E(RB3LYP) =  -1047.66175817     A.U. after    7 cycles
 SCF Done:  E(RB3LYP) =  -1047.66175824     A.U. after    7 cycles
 Optimization completed.
    -- Stationary point found.
 Normal termination of Gaussian 16 at Thu Dec 10 16:36:22 2020.

 --------------------------------------------------------------------
 #N Geom=AllCheck Guess=TCheck SCRF=Check GenChk RB3LYP/6-31G(d) Freq
 --------------------------------------------------------------------

 Structure from the checkpoint file:  "JID_5648.chk"
 -------------------------------
 CID_110718281_JID_5648_neutraal
 -------------------------------
 Charge =  0 Multiplicity = 1

 SCF Done:  E(RB3LYP) =  -1047.66175824     A.U. after    1 cycles

  Exact polarizability: 168.741  -0.912 113.135   3.202   5.809 119.704
 Approx polarizability: 216.141  -0.664 172.060   3.582  19.396 212.615

                      1                      2                      3
                      A                      A                      A
 Frequencies --     24.0326                31.9617                41.3549
 Red. masses --      4.0894                 4.9638                 4.6208
 Frc consts  --      0.0014                 0.0030                 0.0047
 IR Inten    --      0.1945                 0.0714                 0.4030

                      4                      5                      6
                      A                      A                      A
 Frequencies --     63.6914                79.6282               103.5568
 Red. masses --      1.0466                 4.7410                 2.3237
 Frc consts  --      0.0025                 0.0177                 0.0147
 IR Inten    --      0.2681                 1.3585                 2.3581

                      7                      8                      9
                      A                      A                      A
 Frequencies --    122.9668               148.8342               167.1150
 Red. masses --      2.1445                 1.7112                 4.1323
 Frc consts  --      0.0191                 0.0223                 0.0680
 IR Inten    --      1.1543                 1.5559                 0.6295

                     10                     11                     12
                      A                      A                      A
 Frequencies --    181.2463               209.9368               254.1813
 Red. masses --      4.7078                 4.1073                 3.7699
 Frc consts  --      0.0911                 0.1067                 0.1435
 IR Inten    --      3.6049                 0.1932                 0.9468

                     13                     14                     15
                      A                      A                      A
 Frequencies --    269.4181               299.1682               359.3371
 Red. masses --      4.2276                 3.2375                 4.1008
 Frc consts  --      0.1808                 0.1707                 0.3120
 IR Inten    --      2.6288                 5.9929                 3.1627

                     16                     17                     18
                      A                      A                      A
 Frequencies --    375.4435               394.2740               438.2129
 Red. masses --      2.5865                 3.7985                 3.1493
 Frc consts  --      0.2148                 0.3479                 0.3563
 IR Inten    --      1.7611                23.4510                 1.4829

                     19                     20                     21
                      A                      A                      A
 Frequencies --    511.2929               563.8770               572.0308
 Red. masses --      4.4163                 7.2953                 3.9985
 Frc consts  --      0.6802                 1.3667                 0.7709
 IR Inten    --      0.2944                 2.5636                 7.3782

                     22                     23                     24
                      A                      A                      A
 Frequencies --    612.7615               640.5643               658.1315
 Red. masses --      4.4432                 5.5884                 5.3796
 Frc consts  --      0.9829                 1.3510                 1.3729
 IR Inten    --      6.5390                 0.6212                13.0071

                     25                     26                     27
                      A                      A                      A
 Frequencies --    692.0070               749.6988               755.6059
 Red. masses --      5.4174                 1.6550                 3.1768
 Frc consts  --      1.5285                 0.5481                 1.0686
 IR Inten    --     13.5622                14.3737                37.4537

                     28                     29                     30
                      A                      A                      A
 Frequencies --    765.4665               809.5510               819.1124
 Red. masses --      1.7970                 1.5132                 1.2532
 Frc consts  --      0.6204                 0.5843                 0.4954
 IR Inten    --      3.1227                 0.0850                 5.4892

                     31                     32                     33
                      A                      A                      A
 Frequencies --    869.2606               908.4866               955.3657
 Red. masses --      4.0514                 3.2549                 4.2272
 Frc consts  --      1.8037                 1.5828                 2.2732
 IR Inten    --      4.0200                17.8531                15.7667

                     34                     35                     36
                      A                      A                      A
 Frequencies --    973.0461               985.1251              1019.9796
 Red. masses --      3.1392                 3.1712                 2.2635
 Frc consts  --      1.7512                 1.8133                 1.3874
 IR Inten    --     22.5166                10.4326                11.3253

                     37                     38                     39
                      A                      A                      A
 Frequencies --   1049.2379              1064.1708              1066.3588
 Red. masses --      3.2647                 1.4154                 1.3247
 Frc consts  --      2.1176                 0.9444                 0.8875
 IR Inten    --     15.0883                 1.1468                16.2833

                     40                     41                     42
                      A                      A                      A
 Frequencies --   1085.8332              1107.9448              1136.8952
 Red. masses --      1.3769                 2.0820                 1.1092
 Frc consts  --      0.9565                 1.5058                 0.8447
 IR Inten    --      1.9311                43.8296                 1.7924

                     43                     44                     45
                      A                      A                      A
 Frequencies --   1155.3109              1189.2735              1191.1848
 Red. masses --      1.6484                 1.2647                 2.7159
 Frc consts  --      1.2963                 1.0539                 2.2705
 IR Inten    --     20.9200                 1.1461                25.7543

                     46                     47                     48
                      A                      A                      A
 Frequencies --   1204.9381              1208.4181              1209.3948
 Red. masses --      2.8671                 1.8380                 1.8352
 Frc consts  --      2.4526                 1.5813                 1.5815
 IR Inten    --     61.1880                18.6755                14.1207

                     49                     50                     51
                      A                      A                      A
 Frequencies --   1224.5347              1271.2151              1299.7129
 Red. masses --      1.7466                 1.4752                 2.5777
 Frc consts  --      1.5431                 1.4046                 2.5655
 IR Inten    --     90.9859               115.9441               148.6658

                     52                     53                     54
                      A                      A                      A
 Frequencies --   1314.9011              1406.7221              1425.0119
 Red. masses --      2.4292                 2.0934                 1.8286
 Frc consts  --      2.4745                 2.4407                 2.1877
 IR Inten    --    108.7988                54.5420                44.3755

                     55                     56                     57
                      A                      A                      A
 Frequencies --   1434.3561              1477.0780              1479.3625
 Red. masses --      1.2956                 1.2237                 1.0908
 Frc consts  --      1.5705                 1.5730                 1.4066
 IR Inten    --      2.3653                36.5022                 2.2497

                     58                     59                     60
                      A                      A                      A
 Frequencies --   1497.2663              1504.7692              1508.0626
 Red. masses --      1.1721                 1.1723                 1.0446
 Frc consts  --      1.5482                 1.5640                 1.3997
 IR Inten    --     23.6370                17.1283                 9.3298

                     61                     62                     63
                      A                      A                      A
 Frequencies --   1511.3249              1518.9949              1531.8800
 Red. masses --      1.0490                 1.3483                 1.1153
 Frc consts  --      1.4117                 1.8329                 1.5421
 IR Inten    --      4.5800               124.1144                 9.0186

                     64                     65                     66
                      A                      A                      A
 Frequencies --   1536.8395              1563.6343              1596.7217
 Red. masses --      1.6020                 4.7385                 6.1656
 Frc consts  --      2.2293                 6.8259                 9.2615
 IR Inten    --     69.7054                10.5443                37.4694

                     67                     68                     69
                      A                      A                      A
 Frequencies --   1799.7974              3056.7005              3057.1362
 Red. masses --     10.7269                 1.0674                 1.0397
 Frc consts  --     20.4725                 5.8760                 5.7252
 IR Inten    --    400.3261                19.8733                23.0384

                     70                     71                     72
                      A                      A                      A
 Frequencies --   3076.8234              3112.1991              3141.8555
 Red. masses --      1.0289                 1.1016                 1.0930
 Frc consts  --      5.7391                 6.2866                 6.3568
 IR Inten    --     42.0401                10.4948                 4.5149

                     73                     74                     75
                      A                      A                      A
 Frequencies --   3152.8187              3158.3869              3159.3247
 Red. masses --      1.1078                 1.0566                 1.1009
 Frc consts  --      6.4878                 6.2099                 6.4740
 IR Inten    --     20.2258                15.8358                 4.7988

                     76                     77                     78
                      A                      A                      A
 Frequencies --   3162.1679              3177.5485              3197.8515
 Red. masses --      1.0617                 1.1075                 1.0893
 Frc consts  --      6.2547                 6.5885                 6.5634
 IR Inten    --     15.0186                17.4749                 8.3326

                     79                     80                     81
                      A                      A                      A
 Frequencies --   3255.6685              3266.2566              3291.0179
 Red. masses --      1.1131                 1.1115                 1.0943
 Frc consts  --      6.9516                 6.9868                 6.9829
 IR Inten    --      0.6394                 8.3149                 1.0179

 - Thermochemistry -
 -------------------
 Temperature   298.150 Kelvin.  Pressure   1.00000 Atm.
 Atom     1 has atomic number  6 and mass  12.00000

 Molecular mass:   226.07760 amu.
 Principal axes and moments of inertia in atomic units:
                           1         2         3
     Eigenvalues --  1702.558166447.504876903.48890
           X            0.99989   0.00647   0.01323
           Y           -0.00607   0.99952  -0.03045
           Z           -0.01342   0.03037   0.99945
 This molecule is an asymmetric top.
 Rotational symmetry number  1.
 Warning -- assumption of classical behavior for rotation
           may cause significant error
 Rotational temperatures (Kelvin)      0.05087     0.01343     0.01255
 Rotational constants (GHZ):           1.06002     0.27991     0.26142
 Zero-point vibrational energy     617647.7 (Joules/Mol)
                                  147.62133 (Kcal/Mol)
 Warning -- explicit consideration of  22 degrees of freedom as
           vibrations may cause significant error
 Vibrational temperatures:     34.58    45.99    59.50    91.64   114.57
          (Kelvin)            149.00   176.92   214.14   240.44   260.77
                              302.05   365.71   387.63   430.44   517.01
                              540.18   567.27   630.49   735.64   811.29
                              823.02   881.63   921.63   946.90   995.64
                             1078.65  1087.15  1101.34  1164.76  1178.52
                             1250.67  1307.11  1374.56  1400.00  1417.38
                             1467.52  1509.62  1531.10  1534.25  1562.27
                             1594.09  1635.74  1662.23  1711.10  1713.85
                             1733.64  1738.64  1740.05  1761.83  1829.00
                             1870.00  1891.85  2023.96  2050.27  2063.72
                             2125.19  2128.47  2154.23  2165.03  2169.77
                             2174.46  2185.49  2204.03  2211.17  2249.72
                             2297.33  2589.51  4397.91  4398.54  4426.86
                             4477.76  4520.43  4536.20  4544.21  4545.56
                             4549.65  4571.78  4601.00  4684.18  4699.41
                             4735.04

 Zero-point correction=                           0.235250 (Hartree/Particle)
 Thermal correction to Energy=                    0.250921
 Thermal correction to Enthalpy=                  0.251866
 Thermal correction to Gibbs Free Energy=         0.189703
 Sum of electronic and zero-point Energies=          -1047.426509
 Sum of electronic and thermal Energies=             -1047.410837
 Sum of electronic and thermal Enthalpies=           -1047.409893
 Sum of electronic and thermal Free Energies=        -1047.472055

                     E (Thermal)             CV                S
                      KCal/Mol        Cal/Mol-Kelvin    Cal/Mol-Kelvin
 Total                  157.456             56.244            130.833
 Electronic               0.000              0.000              0.000
 Translational            0.889              2.981             42.149
 Rotational               0.889              2.981             32.694
 Vibrational            155.678             50.283             55.990
 Vibration     1          0.593              1.985              6.270
 Vibration     2          0.594              1.983              5.704
 Vibration     3          0.594              1.981              5.193
 Vibration     4          0.597              1.972              4.339
 Vibration     5          0.600              1.963              3.900
 Vibration     6          0.605              1.946              3.386
 Vibration     7          0.610              1.930              3.053
 Vibration     8          0.618              1.904              2.687
 Vibration     9          0.624              1.883              2.468
 Vibration    10          0.630              1.865              2.316
 Vibration    11          0.642              1.826              2.044
 Vibration    12          0.665              1.756              1.701
 Vibration    13          0.674              1.729              1.600
 Vibration    14          0.692              1.675              1.422
 Vibration    15          0.734              1.556              1.125
 Vibration    16          0.746              1.522              1.057
 Vibration    17          0.761              1.482              0.984
 Vibration    18          0.798              1.387              0.832
 Vibration    19          0.866              1.225              0.630
 Vibration    20          0.920              1.109              0.516
 Vibration    21          0.928              1.092              0.500
 Vibration    22          0.972              1.005              0.428

                           ! Non-Optimized Parameters !
 Normal termination of Gaussian 16 at Thu Dec 10 16:45:56 2020.

 ----------------------------------------------------------------------
 # B3LYP/6-311++G(d,p) empiricaldispersion=gd3bj scf=xqc pop=npa geom=c
 heck
 ----------------------------------------------------------------------

 ---------------------------------------
 CID_110718281_JID_5648_Energie_neutraal
 ---------------------------------------
 Structure from the checkpoint file:  "JID_5648.chk"
 Charge =  0 Multiplicity = 1

 SCF Done:  E(RB3LYP) =  -1047.87050537     A.U. after   15 cycles
 Normal termination of Gaussian 16 at Thu Dec 10 16:50:28 2020.

 ----------------------------------------------------------------------
 # B3LYP/6-311++G(d,p) empiricaldispersion=gd3bj scf=xqc pop=npa geom=c
 heck
 ----------------------------------------------------------------------

 -------------------------------------
 CID_110718281_JID_5648_Energie_kation
 -------------------------------------
 Structure from the checkpoint file:  "JID_5648.chk"
 Charge =  1 Multiplicity = 2

 SCF Done:  E(UB3LYP) =  -1047.57017600     A.U. after   28 cycles
 Normal termination of Gaussian 16 at Thu Dec 10 17:02:53 2020.
 Gaussian 16:  ES64L-G16RevA.03 25-Dec-2016

 ----------------------------------------------------------------------
 # B3LYP/6-311++G(d,p) empiricaldispersion=gd3bj scf=xqc pop=npa geom=c
 heck
 ----------------------------------------------------------------------

 ------------------------------------
 CID_110718281_JID_5648_Energie_anion
 ------------------------------------
 Structure from the checkpoint file:  "JID_5648.chk"
 Charge = -1 Multiplicity = 2

                         Standard orientation:
 ---------------------------------------------------------------------
 Center     Atomic      Atomic             Coordinates (Angstroms)
 Number     Number       Type             X           Y           Z
 ---------------------------------------------------------------------
      1          6           0        4.900550    0.296160    0.524976
      2          6           0        3.444888    0.183497    0.195816
      3          7           0        2.480504    0.398947    1.042531
      4          6           0        1.238390    0.226053    0.460872
      5          6           0        1.252742   -0.136487   -0.854091
      6         16           0        2.890206   -0.267201   -1.417964
      7          6           0        0.016217    0.466088    1.308637
      8          7           0       -1.215061    0.001367    0.680574
      9          6           0       -1.378486   -1.440196    0.600789
     10          6           0       -2.675596   -2.185937    0.752327
     11          6           0       -1.934215   -2.200146   -0.573842
     12          6           0       -2.057520    0.958109    0.183614
     13          8           0       -1.870967    2.161710    0.253928
     14          8           0       -3.155476    0.414211   -0.409249
     15          6           0       -4.080025    1.374306   -0.936023
     16          1           0        5.425918   -0.650391    0.354940
     17          1           0        5.390917    1.063277   -0.084984
     18          1           0        4.997431    0.569524    1.577957
     19          1           0        0.410401   -0.331486   -1.500852
     20          1           0        0.145636   -0.036127    2.275180
     21          1           0       -0.097620    1.533586    1.505828
     22          1           0       -0.521446   -1.906199    1.073938
     23          1           0       -2.668861   -3.079520    1.370590
     24          1           0       -3.592024   -1.610730    0.788135
     25          1           0       -2.382063   -1.633889   -1.381070
     26          1           0       -1.410140   -3.101869   -0.878965
     27          1           0       -4.461671    2.019644   -0.140979
     28          1           0       -3.600621    1.995520   -1.696585
     29          1           0       -4.887386    0.785650   -1.373330
 ---------------------------------------------------------------------

 SCF Done:  E(UB3LYP) =  -1047.85694490     A.U. after   33 cycles
 SCF Done:  E(UB3LYP) =  -1047.85694490     a.u. after    1 cycles

 The electronic state is 2-A.
 Alpha  occ. eigenvalues --  -88.77152 -19.06950 -18.99919 -14.25506 -14.20429
 Alpha  occ. eigenvalues --  -10.22265 -10.12814 -10.12655 -10.12533 -10.11436
 Alpha  occ. eigenvalues --  -10.10209 -10.08834 -10.08249 -10.07823 -10.07790
 Alpha  occ. eigenvalues --   -7.85793  -5.82066  -5.81721  -5.81401  -1.01543
 Alpha  occ. eigenvalues --   -0.92093  -0.86418  -0.85181  -0.75729  -0.68993
 Alpha  occ. eigenvalues --   -0.68729  -0.64906  -0.61177  -0.56492  -0.55442
 Alpha  occ. eigenvalues --   -0.51197  -0.48818  -0.46136  -0.43707  -0.43157
 Alpha  occ. eigenvalues --   -0.41886  -0.39821  -0.38435  -0.37483  -0.35743
 Alpha  occ. eigenvalues --   -0.34902  -0.34546  -0.33721  -0.32868  -0.31533
 Alpha  occ. eigenvalues --   -0.30804  -0.30076  -0.28073  -0.27669  -0.27373
 Alpha  occ. eigenvalues --   -0.26413  -0.26202  -0.24290  -0.21115  -0.21014
 Alpha  occ. eigenvalues --   -0.18955  -0.17941  -0.17380  -0.14126  -0.13514
 Alpha  occ. eigenvalues --    0.04423
 Alpha virt. eigenvalues --    0.05800   0.06690   0.06694   0.08120   0.08628
 Alpha virt. eigenvalues --    0.09434   0.09822   0.10069   0.10287   0.10641
 Alpha virt. eigenvalues --    0.11108   0.12090   0.12161   0.12351   0.12689

  Beta  occ. eigenvalues --  -88.77138 -19.06946 -18.99914 -14.25506 -14.20404
  Beta  occ. eigenvalues --  -10.22265 -10.12619 -10.12612 -10.12526 -10.11432
  Beta  occ. eigenvalues --  -10.10205 -10.08739 -10.08242 -10.07805 -10.07776
  Beta  occ. eigenvalues --   -7.85780  -5.82062  -5.81717  -5.81355  -1.01534
  Beta  occ. eigenvalues --   -0.92085  -0.86345  -0.85099  -0.75712  -0.68879
  Beta  occ. eigenvalues --   -0.68584  -0.64835  -0.61124  -0.56399  -0.55416
  Beta  occ. eigenvalues --   -0.51151  -0.48694  -0.46070  -0.43574  -0.43131
  Beta  occ. eigenvalues --   -0.41832  -0.39793  -0.38379  -0.37437  -0.35693
  Beta  occ. eigenvalues --   -0.34797  -0.34331  -0.33664  -0.32791  -0.31481
  Beta  occ. eigenvalues --   -0.30759  -0.29995  -0.28013  -0.27643  -0.27153
  Beta  occ. eigenvalues --   -0.26376  -0.26109  -0.24253  -0.21092  -0.21000
  Beta  occ. eigenvalues --   -0.18936  -0.17597  -0.17321  -0.14114  -0.12960
  Beta virt. eigenvalues --    0.06616   0.06876   0.07364   0.07774   0.08322
  Beta virt. eigenvalues --    0.08855   0.09752   0.10065   0.10462   0.10658
  Beta virt. eigenvalues --    0.10971   0.11357   0.12117   0.12135   0.12508

 Mulliken charges and spin densities:
               1          2
     1  C    1.342107  -1.483807
     2  C   -0.334066   0.873624
     3  N    0.045145   0.069924
     4  C   -0.762592  -0.557039
     5  C    0.556209   0.543978
     6  S   -0.315881  -0.275530
     7  C   -1.097854   0.166959
     8  N    0.207753  -0.117627
     9  C   -1.059549   1.242762
    10  C    0.504004  -0.923897
    11  C    0.512411  -1.022413
    12  C    0.073838  -0.147642
    13  O   -0.317747   0.019932
    14  O   -0.204646   0.068542
    15  C    0.980147  -1.180458
    16  H   -0.391158   0.569576
    17  H    0.087077   0.065251
    18  H    0.040593   0.117799
    19  H    0.007122   0.287003
    20  H    0.102551   0.102469
    21  H    0.211576   0.022414
    22  H   -0.151995   0.371476
    23  H   -0.161912   0.307732
    24  H   -0.049705   0.225993
    25  H    0.141790   0.030893
    26  H   -0.152016   0.305292
    27  H   -0.189515   0.368171
    28  H   -0.135411   0.311769
    29  H   -0.488279   0.636855
 Sum of Mulliken charges =  -1.00000   1.00000

 Dipole moment (field-independent basis, Debye):
    X=              1.8329    Y=              0.9695    Z=              0.5578  Tot=              2.1472
 Quadrupole moment (field-independent basis, Debye-Ang):
   XX=           -192.0312   YY=           -139.2025   ZZ=           -122.3766
   XY=              8.9134   XZ=            -10.8335   YZ=              1.1795

 Summary of Natural Population Analysis:

                                       Natural Population
                Natural  -----------------------------------------------
    Atom  No    Charge         Core      Valence    Rydberg      Total
 -----------------------------------------------------------------------
      C    1   -0.30924      0.99961     2.30329    0.00634     3.30924
      C    2    0.07279      0.99964     1.91025    0.01733     2.92721
      N    3   -0.25257      0.99963     2.74192    0.01103     3.75257
      C    4    0.05507      0.99947     1.93157    0.01389     2.94493
      C    5   -0.19388      0.99945     2.18528    0.00915     3.19388
      S    6    0.17715      4.99944     2.80455    0.01886     7.82285
      C    7   -0.09072      0.99956     2.08060    0.01056     3.09072
      N    8   -0.25827      0.99963     2.74758    0.01106     3.75827
      C    9   -0.01272      0.99956     2.00039    0.01277     3.01272
      C   10   -0.20257      0.99962     2.19390    0.00905     3.20257
      C   11   -0.20450      0.99963     2.19692    0.00796     3.20450
      C   12    0.46788      0.99965     1.50773    0.02474     2.53212
      O   13   -0.33399      0.99987     3.32913    0.00498     4.33399
      O   14   -0.29084      0.99987     3.28161    0.00936     4.29084
      C   15   -0.09968      0.99959     2.09111    0.00898     3.09968
      H   16    0.11165      0.00000     0.38510    0.00324     0.38835
      H   17    0.10416      0.00000     0.39501    0.00083     0.39584
      H   18    0.11203      0.00000     0.38669    0.00128     0.38797
      H   19    0.11460      0.00000     0.38398    0.00142     0.38540
      H   20    0.10053      0.00000     0.39805    0.00142     0.39947
      H   21    0.12245      0.00000     0.37623    0.00132     0.37755
      H   22    0.10750      0.00000     0.39097    0.00153     0.39250
      H   23    0.10158      0.00000     0.39737    0.00105     0.39842
      H   24    0.11236      0.00000     0.38635    0.00129     0.38764
      H   25    0.11148      0.00000     0.38707    0.00145     0.38852
      H   26    0.10198      0.00000     0.39689    0.00113     0.39802
      H   27    0.09070      0.00000     0.40819    0.00111     0.40930
      H   28    0.09162      0.00000     0.40720    0.00118     0.40838
      H   29    0.09346      0.00000     0.40456    0.00198     0.40654
 =======================================================================
   * Total *   -0.00000     18.99420    40.80950    0.19630    60.00000

 Normal termination of Gaussian 16 at Thu Dec 10 17:18:41 2020.
