 Gaussian 16, Revision A.03,

 -----------------------------------------------------------
 # opt freq B3LYP/6-31G(d) empiricaldispersion=gd3bj scf=xqc
 -----------------------------------------------------------

 -------------------------------
 CID_139515005_JID_6883_neutraal
 -------------------------------
 Symbolic Z-matrix:
 Charge =  0 Multiplicity = 1

 SCF Done:  E(RB3LYP) =  -650.103761592     A.U. after   15 cycles
 SCF Done:  E(RB3LYP) =  -650.131994861     A.U. after   13 cycles
 SCF Done:  E(RB3LYP) =  -650.147958952     A.U. after   14 cycles
 SCF Done:  E(RB3LYP) =  -650.149440444     A.U. after   12 cycles
 SCF Done:  E(RB3LYP) =  -650.150430961     A.U. after   13 cycles
 SCF Done:  E(RB3LYP) =  -650.151248351     A.U. after   13 cycles
 SCF Done:  E(RB3LYP) =  -650.150984369     A.U. after   13 cycles
 SCF Done:  E(RB3LYP) =  -650.151535161     A.U. after   12 cycles
 SCF Done:  E(RB3LYP) =  -650.151811877     A.U. after   12 cycles
 SCF Done:  E(RB3LYP) =  -650.151891616     A.U. after   12 cycles
 SCF Done:  E(RB3LYP) =  -650.151955486     A.U. after   10 cycles
 SCF Done:  E(RB3LYP) =  -650.151959217     A.U. after   10 cycles
 SCF Done:  E(RB3LYP) =  -650.151959985     A.U. after    8 cycles
 SCF Done:  E(RB3LYP) =  -650.151960278     A.U. after    8 cycles
 SCF Done:  E(RB3LYP) =  -650.151960389     A.U. after    8 cycles
 SCF Done:  E(RB3LYP) =  -650.151960422     A.U. after    7 cycles
 Optimization completed.
    -- Stationary point found.
 Normal termination of Gaussian 16 at Fri Dec 11 01:01:01 2020.

 --------------------------------------------------------------------
 #N Geom=AllCheck Guess=TCheck SCRF=Check GenChk RB3LYP/6-31G(d) Freq
 --------------------------------------------------------------------

 Structure from the checkpoint file:  "JID_6883.chk"
 -------------------------------
 CID_139515005_JID_6883_neutraal
 -------------------------------
 Charge =  0 Multiplicity = 1

 SCF Done:  E(RB3LYP) =  -650.151960422     A.U. after    1 cycles

  Exact polarizability: 215.169   4.652 199.751   9.589   4.961  89.120
 Approx polarizability: 323.702   3.071 352.599  26.443  17.950 151.658

                      1                      2                      3
                      A                      A                      A
 Frequencies --     44.3341                61.9047                92.8539
 Red. masses --      4.5024                 4.4517                 3.3926
 Frc consts  --      0.0052                 0.0101                 0.0172
 IR Inten    --      1.8256                 1.2312                 1.4602

                      4                      5                      6
                      A                      A                      A
 Frequencies --    118.5113               132.3795               157.9084
 Red. masses --      2.7240                 1.1293                 3.5680
 Frc consts  --      0.0225                 0.0117                 0.0524
 IR Inten    --      0.1541                 0.1856                 1.0281

                      7                      8                      9
                      A                      A                      A
 Frequencies --    166.8534               201.1775               250.3335
 Red. masses --      3.0381                 2.9043                 3.5316
 Frc consts  --      0.0498                 0.0693                 0.1304
 IR Inten    --      1.5337                 1.6904                 3.4670

                     10                     11                     12
                      A                      A                      A
 Frequencies --    260.0444               295.5084               323.1625
 Red. masses --      3.6300                 3.6707                 3.5157
 Frc consts  --      0.1446                 0.1889                 0.2163
 IR Inten    --      1.5047                 3.1971                 1.1883

                     13                     14                     15
                      A                      A                      A
 Frequencies --    363.0536               405.5934               456.1739
 Red. masses --      3.2277                 4.4844                 4.4460
 Frc consts  --      0.2507                 0.4346                 0.5451
 IR Inten    --      0.1517                 1.5978                 2.1762

                     16                     17                     18
                      A                      A                      A
 Frequencies --    468.8371               503.2973               515.7060
 Red. masses --      4.7575                 6.0654                 3.8420
 Frc consts  --      0.6161                 0.9052                 0.6020
 IR Inten    --      8.0315                 1.1232                 1.0317

                     19                     20                     21
                      A                      A                      A
 Frequencies --    547.5388               574.4033               602.5426
 Red. masses --      4.4875                 4.5222                 3.9933
 Frc consts  --      0.7927                 0.8791                 0.8542
 IR Inten    --      8.3440                 2.2405                 0.6736

                     22                     23                     24
                      A                      A                      A
 Frequencies --    642.0813               679.3380               701.3153
 Red. masses --      3.7378                 2.5420                 4.2912
 Frc consts  --      0.9079                 0.6912                 1.2435
 IR Inten    --      2.6103                 3.5085                 9.0770

                     25                     26                     27
                      A                      A                      A
 Frequencies --    720.8300               734.9312               801.5842
 Red. masses --      4.3852                 6.2061                 2.5377
 Frc consts  --      1.3425                 1.9750                 0.9607
 IR Inten    --      7.2754                 8.8026                 8.5501

                     28                     29                     30
                      A                      A                      A
 Frequencies --    823.4945               879.2598               924.2074
 Red. masses --      2.2191                 5.5085                 1.3677
 Frc consts  --      0.8866                 2.5091                 0.6883
 IR Inten    --     13.5874                 4.1607                 3.8077

                     31                     32                     33
                      A                      A                      A
 Frequencies --    943.1168               950.8921               956.9324
 Red. masses --      2.5424                 1.6545                 1.3332
 Frc consts  --      1.3324                 0.8814                 0.7193
 IR Inten    --     27.0079                16.4509                 3.4848

                     34                     35                     36
                      A                      A                      A
 Frequencies --    960.2451               968.4485               984.1561
 Red. masses --      1.5572                 2.7487                 1.6714
 Frc consts  --      0.8460                 1.5189                 0.9538
 IR Inten    --     23.1473                17.0943                 9.1620

                     37                     38                     39
                      A                      A                      A
 Frequencies --   1018.7648              1034.9552              1045.4003
 Red. masses --      1.1698                 1.1051                 1.2893
 Frc consts  --      0.7153                 0.6974                 0.8302
 IR Inten    --      0.0632                12.6595                 0.1451

                     40                     41                     42
                      A                      A                      A
 Frequencies --   1064.3441              1073.2648              1102.4076
 Red. masses --      1.9518                 1.5325                 1.3191
 Frc consts  --      1.3027                 1.0401                 0.9445
 IR Inten    --      4.3523                 4.2116                 8.7424

                     43                     44                     45
                      A                      A                      A
 Frequencies --   1133.3378              1194.8682              1202.8981
 Red. masses --      3.5810                 1.4018                 2.2883
 Frc consts  --      2.7100                 1.1792                 1.9508
 IR Inten    --     21.4762                 0.8098                15.3470

                     46                     47                     48
                      A                      A                      A
 Frequencies --   1239.0379              1251.2504              1277.4178
 Red. masses --      2.9154                 3.9185                 2.8106
 Frc consts  --      2.6370                 3.6146                 2.7022
 IR Inten    --     12.4214                 2.8057                 0.2543

                     49                     50                     51
                      A                      A                      A
 Frequencies --   1329.0461              1329.8905              1374.1484
 Red. masses --      1.9226                 2.5910                 4.3058
 Frc consts  --      2.0009                 2.6999                 4.7904
 IR Inten    --     35.6753                37.5583                 0.6009

                     52                     53                     54
                      A                      A                      A
 Frequencies --   1391.8581              1417.5779              1424.6500
 Red. masses --      2.0710                 1.4410                 3.4206
 Frc consts  --      2.3638                 1.7061                 4.0904
 IR Inten    --      9.2667                12.2685                 0.9548

                     55                     56                     57
                      A                      A                      A
 Frequencies --   1443.2861              1468.3593              1487.2417
 Red. masses --      1.3050                 2.5414                 1.3620
 Frc consts  --      1.6016                 3.2284                 1.7750
 IR Inten    --      0.2595                42.5428                 8.9440

                     58                     59                     60
                      A                      A                      A
 Frequencies --   1503.6148              1520.3368              1530.9420
 Red. masses --      1.0511                 1.1673                 1.1326
 Frc consts  --      1.4001                 1.5897                 1.5640
 IR Inten    --      9.6492                14.1149                15.3756

                     61                     62                     63
                      A                      A                      A
 Frequencies --   1570.0103              1579.5574              1651.2174
 Red. masses --      5.9176                 3.8685                 6.6676
 Frc consts  --      8.5942                 5.6868                10.7110
 IR Inten    --      1.6814                52.2949                 6.2071

                     64                     65                     66
                      A                      A                      A
 Frequencies --   1696.0695              1731.8563              1760.6320
 Red. masses --      4.6830                 7.3104                11.0687
 Frc consts  --      7.9371                12.9185                20.2155
 IR Inten    --     31.1796               138.5882                23.4717

                     67                     68                     69
                      A                      A                      A
 Frequencies --   3043.2828              3068.9399              3098.5176
 Red. masses --      1.0400                 1.0491                 1.0949
 Frc consts  --      5.6751                 5.8219                 6.1936
 IR Inten    --     31.3778                98.3761                15.0902

                     70                     71                     72
                      A                      A                      A
 Frequencies --   3103.9568              3132.7641              3134.5202
 Red. masses --      1.0878                 1.1034                 1.1169
 Frc consts  --      6.1749                 6.3801                 6.4656
 IR Inten    --     44.0132                18.3667                24.9395

                     73                     74                     75
                      A                      A                      A
 Frequencies --   3163.0922              3182.8324              3183.1341
 Red. masses --      1.0599                 1.0904                 1.0883
 Frc consts  --      6.2480                 6.5082                 6.4972
 IR Inten    --     11.8384                49.3975                 1.4588

                     76                     77                     78
                      A                      A                      A
 Frequencies --   3209.1757              3211.2761              3249.7646
 Red. masses --      1.0945                 1.0923                 1.1149
 Frc consts  --      6.6415                 6.6366                 6.9373
 IR Inten    --     18.2020                 1.4422                11.3249

 - Thermochemistry -
 -------------------
 Temperature   298.150 Kelvin.  Pressure   1.00000 Atm.
 Atom     1 has atomic number  6 and mass  12.00000

 Molecular mass:   208.10005 amu.
 Principal axes and moments of inertia in atomic units:
                           1         2         3
     Eigenvalues --  2451.269113621.694365528.84031
           X            1.00000   0.00021  -0.00050
           Y           -0.00021   0.99999  -0.00481
           Z            0.00050   0.00481   0.99999
 This molecule is an asymmetric top.
 Rotational symmetry number  1.
 Warning -- assumption of classical behavior for rotation
           may cause significant error
 Rotational temperatures (Kelvin)      0.03533     0.02392     0.01567
 Rotational constants (GHZ):           0.73625     0.49831     0.32642
 Zero-point vibrational energy     585227.8 (Joules/Mol)
                                  139.87280 (Kcal/Mol)
 Warning -- explicit consideration of  21 degrees of freedom as
           vibrations may cause significant error
 Vibrational temperatures:     63.79    89.07   133.60   170.51   190.46
          (Kelvin)            227.19   240.06   289.45   360.17   374.15
                              425.17   464.96   522.35   583.56   656.33
                              674.55   724.13   741.99   787.79   826.44
                              866.92   923.81   977.42  1009.04  1037.11
                             1057.40  1153.30  1184.82  1265.06  1329.73
                             1356.93  1368.12  1376.81  1381.58  1393.38
                             1415.98  1465.78  1489.07  1504.10  1531.35
                             1544.19  1586.12  1630.62  1719.15  1730.70
                             1782.70  1800.27  1837.92  1912.20  1913.42
                             1977.09  2002.57  2039.58  2049.75  2076.57
                             2112.64  2139.81  2163.37  2187.43  2202.68
                             2258.89  2272.63  2375.73  2440.27  2491.75
                             2533.16  4378.61  4415.52  4458.08  4465.90
                             4507.35  4509.88  4550.98  4579.39  4579.82
                             4617.29  4620.31  4675.69

 Zero-point correction=                           0.222901 (Hartree/Particle)
 Thermal correction to Energy=                    0.236670
 Thermal correction to Enthalpy=                  0.237614
 Thermal correction to Gibbs Free Energy=         0.182171
 Sum of electronic and zero-point Energies=           -649.929059
 Sum of electronic and thermal Energies=              -649.915290
 Sum of electronic and thermal Enthalpies=            -649.914346
 Sum of electronic and thermal Free Energies=         -649.969789

                     E (Thermal)             CV                S
                      KCal/Mol        Cal/Mol-Kelvin    Cal/Mol-Kelvin
 Total                  148.513             53.045            116.689
 Electronic               0.000              0.000              0.000
 Translational            0.889              2.981             41.902
 Rotational               0.889              2.981             32.262
 Vibrational            146.735             47.083             42.525
 Vibration     1          0.595              1.980              5.055
 Vibration     2          0.597              1.972              4.396
 Vibration     3          0.602              1.954              3.599
 Vibration     4          0.609              1.934              3.125
 Vibration     5          0.612              1.921              2.911
 Vibration     6          0.621              1.894              2.575
 Vibration     7          0.624              1.883              2.471
 Vibration     8          0.638              1.838              2.122
 Vibration     9          0.663              1.762              1.728
 Vibration    10          0.668              1.746              1.661
 Vibration    11          0.690              1.682              1.442
 Vibration    12          0.708              1.629              1.294
 Vibration    13          0.737              1.548              1.109
 Vibration    14          0.771              1.458              0.942
 Vibration    15          0.814              1.347              0.777
 Vibration    16          0.826              1.319              0.741
 Vibration    17          0.859              1.243              0.650
 Vibration    18          0.871              1.215              0.620
 Vibration    19          0.903              1.145              0.549
 Vibration    20          0.931              1.087              0.496
 Vibration    21          0.961              1.026              0.445

                           ! Non-Optimized Parameters !
 Normal termination of Gaussian 16 at Fri Dec 11 01:10:02 2020.

 ----------------------------------------------------------------------
 # B3LYP/6-311++G(d,p) empiricaldispersion=gd3bj scf=xqc pop=npa geom=c
 heck
 ----------------------------------------------------------------------

 ---------------------------------------
 CID_139515005_JID_6883_Energie_neutraal
 ---------------------------------------
 Structure from the checkpoint file:  "JID_6883.chk"
 Charge =  0 Multiplicity = 1

 SCF Done:  E(RB3LYP) =  -650.312706798     A.U. after   15 cycles
 Normal termination of Gaussian 16 at Fri Dec 11 01:13:18 2020.

 ----------------------------------------------------------------------
 # B3LYP/6-311++G(d,p) empiricaldispersion=gd3bj scf=xqc pop=npa geom=c
 heck
 ----------------------------------------------------------------------

 -------------------------------------
 CID_139515005_JID_6883_Energie_kation
 -------------------------------------
 Structure from the checkpoint file:  "JID_6883.chk"
 Charge =  1 Multiplicity = 2

 SCF Done:  E(UB3LYP) =  -650.043050868     A.U. after   21 cycles
 Normal termination of Gaussian 16 at Fri Dec 11 01:19:37 2020.
 Gaussian 16:  ES64L-G16RevA.03 25-Dec-2016

 ----------------------------------------------------------------------
 # B3LYP/6-311++G(d,p) empiricaldispersion=gd3bj scf=xqc pop=npa geom=c
 heck
 ----------------------------------------------------------------------

 ------------------------------------
 CID_139515005_JID_6883_Energie_anion
 ------------------------------------
 Structure from the checkpoint file:  "JID_6883.chk"
 Charge = -1 Multiplicity = 2

                         Standard orientation:
 ---------------------------------------------------------------------
 Center     Atomic      Atomic             Coordinates (Angstroms)
 Number     Number       Type             X           Y           Z
 ---------------------------------------------------------------------
      1          6           0       -2.371676    2.645318   -0.128198
      2          6           0       -1.024495    1.980736   -0.023383
      3          6           0       -0.884827    0.645113   -0.401564
      4          6           0        0.398269    0.000134   -0.320599
      5          7           0        0.487035   -1.303282   -0.717223
      6          6           0        1.642739   -1.953966   -0.664394
      7          6           0        2.763508   -1.261682   -0.191190
      8          6           0        4.043723   -0.626533    0.284858
      9          6           0        2.689670    0.013195    0.195236
     10          6           0        1.518218    0.777197    0.174748
     11          6           0        1.341887    2.121143    0.570768
     12          6           0        0.094222    2.693225    0.469876
     13          7           0       -1.985188    0.002495   -0.978504
     14          6           0       -2.497784   -1.068170   -0.503229
     15          6           0       -2.161346   -1.758732    0.741273
     16          6           0       -2.806194   -2.868170    1.122091
     17          1           0       -2.285705    3.732013   -0.033604
     18          1           0       -3.056565    2.292914    0.654041
     19          1           0       -2.843029    2.402506   -1.086643
     20          1           0        1.645000   -2.989667   -0.996642
     21          1           0        4.450835   -0.894795    1.263384
     22          1           0        4.816949   -0.357946   -0.439813
     23          1           0        2.191716    2.682738    0.945719
     24          1           0       -0.049469    3.728317    0.769577
     25          1           0       -3.318433   -1.508464   -1.078573
     26          1           0       -1.378544   -1.328221    1.358001
     27          1           0       -2.572962   -3.379629    2.050915
     28          1           0       -3.588201   -3.307114    0.505960
 ---------------------------------------------------------------------

 SCF Done:  E(UB3LYP) =  -650.325561067     A.U. after   24 cycles

 The electronic state is 2-A.
 Alpha  occ. eigenvalues --  -14.15258 -14.15138 -10.09212 -10.06949 -10.06729
 Alpha  occ. eigenvalues --  -10.05690 -10.05648 -10.05059 -10.04040 -10.03947
 Alpha  occ. eigenvalues --  -10.03807 -10.03794 -10.03426 -10.03412 -10.03318
 Alpha  occ. eigenvalues --  -10.02405  -0.80759  -0.77858  -0.73995  -0.70406
 Alpha  occ. eigenvalues --   -0.64841  -0.63553  -0.60208  -0.56983  -0.54318
 Alpha  occ. eigenvalues --   -0.50296  -0.47877  -0.46061  -0.45045  -0.41823
 Alpha  occ. eigenvalues --   -0.38344  -0.37379  -0.35648  -0.33954  -0.33270
 Alpha  occ. eigenvalues --   -0.31807  -0.30847  -0.30109  -0.29049  -0.27977
 Alpha  occ. eigenvalues --   -0.26237  -0.25795  -0.24199  -0.23828  -0.23075
 Alpha  occ. eigenvalues --   -0.22399  -0.20402  -0.19507  -0.16776  -0.16371
 Alpha  occ. eigenvalues --   -0.12772  -0.12632  -0.11182  -0.10891  -0.06847
 Alpha  occ. eigenvalues --    0.04029
 Alpha virt. eigenvalues --    0.07697   0.08304   0.09024   0.09380   0.10361
 Alpha virt. eigenvalues --    0.10759   0.11039   0.11209   0.11747   0.12307
 Alpha virt. eigenvalues --    0.13197   0.13486   0.14248   0.14492   0.15068

  Beta  occ. eigenvalues --  -14.14992 -14.14976 -10.09224 -10.06827 -10.06772
  Beta  occ. eigenvalues --  -10.05705 -10.05441 -10.04875 -10.04029 -10.03809
  Beta  occ. eigenvalues --  -10.03798 -10.03747 -10.03362 -10.03263 -10.03187
  Beta  occ. eigenvalues --  -10.02202  -0.80405  -0.77450  -0.73710  -0.70140
  Beta  occ. eigenvalues --   -0.64526  -0.63356  -0.59909  -0.56877  -0.53954
  Beta  occ. eigenvalues --   -0.49832  -0.47534  -0.45864  -0.44777  -0.41626
  Beta  occ. eigenvalues --   -0.38198  -0.37140  -0.35471  -0.33748  -0.33077
  Beta  occ. eigenvalues --   -0.31592  -0.30732  -0.29961  -0.28870  -0.27800
  Beta  occ. eigenvalues --   -0.26126  -0.25321  -0.23965  -0.23694  -0.22875
  Beta  occ. eigenvalues --   -0.22138  -0.19629  -0.18567  -0.16387  -0.15926
  Beta  occ. eigenvalues --   -0.11973  -0.11434  -0.10641  -0.10571  -0.05877
  Beta virt. eigenvalues --    0.08259   0.08826   0.09010   0.09355   0.09448
  Beta virt. eigenvalues --    0.10346   0.10873   0.11001   0.11204   0.11766
  Beta virt. eigenvalues --    0.12287   0.13185   0.13464   0.14291   0.14946

 Mulliken charges and spin densities:
               1          2
     1  C   -0.659106   0.005982
     2  C    0.631555   0.059931
     3  C   -0.046268   0.121113
     4  C   -1.352190  -0.074188
     5  N    0.157088   0.100701
     6  C   -0.409595   0.106366
     7  C    1.322989   0.020941
     8  C   -0.605641  -0.013615
     9  C    0.118969   0.126767
    10  C    0.405619  -0.023765
    11  C   -0.509857   0.155859
    12  C   -0.712426   0.031282
    13  N   -0.002500   0.057165
    14  C   -0.424136   0.156580
    15  C    0.364469  -0.025301
    16  C   -0.681966   0.226719
    17  H    0.099949   0.001573
    18  H    0.150709   0.004974
    19  H    0.168095   0.000052
    20  H    0.132658  -0.007553
    21  H    0.104760   0.007004
    22  H    0.103414   0.005402
    23  H    0.077831  -0.012427
    24  H    0.096429  -0.004512
    25  H    0.122592  -0.011346
    26  H    0.165267   0.002888
    27  H    0.088743  -0.008946
    28  H    0.092547  -0.009647
 Sum of Mulliken charges =  -1.00000   1.00000

 Dipole moment (field-independent basis, Debye):
    X=              1.6754    Y=              1.2190    Z=              1.4230  Tot=              2.5136
 Quadrupole moment (field-independent basis, Debye-Ang):
   XX=           -122.1078   YY=           -115.5154   ZZ=           -106.3515
   XY=             -2.1130   XZ=              0.3956   YZ=              0.6230

 Summary of Natural Population Analysis:

                                       Natural Population
                Natural  -----------------------------------------------
    Atom  No    Charge         Core      Valence    Rydberg      Total
 -----------------------------------------------------------------------
      C    1   -0.29136      0.99965     2.28690    0.00482     3.29136
      C    2   -0.02218      0.99948     2.01377    0.00892     3.02218
      C    3    0.08097      0.99943     1.89934    0.02025     2.91903
      C    4    0.13440      0.99946     1.84822    0.01791     2.86560
      N    5   -0.21350      0.99971     2.69263    0.02115     3.71350
      C    6    0.04190      0.99954     1.94463    0.01393     2.95810
      C    7   -0.05267      0.99930     2.04351    0.00986     3.05267
      C    8   -0.17452      0.99963     2.16948    0.00541     3.17452
      C    9    0.03997      0.99930     1.95018    0.01055     2.96003
      C   10   -0.08617      0.99954     2.07068    0.01596     3.08617
      C   11   -0.04512      0.99957     2.04072    0.00483     3.04512
      C   12   -0.10280      0.99957     2.08818    0.01505     3.10280
      N   13   -0.20937      0.99965     2.69675    0.01297     3.70937
      C   14    0.10696      0.99959     1.87900    0.01445     2.89304
      C   15   -0.12191      0.99956     2.11307    0.00929     3.12191
      C   16   -0.13888      0.99960     2.13185    0.00743     3.13888
      H   17    0.08993      0.00000     0.40913    0.00093     0.41007
      H   18    0.09941      0.00000     0.39941    0.00118     0.40059
      H   19    0.10903      0.00000     0.38978    0.00119     0.39097
      H   20    0.08156      0.00000     0.41719    0.00125     0.41844
      H   21    0.08550      0.00000     0.41225    0.00225     0.41450
      H   22    0.08537      0.00000     0.41240    0.00224     0.41463
      H   23    0.09100      0.00000     0.40824    0.00076     0.40900
      H   24    0.08735      0.00000     0.41107    0.00158     0.41265
      H   25    0.06715      0.00000     0.43072    0.00212     0.43285
      H   26    0.09869      0.00000     0.39964    0.00167     0.40131
      H   27    0.08368      0.00000     0.41525    0.00107     0.41632
      H   28    0.08043      0.00000     0.41819    0.00137     0.41957
 =======================================================================
   * Total *    0.00480     15.99259    38.79220    0.21041    54.99520

 Normal termination of Gaussian 16 at Fri Dec 11 01:26:53 2020.
