 Gaussian 16, Revision A.03,

 -----------------------------------------------------------
 # opt freq B3LYP/6-31G(d) empiricaldispersion=gd3bj scf=xqc
 -----------------------------------------------------------

 -------------------------------
 CID_132019945_JID_8941_neutraal
 -------------------------------
 Symbolic Z-matrix:
 Charge =  0 Multiplicity = 1

 SCF Done:  E(RB3LYP) =  -801.966636045     A.U. after   15 cycles
 SCF Done:  E(RB3LYP) =  -801.969498300     A.U. after   12 cycles
 SCF Done:  E(RB3LYP) =  -801.970576839     A.U. after   14 cycles
 SCF Done:  E(RB3LYP) =  -801.971578587     A.U. after   12 cycles
 SCF Done:  E(RB3LYP) =  -801.971664300     A.U. after   12 cycles
 SCF Done:  E(RB3LYP) =  -801.972094075     A.U. after   11 cycles
 SCF Done:  E(RB3LYP) =  -801.972245588     A.U. after   11 cycles
 SCF Done:  E(RB3LYP) =  -801.972436519     A.U. after   12 cycles
 SCF Done:  E(RB3LYP) =  -801.972480715     A.U. after   10 cycles
 SCF Done:  E(RB3LYP) =  -801.972564378     A.U. after   11 cycles
 SCF Done:  E(RB3LYP) =  -801.972747173     A.U. after    9 cycles
 SCF Done:  E(RB3LYP) =  -801.972747292     A.U. after    7 cycles
 SCF Done:  E(RB3LYP) =  -801.972747316     A.U. after    7 cycles
 SCF Done:  E(RB3LYP) =  -801.972747320     A.U. after    6 cycles
 Optimization completed.
    -- Stationary point found.
 Normal termination of Gaussian 16 at Fri Dec 11 21:50:33 2020.

 --------------------------------------------------------------------
 #N Geom=AllCheck Guess=TCheck SCRF=Check GenChk RB3LYP/6-31G(d) Freq
 --------------------------------------------------------------------

 Structure from the checkpoint file:  "JID_8941.chk"
 -------------------------------
 CID_132019945_JID_8941_neutraal
 -------------------------------
 Charge =  0 Multiplicity = 1

 SCF Done:  E(RB3LYP) =  -801.972747320     A.U. after    1 cycles

  Exact polarizability: 236.110  -9.130 179.141   8.625  15.120  88.564
 Approx polarizability: 330.951 -12.327 286.535  18.550  35.410 142.273

                      1                      2                      3
                      A                      A                      A
 Frequencies --     30.4790                33.1993                39.2405
 Red. masses --      6.7991                 1.1475                 3.0604
 Frc consts  --      0.0037                 0.0007                 0.0028
 IR Inten    --      2.4007                 0.0717                 0.4837

                      4                      5                      6
                      A                      A                      A
 Frequencies --     53.7112                58.1108                79.0549
 Red. masses --      2.2711                 1.3638                 4.3586
 Frc consts  --      0.0039                 0.0027                 0.0160
 IR Inten    --      4.3622                 0.9587                 1.3103

                      7                      8                      9
                      A                      A                      A
 Frequencies --     91.5099               124.9992               202.5364
 Red. masses --      5.7786                 4.7293                 3.0661
 Frc consts  --      0.0285                 0.0435                 0.0741
 IR Inten    --      2.3353                 5.2118                 0.8426

                     10                     11                     12
                      A                      A                      A
 Frequencies --    220.0328               242.5514               250.1280
 Red. masses --      3.4473                 4.7923                 4.7776
 Frc consts  --      0.0983                 0.1661                 0.1761
 IR Inten    --      1.2476                 2.2371                 2.1866

                     13                     14                     15
                      A                      A                      A
 Frequencies --    263.7257               278.7033               326.8394
 Red. masses --      5.0360                 4.4875                 3.7797
 Frc consts  --      0.2064                 0.2054                 0.2379
 IR Inten    --      0.3160                 1.6471                18.6352

                     16                     17                     18
                      A                      A                      A
 Frequencies --    344.6528               378.5361               405.4003
 Red. masses --      1.2889                 3.9709                 3.1963
 Frc consts  --      0.0902                 0.3352                 0.3095
 IR Inten    --    290.8504                 2.5585                 8.3917

                     19                     20                     21
                      A                      A                      A
 Frequencies --    447.3537               484.3222               517.2965
 Red. masses --      3.0639                 3.4513                 1.2296
 Frc consts  --      0.3613                 0.4770                 0.1939
 IR Inten    --      5.4701                 1.7093                 5.1482

                     22                     23                     24
                      A                      A                      A
 Frequencies --    533.0989               553.8643               560.6414
 Red. masses --      3.8486                 4.2926                 4.0042
 Frc consts  --      0.6444                 0.7758                 0.7415
 IR Inten    --      1.4497                 6.3035                 1.8461

                     25                     26                     27
                      A                      A                      A
 Frequencies --    571.9905               583.0133               636.3332
 Red. masses --      5.0741                 3.4852                 4.1549
 Frc consts  --      0.9781                 0.6980                 0.9912
 IR Inten    --      3.0191                22.1013                 3.0972

                     28                     29                     30
                      A                      A                      A
 Frequencies --    674.0919               708.7190               743.7127
 Red. masses --      7.0439                 2.7799                 5.1911
 Frc consts  --      1.8858                 0.8227                 1.6917
 IR Inten    --      8.7400                 3.0963                 4.2657

                     31                     32                     33
                      A                      A                      A
 Frequencies --    755.9674               759.4333               817.0543
 Red. masses --      9.5961                 3.2241                 5.4780
 Frc consts  --      3.2311                 1.0956                 2.1546
 IR Inten    --     20.5879                 1.9636                 0.2900

                     34                     35                     36
                      A                      A                      A
 Frequencies --    854.4984               873.0861               893.5203
 Red. masses --      1.3581                 1.4175                 1.4724
 Frc consts  --      0.5843                 0.6366                 0.6926
 IR Inten    --     34.6939                 9.0100                 4.7034

                     37                     38                     39
                      A                      A                      A
 Frequencies --    901.7566               906.3601               917.1292
 Red. masses --      1.8038                 1.6481                 2.0122
 Frc consts  --      0.8642                 0.7977                 0.9972
 IR Inten    --     17.1549                 7.3835                22.8228

                     40                     41                     42
                      A                      A                      A
 Frequencies --    966.0535               982.4224              1010.6056
 Red. masses --      3.8480                 1.3632                 3.9615
 Frc consts  --      2.1159                 0.7752                 2.3838
 IR Inten    --      2.1301                 0.7353                 1.7069

                     43                     44                     45
                      A                      A                      A
 Frequencies --   1020.2518              1026.9489              1031.5969
 Red. masses --      2.4979                 2.6037                 2.1416
 Frc consts  --      1.5320                 1.6179                 1.3428
 IR Inten    --     26.6561                 8.1437                 8.6434

                     46                     47                     48
                      A                      A                      A
 Frequencies --   1061.3867              1075.6000              1076.0622
 Red. masses --      2.5751                 1.5817                 1.5102
 Frc consts  --      1.7092                 1.0781                 1.0303
 IR Inten    --     65.6630                 4.7379                 4.8347

                     49                     50                     51
                      A                      A                      A
 Frequencies --   1122.4625              1127.6928              1148.4660
 Red. masses --      1.6185                 1.8901                 1.4947
 Frc consts  --      1.2014                 1.4162                 1.1616
 IR Inten    --     13.4094                20.1579                 0.5071

                     52                     53                     54
                      A                      A                      A
 Frequencies --   1196.8748              1219.9227              1277.7664
 Red. masses --      1.6910                 1.5925                 3.3739
 Frc consts  --      1.4272                 1.3964                 3.2455
 IR Inten    --    110.6020                25.2118               103.9879

                     55                     56                     57
                      A                      A                      A
 Frequencies --   1293.5800              1314.2488              1337.6574
 Red. masses --      3.5657                 1.8718                 1.4769
 Frc consts  --      3.5155                 1.9048                 1.5570
 IR Inten    --     18.7806                 0.1266                14.7467

                     58                     59                     60
                      A                      A                      A
 Frequencies --   1345.2170              1367.3114              1378.2416
 Red. masses --      3.5337                 3.7056                 4.2346
 Frc consts  --      3.7676                 4.0817                 4.7393
 IR Inten    --    475.6647               308.0752                 2.8738

                     61                     62                     63
                      A                      A                      A
 Frequencies --   1431.3955              1440.6983              1444.0822
 Red. masses --      2.0312                 1.4901                 1.3697
 Frc consts  --      2.4520                 1.8223                 1.6829
 IR Inten    --     13.1620                10.2567                 1.7903

                     64                     65                     66
                      A                      A                      A
 Frequencies --   1486.4325              1501.9739              1506.3098
 Red. masses --      2.3918                 2.8669                 1.0465
 Frc consts  --      3.1136                 3.8106                 1.3990
 IR Inten    --     17.7061                 6.4991                 5.0580

                     67                     68                     69
                      A                      A                      A
 Frequencies --   1515.4841              1516.7341              1530.6389
 Red. masses --      1.0544                 1.4000                 1.3047
 Frc consts  --      1.4267                 1.8976                 1.8010
 IR Inten    --      3.7842                15.5249                40.1480

                     70                     71                     72
                      A                      A                      A
 Frequencies --   1543.1295              1608.9637              1636.2101
 Red. masses --      1.8439                 6.6460                 1.3993
 Frc consts  --      2.5870                10.1369                 2.2071
 IR Inten    --      4.2584                78.8618               204.5597

                     73                     74                     75
                      A                      A                      A
 Frequencies --   1653.7211              1657.7226              1668.8329
 Red. masses --      3.8775                 5.2426                 6.0317
 Frc consts  --      6.2478                 8.4883                 9.8972
 IR Inten    --      8.4078               140.3326                21.8687

                     76                     77                     78
                      A                      A                      A
 Frequencies --   1862.6651              3048.5727              3056.6156
 Red. masses --     10.3949                 1.0375                 1.0358
 Frc consts  --     21.2490                 5.6808                 5.7018
 IR Inten    --    324.8006                28.8050                20.5568

                     79                     80                     81
                      A                      A                      A
 Frequencies --   3103.6001              3116.5794              3130.7384
 Red. masses --      1.1003                 1.1008                 1.1018
 Frc consts  --      6.2442                 6.2998                 6.3628
 IR Inten    --     17.1084                12.9935                15.5856

                     82                     83                     84
                      A                      A                      A
 Frequencies --   3137.2367              3166.9018              3196.5286
 Red. masses --      1.1032                 1.0893                 1.0901
 Frc consts  --      6.3974                 6.4367                 6.5624
 IR Inten    --     16.9166                38.2153                 5.8153

                     85                     86                     87
                      A                      A                      A
 Frequencies --   3201.5378              3214.2842              3222.9491
 Red. masses --      1.0905                 1.0926                 1.0908
 Frc consts  --      6.5858                 6.6508                 6.6759
 IR Inten    --      7.6636                12.5373                 2.7938

                     88                     89                     90
                      A                      A                      A
 Frequencies --   3242.2515              3608.8422              3732.8951
 Red. masses --      1.0916                 1.0456                 1.1046
 Frc consts  --      6.7612                 8.0234                 9.0685
 IR Inten    --      1.2834                62.7954                52.2929

 - Thermochemistry -
 -------------------
 Temperature   298.150 Kelvin.  Pressure   1.00000 Atm.
 Atom     1 has atomic number  6 and mass  12.00000

 Molecular mass:   242.10553 amu.
 Principal axes and moments of inertia in atomic units:
                           1         2         3
     Eigenvalues --  2519.052988662.03404**********
           X            0.99990  -0.01439  -0.00060
           Y            0.01440   0.99988   0.00632
           Z            0.00051  -0.00633   0.99998
 This molecule is an asymmetric top.
 Rotational symmetry number  1.
 Warning -- assumption of classical behavior for rotation
           may cause significant error
 Rotational temperatures (Kelvin)      0.03438     0.01000     0.00815
 Rotational constants (GHZ):           0.71644     0.20835     0.16981
 Zero-point vibrational energy     673985.3 (Joules/Mol)
                                  161.08636 (Kcal/Mol)
 Warning -- explicit consideration of  26 degrees of freedom as
           vibrations may cause significant error
 Vibrational temperatures:     43.85    47.77    56.46    77.28    83.61
          (Kelvin)            113.74   131.66   179.85   291.40   316.58
                              348.98   359.88   379.44   400.99   470.25
                              495.88   544.63   583.28   643.64   696.83
                              744.27   767.01   796.89   806.64   822.97
                              838.83   915.54   969.87  1019.69  1070.04
                             1087.67  1092.66  1175.56  1229.43  1256.18
                             1285.58  1297.43  1304.05  1319.54  1389.94
                             1413.49  1454.04  1467.91  1477.55  1484.24
                             1527.10  1547.55  1548.21  1614.97  1622.50
                             1652.39  1722.04  1755.20  1838.42  1861.17
                             1890.91  1924.59  1935.47  1967.26  1982.98
                             2059.46  2072.84  2077.71  2138.64  2161.01
                             2167.24  2180.44  2182.24  2202.25  2220.22
                             2314.94  2354.14  2379.34  2385.09  2401.08
                             2679.96  4386.22  4397.79  4465.39  4484.06
                             4504.43  4513.78  4556.47  4599.09  4606.30
                             4624.64  4637.10  4664.88  5192.32  5370.80

 Zero-point correction=                           0.256707 (Hartree/Particle)
 Thermal correction to Energy=                    0.273607
 Thermal correction to Enthalpy=                  0.274551
 Thermal correction to Gibbs Free Energy=         0.209569
 Sum of electronic and zero-point Energies=           -801.716040
 Sum of electronic and thermal Energies=              -801.699141
 Sum of electronic and thermal Enthalpies=            -801.698197
 Sum of electronic and thermal Free Energies=         -801.763178

                     E (Thermal)             CV                S
                      KCal/Mol        Cal/Mol-Kelvin    Cal/Mol-Kelvin
 Total                  171.691             62.783            136.765
 Electronic               0.000              0.000              0.000
 Translational            0.889              2.981             42.354
 Rotational               0.889              2.981             33.805
 Vibrational            169.913             56.822             60.606
 Vibration     1          0.594              1.984              5.798
 Vibration     2          0.594              1.983              5.628
 Vibration     3          0.594              1.981              5.297
 Vibration     4          0.596              1.976              4.676
 Vibration     5          0.596              1.974              4.520
 Vibration     6          0.600              1.963              3.914
 Vibration     7          0.602              1.955              3.628
 Vibration     8          0.610              1.928              3.022
 Vibration     9          0.639              1.836              2.110
 Vibration    10          0.647              1.811              1.959
 Vibration    11          0.659              1.775              1.784
 Vibration    12          0.663              1.763              1.730
 Vibration    13          0.670              1.739              1.637
 Vibration    14          0.679              1.713              1.542
 Vibration    15          0.711              1.622              1.276
 Vibration    16          0.723              1.586              1.191
 Vibration    17          0.749              1.516              1.045
 Vibration    18          0.770              1.458              0.943
 Vibration    19          0.806              1.367              0.804
 Vibration    20          0.840              1.285              0.699
 Vibration    21          0.872              1.212              0.616
 Vibration    22          0.888              1.177              0.580
 Vibration    23          0.909              1.131              0.536
 Vibration    24          0.916              1.116              0.523
 Vibration    25          0.928              1.092              0.500
 Vibration    26          0.940              1.068              0.480

 Optimization completed.
    -- Stationary point found.
 Normal termination of Gaussian 16 at Fri Dec 11 22:00:28 2020.

 ----------------------------------------------------------------------
 # B3LYP/6-311++G(d,p) empiricaldispersion=gd3bj scf=xqc pop=npa geom=c
 heck
 ----------------------------------------------------------------------

 ---------------------------------------
 CID_132019945_JID_8941_Energie_neutraal
 ---------------------------------------
 Structure from the checkpoint file:  "JID_8941.chk"
 Charge =  0 Multiplicity = 1

 SCF Done:  E(RB3LYP) =  -802.194056447     A.U. after   16 cycles
 Normal termination of Gaussian 16 at Fri Dec 11 22:04:55 2020.

 ----------------------------------------------------------------------
 # B3LYP/6-311++G(d,p) empiricaldispersion=gd3bj scf=xqc pop=npa geom=c
 heck
 ----------------------------------------------------------------------

 -------------------------------------
 CID_132019945_JID_8941_Energie_kation
 -------------------------------------
 Structure from the checkpoint file:  "JID_8941.chk"
 Charge =  1 Multiplicity = 2

 SCF Done:  E(UB3LYP) =  -801.889743004     A.U. after   33 cycles
 SCF Done:  E(UB3LYP) =  -801.889743013     a.u. after    2 cycles
 Normal termination of Gaussian 16 at Fri Dec 11 22:28:49 2020.
 Gaussian 16:  ES64L-G16RevA.03 25-Dec-2016

 ----------------------------------------------------------------------
 # B3LYP/6-311++G(d,p) empiricaldispersion=gd3bj scf=xqc pop=npa geom=c
 heck
 ----------------------------------------------------------------------

 ------------------------------------
 CID_132019945_JID_8941_Energie_anion
 ------------------------------------
 Structure from the checkpoint file:  "JID_8941.chk"
 Charge = -1 Multiplicity = 2

                         Standard orientation:
 ---------------------------------------------------------------------
 Center     Atomic      Atomic             Coordinates (Angstroms)
 Number     Number       Type             X           Y           Z
 ---------------------------------------------------------------------
      1          6           0       -1.894103    3.535635   -0.602185
      2          6           0       -1.392637    2.123536   -0.420967
      3          6           0       -0.033697    1.862528   -0.235355
      4          6           0        0.443934    0.554911   -0.060960
      5          6           0       -0.472013   -0.503392   -0.067264
      6          6           0       -1.825344   -0.240882   -0.250314
      7          6           0       -2.297165    1.054969   -0.434260
      8          8           0       -2.656027   -1.355671   -0.311188
      9          6           0       -3.856106   -1.351752    0.363050
     10          8           0       -4.276572   -0.450524    1.052615
     11          7           0       -4.504719   -2.522529    0.096762
     12          6           0        1.889214    0.295904    0.128087
     13          6           0        2.503316   -0.845659   -0.404347
     14          6           0        3.869067   -1.065266   -0.209013
     15          7           0        4.643582   -0.210065    0.482138
     16          6           0        4.057918    0.879179    0.988668
     17          6           0        2.705355    1.179044    0.846095
     18          6           0        4.558678   -2.280237   -0.774576
     19          1           0       -1.066376    4.239095   -0.732361
     20          1           0       -2.549538    3.617164   -1.476671
     21          1           0       -2.476304    3.860104    0.269109
     22          1           0        0.672419    2.687327   -0.255761
     23          1           0       -0.149768   -1.526335    0.091806
     24          1           0       -3.356552    1.232210   -0.570017
     25          1           0       -3.989903   -3.290929   -0.306662
     26          1           0       -5.302103   -2.734262    0.676585
     27          1           0        1.923612   -1.550387   -0.992342
     28          1           0        4.706930    1.550989    1.548533
     29          1           0        2.290279    2.068454    1.308646
     30          1           0        5.358149   -1.979353   -1.460687
     31          1           0        5.027926   -2.858482    0.028974
     32          1           0        3.861471   -2.928982   -1.312825
 ---------------------------------------------------------------------

 SCF Done:  E(UB3LYP) =  -802.199140801     A.U. after   33 cycles
 SCF Done:  E(UB3LYP) =  -802.199140801     a.u. after    1 cycles

 The electronic state is 2-A.
 Alpha  occ. eigenvalues --  -19.06881 -19.00295 -14.24363 -14.16496 -10.22870
 Alpha  occ. eigenvalues --  -10.11829 -10.08466 -10.07523 -10.06974 -10.06858
 Alpha  occ. eigenvalues --  -10.05927 -10.05593 -10.05424 -10.04918 -10.04791
 Alpha  occ. eigenvalues --  -10.04593 -10.04533 -10.04519  -1.01313  -0.92834
 Alpha  occ. eigenvalues --   -0.82358  -0.81214  -0.74605  -0.69099  -0.66224
 Alpha  occ. eigenvalues --   -0.65863  -0.62440  -0.58821  -0.58121  -0.55072
 Alpha  occ. eigenvalues --   -0.51805  -0.49297  -0.47287  -0.46107  -0.43907
 Alpha  occ. eigenvalues --   -0.41758  -0.39382  -0.38150  -0.37160  -0.36227
 Alpha  occ. eigenvalues --   -0.35781  -0.34117  -0.33694  -0.32217  -0.31841
 Alpha  occ. eigenvalues --   -0.31244  -0.30203  -0.29667  -0.29052  -0.28511
 Alpha  occ. eigenvalues --   -0.27622  -0.26463  -0.25313  -0.24556  -0.23880
 Alpha  occ. eigenvalues --   -0.22504  -0.21555  -0.19499  -0.18766  -0.17303
 Alpha  occ. eigenvalues --   -0.13455  -0.13216  -0.12730  -0.11884   0.03755
 Alpha virt. eigenvalues --    0.05121   0.07590   0.08000   0.08831   0.09152
 Alpha virt. eigenvalues --    0.09724   0.10189   0.10552   0.10945   0.10993
 Alpha virt. eigenvalues --    0.11687   0.11827   0.12406   0.12611   0.13143

  Beta  occ. eigenvalues --  -19.06883 -19.00281 -14.24315 -14.16182 -10.22865
  Beta  occ. eigenvalues --  -10.11864 -10.08461 -10.07508 -10.06973 -10.06884
  Beta  occ. eigenvalues --  -10.05931 -10.05482 -10.05185 -10.04824 -10.04709
  Beta  occ. eigenvalues --  -10.04554 -10.04465 -10.04325  -1.01302  -0.92816
  Beta  occ. eigenvalues --   -0.82295  -0.80809  -0.74370  -0.68696  -0.66103
  Beta  occ. eigenvalues --   -0.65713  -0.62187  -0.58666  -0.57972  -0.54925
  Beta  occ. eigenvalues --   -0.51375  -0.49179  -0.47195  -0.45988  -0.43778
  Beta  occ. eigenvalues --   -0.41679  -0.39287  -0.38063  -0.37024  -0.36180
  Beta  occ. eigenvalues --   -0.35655  -0.33991  -0.33575  -0.32153  -0.31642
  Beta  occ. eigenvalues --   -0.31210  -0.30145  -0.29562  -0.28989  -0.28448
  Beta  occ. eigenvalues --   -0.27517  -0.25952  -0.24998  -0.24315  -0.23611
  Beta  occ. eigenvalues --   -0.22378  -0.21285  -0.19427  -0.18713  -0.16020
  Beta  occ. eigenvalues --   -0.12922  -0.12783  -0.12274  -0.10838
  Beta virt. eigenvalues --    0.06246   0.07511   0.07959   0.08019   0.09074
  Beta virt. eigenvalues --    0.09494   0.09817   0.10262   0.10556   0.11011
  Beta virt. eigenvalues --    0.11194   0.11797   0.11941   0.12386   0.12860

 Mulliken charges and spin densities:
               1          2
     1  C   -0.426735  -0.010449
     2  C    0.849904   0.092090
     3  C   -1.326678   0.035293
     4  C    0.484219   0.060402
     5  C   -0.546500   0.191850
     6  C   -0.031749  -0.238461
     7  C   -0.186791  -0.059922
     8  O   -0.119673  -0.010068
     9  C    0.395685  -0.316538
    10  O   -0.301581  -0.003101
    11  N   -0.390622   0.022037
    12  C    1.354545   0.113556
    13  C   -0.019295   0.049443
    14  C   -0.581267   0.010949
    15  N   -0.059455   0.147537
    16  C   -0.258538   0.006415
    17  C   -0.479154   0.107818
    18  C   -0.689081  -0.014150
    19  H    0.138010   0.000801
    20  H    0.111210   0.020361
    21  H    0.161367  -0.004063
    22  H    0.076116  -0.011455
    23  H    0.077522   0.053507
    24  H    0.132770   0.023194
    25  H   -0.039207   0.304758
    26  H   -0.135665   0.414677
    27  H    0.151771  -0.005204
    28  H    0.137857  -0.002135
    29  H    0.131761   0.008160
    30  H    0.130193   0.010619
    31  H    0.143859  -0.001450
    32  H    0.115203   0.003529
 Sum of Mulliken charges =  -1.00000   1.00000

 Dipole moment (field-independent basis, Debye):
    X=             -0.1713    Y=              1.7910    Z=             -1.6975  Tot=              2.4736
 Quadrupole moment (field-independent basis, Debye-Ang):
   XX=           -195.3621   YY=           -123.9784   ZZ=           -121.2226
   XY=             -8.7026   XZ=              1.6139   YZ=              1.8606

 Summary of Natural Population Analysis:

                                       Natural Population
                Natural  -----------------------------------------------
    Atom  No    Charge         Core      Valence    Rydberg      Total
 -----------------------------------------------------------------------
      C    1   -0.29120      0.99965     2.28642    0.00513     3.29120
      C    2   -0.02916      0.99955     2.02046    0.00915     3.02916
      C    3   -0.06619      0.99949     2.06181    0.00489     3.06619
      C    4   -0.02703      0.99956     2.01002    0.01746     3.02703
      C    5   -0.04855      0.99947     2.04112    0.00796     3.04855
      C    6    0.12702      0.99938     1.85537    0.01824     2.87298
      C    7   -0.08402      0.99946     2.07656    0.00800     3.08402
      O    8   -0.28752      0.99984     3.27727    0.01040     4.28752
      C    9    0.45613      0.99973     1.51840    0.02574     2.54387
      O   10   -0.31904      0.99987     3.31347    0.00571     4.31904
      N   11   -0.40958      0.99971     2.90208    0.00779     3.90958
      C   12    0.03175      0.99950     1.95739    0.01137     2.96825
      C   13   -0.11403      0.99947     2.10423    0.01033     3.11403
      C   14    0.10060      0.99956     1.88626    0.01359     2.89940
      N   15   -0.21300      0.99967     2.70067    0.01266     3.71300
      C   16    0.02659      0.99960     1.95915    0.01465     2.97341
      C   17   -0.11768      0.99952     2.11069    0.00747     3.11768
      C   18   -0.29490      0.99964     2.28983    0.00543     3.29490
      H   19    0.09975      0.00000     0.39946    0.00079     0.40025
      H   20    0.09890      0.00000     0.40011    0.00099     0.40110
      H   21    0.10030      0.00000     0.39867    0.00103     0.39970
      H   22    0.09232      0.00000     0.40624    0.00144     0.40768
      H   23    0.09911      0.00000     0.39961    0.00128     0.40089
      H   24    0.10296      0.00000     0.39573    0.00131     0.39704
      H   25    0.19878      0.00000     0.29845    0.00276     0.30122
      H   26    0.19721      0.00000     0.30023    0.00256     0.30279
      H   27    0.09726      0.00000     0.40153    0.00121     0.40274
      H   28    0.08018      0.00000     0.41846    0.00136     0.41982
      H   29    0.09831      0.00000     0.40065    0.00104     0.40169
      H   30    0.10166      0.00000     0.39726    0.00108     0.39834
      H   31    0.10203      0.00000     0.39690    0.00107     0.39797
      H   32    0.09461      0.00000     0.40464    0.00075     0.40539
 =======================================================================
   * Total *    0.00358     17.99266    45.78914    0.21462    63.99642

 Normal termination of Gaussian 16 at Fri Dec 11 22:41:20 2020.
