 Gaussian 16, Revision A.03,

 -----------------------------------------------------------
 # opt freq B3LYP/6-31G(d) empiricaldispersion=gd3bj scf=xqc
 -----------------------------------------------------------

 -------------------------------
 CID_116757805_JID_3557_neutraal
 -------------------------------
 Symbolic Z-matrix:
 Charge =  0 Multiplicity = 1

 SCF Done:  E(RB3LYP) =  -561.757869260     A.U. after   14 cycles
 SCF Done:  E(RB3LYP) =  -561.761533891     A.U. after   12 cycles
 SCF Done:  E(RB3LYP) =  -561.761082264     A.U. after   12 cycles
 SCF Done:  E(RB3LYP) =  -561.762083012     A.U. after   12 cycles
 SCF Done:  E(RB3LYP) =  -561.762462527     A.U. after   11 cycles
 SCF Done:  E(RB3LYP) =  -561.762597476     A.U. after   11 cycles
 SCF Done:  E(RB3LYP) =  -561.762614346     A.U. after   12 cycles
 SCF Done:  E(RB3LYP) =  -561.762831651     A.U. after   10 cycles
 SCF Done:  E(RB3LYP) =  -561.762805061     A.U. after   11 cycles
 SCF Done:  E(RB3LYP) =  -561.762652131     A.U. after   11 cycles
 SCF Done:  E(RB3LYP) =  -561.763084633     A.U. after    8 cycles
 SCF Done:  E(RB3LYP) =  -561.763084902     A.U. after    7 cycles
 SCF Done:  E(RB3LYP) =  -561.763085195     A.U. after    7 cycles
 SCF Done:  E(RB3LYP) =  -561.763085337     A.U. after    7 cycles
 SCF Done:  E(RB3LYP) =  -561.763085400     A.U. after    7 cycles
 Optimization completed.
    -- Stationary point found.
 Normal termination of Gaussian 16 at Sun Dec 13 16:12:54 2020.

 --------------------------------------------------------------------
 #N Geom=AllCheck Guess=TCheck SCRF=Check GenChk RB3LYP/6-31G(d) Freq
 --------------------------------------------------------------------

 Structure from the checkpoint file:  "JID_3557.chk"
 -------------------------------
 CID_116757805_JID_3557_neutraal
 -------------------------------
 Charge =  0 Multiplicity = 1

 SCF Done:  E(RB3LYP) =  -561.763085400     A.U. after    1 cycles

  Exact polarizability: 145.691   9.323 120.369  -8.647  -4.975 106.713
 Approx polarizability: 188.850  21.931 166.809 -19.560 -11.206 159.186

                      1                      2                      3
                      A                      A                      A
 Frequencies --     30.1227                33.7937                51.8519
 Red. masses --      2.4588                 1.1113                 2.8000
 Frc consts  --      0.0013                 0.0007                 0.0044
 IR Inten    --      0.3086                 0.0596                 0.2935

                      4                      5                      6
                      A                      A                      A
 Frequencies --     72.6417                83.0429               105.5420
 Red. masses --      2.5757                 2.3879                 2.3977
 Frc consts  --      0.0080                 0.0097                 0.0157
 IR Inten    --      1.6489                 0.4763                 0.9246

                      7                      8                      9
                      A                      A                      A
 Frequencies --    130.0658               167.3489               179.7623
 Red. masses --      1.4733                 2.0101                 3.0348
 Frc consts  --      0.0147                 0.0332                 0.0578
 IR Inten    --      1.5972                 0.8039                 0.8233

                     10                     11                     12
                      A                      A                      A
 Frequencies --    197.9341               208.2963               221.4064
 Red. masses --      2.8595                 1.3405                 1.1939
 Frc consts  --      0.0660                 0.0343                 0.0345
 IR Inten    --      3.2995                 1.6577                 0.7902

                     13                     14                     15
                      A                      A                      A
 Frequencies --    253.1764               266.5470               278.3274
 Red. masses --      1.4965                 2.6462                 2.4728
 Frc consts  --      0.0565                 0.1108                 0.1129
 IR Inten    --      1.9044                 3.4640                10.7199

                     16                     17                     18
                      A                      A                      A
 Frequencies --    305.3323               322.9368               349.5346
 Red. masses --      2.1790                 2.3407                 2.4581
 Frc consts  --      0.1197                 0.1438                 0.1769
 IR Inten    --      3.3610                 3.6906                 1.9298

                     19                     20                     21
                      A                      A                      A
 Frequencies --    356.0332               374.6793               376.8472
 Red. masses --      2.8224                 3.9965                 2.6111
 Frc consts  --      0.2108                 0.3306                 0.2185
 IR Inten    --      2.7806                 0.2022                 0.4593

                     22                     23                     24
                      A                      A                      A
 Frequencies --    413.1166               430.3877               506.6321
 Red. masses --      2.5386                 4.8355                 3.0149
 Frc consts  --      0.2553                 0.5277                 0.4559
 IR Inten    --      1.4768                 0.4673                 3.9867

                     25                     26                     27
                      A                      A                      A
 Frequencies --    586.6306               664.9832               705.1686
 Red. masses --      2.9686                 3.1534                 3.4333
 Frc consts  --      0.6019                 0.8216                 1.0059
 IR Inten    --      4.0539                 5.8938                 5.8793

                     28                     29                     30
                      A                      A                      A
 Frequencies --    780.1005               787.5180               816.6069
 Red. masses --      2.3245                 1.5090                 2.0346
 Frc consts  --      0.8335                 0.5514                 0.7994
 IR Inten    --      1.6469                 5.3845                63.6823

                     31                     32                     33
                      A                      A                      A
 Frequencies --    884.5218               888.7309               943.7754
 Red. masses --      2.0520                 1.8030                 1.9448
 Frc consts  --      0.9459                 0.8390                 1.0206
 IR Inten    --     14.6968                38.6325                 9.8482

                     34                     35                     36
                      A                      A                      A
 Frequencies --    993.6426              1017.9106              1025.0831
 Red. masses --      2.2725                 1.8302                 1.6785
 Frc consts  --      1.3220                 1.1173                 1.0392
 IR Inten    --     12.7593                11.0339                 3.7593

                     37                     38                     39
                      A                      A                      A
 Frequencies --   1033.6763              1069.9253              1072.9761
 Red. masses --      1.6918                 1.3928                 1.3841
 Frc consts  --      1.0651                 0.9394                 0.9388
 IR Inten    --      1.8838                 1.2719                 1.3422

                     40                     41                     42
                      A                      A                      A
 Frequencies --   1083.8385              1134.3514              1140.1350
 Red. masses --      2.1580                 3.4587                 3.3934
 Frc consts  --      1.4936                 2.6222                 2.5989
 IR Inten    --      1.2537                64.8667                69.5046

                     43                     44                     45
                      A                      A                      A
 Frequencies --   1171.8982              1172.3524              1183.8428
 Red. masses --      1.7047                 2.3355                 2.0120
 Frc consts  --      1.3793                 1.8912                 1.6614
 IR Inten    --     22.5624                 4.3211                24.0011

                     46                     47                     48
                      A                      A                      A
 Frequencies --   1186.9074              1193.2429              1207.0165
 Red. masses --      1.3333                 1.8364                 1.9683
 Frc consts  --      1.1066                 1.5406                 1.6895
 IR Inten    --      2.2834                 8.2781                12.3206

                     49                     50                     51
                      A                      A                      A
 Frequencies --   1229.1876              1269.3579              1277.6234
 Red. masses --      1.7227                 1.8157                 1.5825
 Frc consts  --      1.5335                 1.7237                 1.5219
 IR Inten    --     27.4932                 0.9841                19.1089

                     52                     53                     54
                      A                      A                      A
 Frequencies --   1306.9334              1347.1952              1376.7874
 Red. masses --      1.5044                 1.2998                 1.4354
 Frc consts  --      1.5140                 1.3899                 1.6031
 IR Inten    --     11.7353                 3.9273                 6.9421

                     55                     56                     57
                      A                      A                      A
 Frequencies --   1394.3223              1403.5460              1432.7387
 Red. masses --      1.3433                 1.3542                 1.2798
 Frc consts  --      1.5387                 1.5718                 1.5479
 IR Inten    --      0.4018                 6.7691                 4.2729

                     58                     59                     60
                      A                      A                      A
 Frequencies --   1435.3642              1445.3633              1479.6941
 Red. masses --      1.2433                 1.2443                 1.1637
 Frc consts  --      1.5092                 1.5315                 1.5012
 IR Inten    --     10.2135                 5.4118                 5.7373

                     61                     62                     63
                      A                      A                      A
 Frequencies --   1496.1476              1499.4173              1509.3771
 Red. masses --      1.0911                 1.0936                 1.0426
 Frc consts  --      1.4390                 1.4487                 1.3995
 IR Inten    --      4.3748                 3.2960                 5.8040

                     64                     65                     66
                      A                      A                      A
 Frequencies --   1509.9991              1510.3877              1516.6344
 Red. masses --      1.0890                 1.0435                 1.1075
 Frc consts  --      1.4629                 1.4026                 1.5009
 IR Inten    --      1.1487                 2.7212                 6.2798

                     67                     68                     69
                      A                      A                      A
 Frequencies --   1517.5441              1522.1732              1527.3620
 Red. masses --      1.0676                 1.0597                 1.0582
 Frc consts  --      1.4485                 1.4466                 1.4544
 IR Inten    --      0.5380                12.6043                 8.6520

                     70                     71                     72
                      A                      A                      A
 Frequencies --   1533.6133              1535.3357              1538.5112
 Red. masses --      1.1060                 1.0466                 1.0624
 Frc consts  --      1.5326                 1.4536                 1.4816
 IR Inten    --     12.1826                 3.9590                 3.9871

                     73                     74                     75
                      A                      A                      A
 Frequencies --   1544.2205              1552.4588              2369.3894
 Red. masses --      1.0521                 1.0619                11.7965
 Frc consts  --      1.4782                 1.5080                39.0189
 IR Inten    --      4.5518                 8.9869                 0.0569

                     76                     77                     78
                      A                      A                      A
 Frequencies --   2978.6093              3029.1016              3035.8433
 Red. masses --      1.0563                 1.0335                 1.0349
 Frc consts  --      5.5215                 5.5873                 5.6194
 IR Inten    --     76.7248                53.0188                43.1473

                     79                     80                     81
                      A                      A                      A
 Frequencies --   3037.8400              3046.4081              3055.7130
 Red. masses --      1.0765                 1.0630                 1.0716
 Frc consts  --      5.8533                 5.8124                 5.8951
 IR Inten    --      9.0592                 2.8898                67.9533

                     82                     83                     84
                      A                      A                      A
 Frequencies --   3058.4370              3071.3181              3074.5003
 Red. masses --      1.0369                 1.0416                 1.0772
 Frc consts  --      5.7145                 5.7891                 5.9991
 IR Inten    --     25.5124                10.9829                47.1735

                     85                     86                     87
                      A                      A                      A
 Frequencies --   3084.4643              3085.9461              3093.9520
 Red. masses --      1.1031                 1.1012                 1.1015
 Frc consts  --      6.1835                 6.1787                 6.2124
 IR Inten    --     39.2066                53.1822                14.6487

                     88                     89                     90
                      A                      A                      A
 Frequencies --   3097.5599              3102.0252              3116.8113
 Red. masses --      1.1013                 1.0927                 1.1029
 Frc consts  --      6.2259                 6.1948                 6.3127
 IR Inten    --     13.2300                 9.4711                33.7495

                     91                     92                     93
                      A                      A                      A
 Frequencies --   3118.2503              3128.9996              3133.7369
 Red. masses --      1.1012                 1.1005                 1.1004
 Frc consts  --      6.3086                 6.3481                 6.3668
 IR Inten    --     45.8225                38.4761                28.3456

                     94                     95                     96
                      A                      A                      A
 Frequencies --   3144.5121              3174.0600              3489.4788
 Red. masses --      1.1017                 1.0986                 1.0725
 Frc consts  --      6.4185                 6.5211                 7.6940
 IR Inten    --     24.7163                13.0950                 3.0024

 - Thermochemistry -
 -------------------
 Temperature   298.150 Kelvin.  Pressure   1.00000 Atm.
 Atom     1 has atomic number  6 and mass  12.00000

 Molecular mass:   183.16231 amu.
 Principal axes and moments of inertia in atomic units:
                           1         2         3
     Eigenvalues --  1778.074753337.514463986.81384
           X            0.99994  -0.00166  -0.01119
           Y            0.00140   0.99973  -0.02339
           Z            0.01123   0.02337   0.99966
 This molecule is an asymmetric top.
 Rotational symmetry number  1.
 Warning -- assumption of classical behavior for rotation
           may cause significant error
 Rotational temperatures (Kelvin)      0.04871     0.02595     0.02173
 Rotational constants (GHZ):           1.01500     0.54074     0.45268
 Zero-point vibrational energy     805675.6 (Joules/Mol)
                                  192.56110 (Kcal/Mol)
 Warning -- explicit consideration of  25 degrees of freedom as
           vibrations may cause significant error
 Vibrational temperatures:     43.34    48.62    74.60   104.52   119.48
          (Kelvin)            151.85   187.14   240.78   258.64   284.78
                              299.69   318.55   364.26   383.50   400.45
                              439.31   464.63   502.90   512.25   539.08
                              542.20   594.38   619.23   728.93   844.03
                              956.76  1014.58  1122.39  1133.06  1174.92
                             1272.63  1278.69  1357.88  1429.63  1464.55
                             1474.87  1487.23  1539.38  1543.77  1559.40
                             1632.08  1640.40  1686.10  1686.75  1703.29
                             1707.70  1716.81  1736.63  1768.53  1826.32
                             1838.22  1880.39  1938.31  1980.89  2006.12
                             2019.39  2061.39  2065.17  2079.56  2128.95
                             2152.62  2157.33  2171.66  2172.55  2173.11
                             2182.10  2183.41  2190.07  2197.53  2206.53
                             2209.01  2213.57  2221.79  2233.64  3409.02
                             4285.55  4358.20  4367.90  4370.77  4383.10
                             4396.49  4400.41  4418.94  4423.52  4437.86
                             4439.99  4451.51  4456.70  4463.12  4484.40
                             4486.47  4501.93  4508.75  4524.25  4566.76
                             5020.58

 Zero-point correction=                           0.306866 (Hartree/Particle)
 Thermal correction to Energy=                    0.323807
 Thermal correction to Enthalpy=                  0.324751
 Thermal correction to Gibbs Free Energy=         0.261908
 Sum of electronic and zero-point Energies=           -561.456220
 Sum of electronic and thermal Energies=              -561.439279
 Sum of electronic and thermal Enthalpies=            -561.438335
 Sum of electronic and thermal Free Energies=         -561.501177

                     E (Thermal)             CV                S
                      KCal/Mol        Cal/Mol-Kelvin    Cal/Mol-Kelvin
 Total                  203.192             60.498            132.264
 Electronic               0.000              0.000              0.000
 Translational            0.889              2.981             41.522
 Rotational               0.889              2.981             31.537
 Vibrational            201.414             54.536             59.205
 Vibration     1          0.594              1.984              5.821
 Vibration     2          0.594              1.983              5.593
 Vibration     3          0.596              1.977              4.745
 Vibration     4          0.599              1.967              4.080
 Vibration     5          0.600              1.961              3.818
 Vibration     6          0.605              1.945              3.349
 Vibration     7          0.612              1.923              2.945
 Vibration     8          0.624              1.883              2.465
 Vibration     9          0.629              1.867              2.331
 Vibration    10          0.637              1.843              2.152
 Vibration    11          0.642              1.828              2.059
 Vibration    12          0.648              1.808              1.948
 Vibration    13          0.664              1.757              1.708
 Vibration    14          0.672              1.734              1.618
 Vibration    15          0.679              1.714              1.544
 Vibration    16          0.696              1.664              1.388
 Vibration    17          0.708              1.630              1.295
 Vibration    18          0.727              1.576              1.168
 Vibration    19          0.732              1.563              1.139
 Vibration    20          0.746              1.524              1.061
 Vibration    21          0.747              1.519              1.052
 Vibration    22          0.777              1.442              0.916
 Vibration    23          0.792              1.404              0.857
 Vibration    24          0.862              1.235              0.642
 Vibration    25          0.944              1.060              0.473

 Optimization completed.
    -- Stationary point found.
 Normal termination of Gaussian 16 at Sun Dec 13 16:22:49 2020.

 ----------------------------------------------------------------------
 # B3LYP/6-311++G(d,p) empiricaldispersion=gd3bj scf=xqc pop=npa geom=c
 heck
 ----------------------------------------------------------------------

 ---------------------------------------
 CID_116757805_JID_3557_Energie_neutraal
 ---------------------------------------
 Structure from the checkpoint file:  "JID_3557.chk"
 Charge =  0 Multiplicity = 1

 SCF Done:  E(RB3LYP) =  -561.926957396     A.U. after   14 cycles
 Normal termination of Gaussian 16 at Sun Dec 13 16:26:45 2020.

 ----------------------------------------------------------------------
 # B3LYP/6-311++G(d,p) empiricaldispersion=gd3bj scf=xqc pop=npa geom=c
 heck
 ----------------------------------------------------------------------

 -------------------------------------
 CID_116757805_JID_3557_Energie_kation
 -------------------------------------
 Structure from the checkpoint file:  "JID_3557.chk"
 Charge =  1 Multiplicity = 2

 SCF Done:  E(UB3LYP) =  -561.633084563     A.U. after   26 cycles
 Normal termination of Gaussian 16 at Sun Dec 13 16:36:21 2020.
 Gaussian 16:  ES64L-G16RevA.03 25-Dec-2016

 ----------------------------------------------------------------------
 # B3LYP/6-311++G(d,p) empiricaldispersion=gd3bj scf=xqc pop=npa geom=c
 heck
 ----------------------------------------------------------------------

 ------------------------------------
 CID_116757805_JID_3557_Energie_anion
 ------------------------------------
 Structure from the checkpoint file:  "JID_3557.chk"
 Charge = -1 Multiplicity = 2

                         Standard orientation:
 ---------------------------------------------------------------------
 Center     Atomic      Atomic             Coordinates (Angstroms)
 Number     Number       Type             X           Y           Z
 ---------------------------------------------------------------------
      1          6           0        3.501111   -1.084473   -0.689539
      2          6           0        2.381678   -0.090365   -1.005589
      3          6           0        1.314572    0.054709    0.104543
      4          6           0        1.965928    0.552901    1.398761
      5          6           0        0.221454    1.064712   -0.384145
      6          6           0       -0.699138    0.451449   -1.491095
      7          6           0       -1.832416   -0.294782   -0.948903
      8          6           0       -2.786189   -0.859329   -0.463517
      9          6           0       -3.922568   -1.580999    0.103158
     10          7           0       -0.532647    1.668564    0.714331
     11          6           0       -1.246317    2.885868    0.338701
     12          8           0        0.773305   -1.272011    0.232717
     13          6           0        0.097967   -1.619078    1.423844
     14          1           0        4.135926   -0.740419    0.133613
     15          1           0        4.145408   -1.225525   -1.564358
     16          1           0        3.078001   -2.054066   -0.413327
     17          1           0        2.805948    0.901377   -1.207172
     18          1           0        1.883882   -0.412503   -1.927062
     19          1           0        2.488954    1.495428    1.205639
     20          1           0        1.224884    0.754719    2.171985
     21          1           0        2.693481   -0.175041    1.768903
     22          1           0        0.772817    1.889675   -0.853403
     23          1           0       -1.082247    1.269334   -2.114741
     24          1           0       -0.115464   -0.193306   -2.155263
     25          1           0       -4.734666   -0.899281    0.384164
     26          1           0       -4.330810   -2.302708   -0.614770
     27          1           0       -3.632054   -2.139357    1.001729
     28          1           0       -1.217434    0.988690    1.041065
     29          1           0       -1.988458    2.759234   -0.468392
     30          1           0       -1.769447    3.279085    1.216678
     31          1           0       -0.522067    3.642686    0.015657
     32          1           0        0.755030   -1.580511    2.302534
     33          1           0       -0.784921   -0.995858    1.612625
     34          1           0       -0.241159   -2.649201    1.284519
 ---------------------------------------------------------------------

 SCF Done:  E(UB3LYP) =  -561.911834980     A.U. after   33 cycles
 SCF Done:  E(UB3LYP) =  -561.911834980     a.u. after    1 cycles

 The electronic state is 2-A.
 Alpha  occ. eigenvalues --  -19.01834 -14.19418 -10.12975 -10.10593 -10.10340
 Alpha  occ. eigenvalues --  -10.08741 -10.08480 -10.08317 -10.06967 -10.06176
 Alpha  occ. eigenvalues --  -10.05945 -10.05613 -10.05588  -0.93110  -0.80894
 Alpha  occ. eigenvalues --   -0.70763  -0.68562  -0.65496  -0.63106  -0.59609
 Alpha  occ. eigenvalues --   -0.58878  -0.56570  -0.54247  -0.50566  -0.45549
 Alpha  occ. eigenvalues --   -0.40046  -0.38931  -0.38207  -0.36715  -0.36641
 Alpha  occ. eigenvalues --   -0.34966  -0.34214  -0.33174  -0.32442  -0.32361
 Alpha  occ. eigenvalues --   -0.31474  -0.31257  -0.30552  -0.29550  -0.28480
 Alpha  occ. eigenvalues --   -0.28204  -0.27919  -0.26510  -0.24971  -0.23826
 Alpha  occ. eigenvalues --   -0.23326  -0.20287  -0.16129  -0.15577  -0.14927
 Alpha  occ. eigenvalues --   -0.12612   0.04386
 Alpha virt. eigenvalues --    0.06074   0.06855   0.07642   0.08553   0.08645
 Alpha virt. eigenvalues --    0.09319   0.09694   0.10008   0.11065   0.11145
 Alpha virt. eigenvalues --    0.11360   0.11978   0.12031   0.12874   0.13663

  Beta  occ. eigenvalues --  -19.01827 -14.19406 -10.12975 -10.10572 -10.10333
  Beta  occ. eigenvalues --  -10.08730 -10.08450 -10.08257 -10.06955 -10.06161
  Beta  occ. eigenvalues --  -10.05943 -10.05609 -10.05570  -0.93099  -0.80875
  Beta  occ. eigenvalues --   -0.70745  -0.68532  -0.65450  -0.63078  -0.59566
  Beta  occ. eigenvalues --   -0.58830  -0.56511  -0.54202  -0.50523  -0.45514
  Beta  occ. eigenvalues --   -0.40014  -0.38900  -0.38184  -0.36690  -0.36610
  Beta  occ. eigenvalues --   -0.34917  -0.34189  -0.33147  -0.32387  -0.32304
  Beta  occ. eigenvalues --   -0.31439  -0.31225  -0.30521  -0.29527  -0.28456
  Beta  occ. eigenvalues --   -0.28175  -0.27892  -0.26481  -0.24943  -0.23808
  Beta  occ. eigenvalues --   -0.23304  -0.20271  -0.16115  -0.15557  -0.14910
  Beta  occ. eigenvalues --   -0.12592
  Beta virt. eigenvalues --    0.06368   0.07066   0.07393   0.08038   0.09044
  Beta virt. eigenvalues --    0.09080   0.09695   0.10031   0.10436   0.11351
  Beta virt. eigenvalues --    0.11566   0.11882   0.12177   0.12285   0.13092

 Mulliken charges and spin densities:
               1          2
     1  C    0.319105  -0.917887
     2  C   -0.902765   0.770544
     3  C   -1.146248   0.103859
     4  C    1.106060  -1.488543
     5  C   -0.640811   0.964625
     6  C    1.052838  -2.020616
     7  C   -0.794634   1.449768
     8  C   -2.837328   2.447031
     9  C    3.424906  -3.791382
    10  N    0.088070  -0.010941
    11  C    0.595530  -0.897139
    12  O    0.027889   0.012134
    13  C    0.446889  -0.642090
    14  H   -0.027954   0.147548
    15  H   -0.126794   0.269436
    16  H    0.072951   0.095607
    17  H   -0.265831   0.407172
    18  H    0.096328   0.017186
    19  H   -0.044958   0.216196
    20  H    0.060488   0.107536
    21  H    0.072572   0.074885
    22  H    0.136106   0.095769
    23  H   -0.183074   0.377916
    24  H    0.086414   0.060778
    25  H   -0.415184   0.582789
    26  H   -0.275600   0.431666
    27  H   -0.417061   0.588683
    28  H    0.263337  -0.079356
    29  H    0.052221   0.078645
    30  H   -0.331263   0.477389
    31  H   -0.294200   0.419732
    32  H   -0.085670   0.215617
    33  H   -0.058679   0.209767
    34  H   -0.053651   0.225676
 Sum of Mulliken charges =  -1.00000   1.00000

 Dipole moment (field-independent basis, Debye):
    X=              4.3574    Y=             -0.1203    Z=             -0.8240  Tot=              4.4362
 Quadrupole moment (field-independent basis, Debye-Ang):
   XX=           -159.9585   YY=           -133.0321   ZZ=           -116.8721
   XY=             -7.8586   XZ=              4.7656   YZ=              0.2923

 Summary of Natural Population Analysis:

                                       Natural Population
                Natural  -----------------------------------------------
    Atom  No    Charge         Core      Valence    Rydberg      Total
 -----------------------------------------------------------------------
      C    1   -0.28567      0.99966     2.28134    0.00466     3.28567
      C    2   -0.19405      0.99957     2.18443    0.01005     3.19405
      C    3    0.14491      0.99948     1.83790    0.01771     2.85509
      C    4   -0.30712      0.99961     2.30007    0.00745     3.30712
      C    5   -0.00856      0.99953     1.99386    0.01518     3.00856
      C    6   -0.23360      0.99955     2.22422    0.00983     3.23360
      C    7   -0.01722      0.99925     2.00851    0.00947     3.01722
      C    8   -0.01012      0.99923     2.00405    0.00685     3.01012
      C    9   -0.31803      0.99961     2.31194    0.00648     3.31803
      N   10   -0.34540      0.99974     2.83403    0.01163     3.84540
      C   11   -0.17491      0.99965     2.16828    0.00698     3.17491
      O   12   -0.31385      0.99987     3.30335    0.01063     4.31385
      C   13   -0.09601      0.99959     2.08666    0.00976     3.09601
      H   14    0.09458      0.00000     0.40438    0.00104     0.40542
      H   15    0.09682      0.00000     0.40235    0.00083     0.40318
      H   16    0.10459      0.00000     0.39415    0.00126     0.39541
      H   17    0.09654      0.00000     0.40221    0.00124     0.40346
      H   18    0.09783      0.00000     0.40070    0.00148     0.40217
      H   19    0.10572      0.00000     0.39326    0.00102     0.39428
      H   20    0.11321      0.00000     0.38550    0.00129     0.38679
      H   21    0.09956      0.00000     0.39947    0.00097     0.40044
      H   22    0.09715      0.00000     0.40111    0.00174     0.40285
      H   23    0.11090      0.00000     0.38788    0.00122     0.38910
      H   24    0.11419      0.00000     0.38407    0.00174     0.38581
      H   25    0.11226      0.00000     0.38590    0.00183     0.38774
      H   26    0.11101      0.00000     0.38766    0.00133     0.38899
      H   27    0.11229      0.00000     0.38555    0.00216     0.38771
      H   28    0.17757      0.00000     0.31853    0.00390     0.32243
      H   29    0.08096      0.00000     0.41712    0.00193     0.41904
      H   30    0.09478      0.00000     0.40408    0.00114     0.40522
      H   31    0.09028      0.00000     0.40823    0.00149     0.40972
      H   32    0.07805      0.00000     0.42078    0.00118     0.42195
      H   33    0.08005      0.00000     0.41821    0.00175     0.41995
      H   34    0.09131      0.00000     0.40762    0.00107     0.40869
 =======================================================================
   * Total *   -0.00000     12.99433    37.84740    0.15827    51.00000

 Normal termination of Gaussian 16 at Sun Dec 13 16:48:16 2020.
