 Gaussian 16, Revision A.03,

 -----------------------------------------------------------
 # opt freq B3LYP/6-31G(d) empiricaldispersion=gd3bj scf=xqc
 -----------------------------------------------------------

 -------------------------------
 CID_130585001_JID_1706_neutraal
 -------------------------------
 Symbolic Z-matrix:
 Charge =  0 Multiplicity = 1

 SCF Done:  E(RB3LYP) =  -503.062134862     A.U. after   14 cycles
 SCF Done:  E(RB3LYP) =  -503.064311322     A.U. after   13 cycles
 SCF Done:  E(RB3LYP) =  -503.060392597     A.U. after   14 cycles
 SCF Done:  E(RB3LYP) =  -503.064592498     A.U. after   12 cycles
 SCF Done:  E(RB3LYP) =  -503.065184903     A.U. after   12 cycles
 SCF Done:  E(RB3LYP) =  -503.065309445     A.U. after   13 cycles
 SCF Done:  E(RB3LYP) =  -503.065662862     A.U. after   14 cycles
 SCF Done:  E(RB3LYP) =  -503.066577167     A.U. after   16 cycles
 SCF Done:  E(RB3LYP) =  -503.067824979     A.U. after   13 cycles
 SCF Done:  E(RB3LYP) =  -503.070081242     A.U. after   15 cycles
 SCF Done:  E(RB3LYP) =  -503.070837585     A.U. after   12 cycles
 SCF Done:  E(RB3LYP) =  -503.070846226     A.U. after   11 cycles
 SCF Done:  E(RB3LYP) =  -503.070852450     A.U. after    9 cycles
 SCF Done:  E(RB3LYP) =  -503.070853519     A.U. after    8 cycles
 SCF Done:  E(RB3LYP) =  -503.070853791     A.U. after    7 cycles
 SCF Done:  E(RB3LYP) =  -503.070853834     A.U. after    7 cycles
 Optimization completed.
    -- Stationary point found.

 1\1\GINC-NODE114\FOpt\RB3LYP\6-31G(d)\C9H16O2\VSC10255\08-Dec-2020\0\\
 # opt freq B3LYP/6-31G(d) empiricaldispersion=gd3bj scf=xqc\\CID_13058
 5001_JID_1706_neutraal\\0,1\C,1.2187450052,0.0764408731,0.0514363128\C
 ,0.4776620507,0.7297675645,1.2222714253\C,0.5749804918,2.262139211,1.2
 405731117\C,-0.1771355884,2.9532741552,0.0938914674\C,0.0485211862,4.4
 709033979,0.0454086607\C,-0.7295466157,5.1990769719,1.1462232531\C,-2.
 2135977195,4.8390124808,1.0339236883\C,-2.4041620778,3.321237795,1.030
 5647698\O,-1.584385814,2.6313630498,0.0905278372\C,-2.2897389075,2.704

 Normal termination of Gaussian 16 at Tue Dec  8 20:45:02 2020.

 --------------------------------------------------------------------
 #N Geom=AllCheck Guess=TCheck SCRF=Check GenChk RB3LYP/6-31G(d) Freq
 --------------------------------------------------------------------

 Structure from the checkpoint file:  "JID_1706.chk"
 -------------------------------
 CID_130585001_JID_1706_neutraal
 -------------------------------
 Charge =  0 Multiplicity = 1

 SCF Done:  E(RB3LYP) =  -503.070853834     A.U. after    1 cycles

  Exact polarizability: 109.503  -0.966  94.088   0.902   0.317  83.829
 Approx polarizability: 139.124   4.652 130.433   6.573   4.284 133.253

                      1                      2                      3
                      A                      A                      A
 Frequencies --     49.5363                75.3906                89.5050
 Red. masses --      2.2987                 6.0514                 3.7198
 Frc consts  --      0.0033                 0.0203                 0.0176
 IR Inten    --      0.0257                 3.9145                 1.4640

                      4                      5                      6
                      A                      A                      A
 Frequencies --    123.4126               180.6242               211.2870
 Red. masses --      2.1249                 2.8545                 1.8708
 Frc consts  --      0.0191                 0.0549                 0.0492
 IR Inten    --      0.9794                 1.4107                 5.9223

                      7                      8                      9
                      A                      A                      A
 Frequencies --    229.6004               267.3724               298.7482
 Red. masses --      3.3853                 1.6142                 2.4065
 Frc consts  --      0.1051                 0.0680                 0.1265
 IR Inten    --      2.1275                 2.4349                 5.5804

                     10                     11                     12
                      A                      A                      A
 Frequencies --    350.9180               376.3966               423.0024
 Red. masses --      2.3240                 1.8274                 4.2471
 Frc consts  --      0.1686                 0.1525                 0.4477
 IR Inten    --      4.9497                 0.1591                 5.1194

                     13                     14                     15
                      A                      A                      A
 Frequencies --    454.3964               498.1139               557.5301
 Red. masses --      2.1801                 2.6014                 4.2575
 Frc consts  --      0.2652                 0.3803                 0.7797
 IR Inten    --      0.1652                12.4468                 0.7249

                     16                     17                     18
                      A                      A                      A
 Frequencies --    614.4247               676.4112               730.5367
 Red. masses --      3.9108                 1.8204                 1.7121
 Frc consts  --      0.8699                 0.4907                 0.5383
 IR Inten    --      2.3694                 2.3637                 1.9980

                     19                     20                     21
                      A                      A                      A
 Frequencies --    778.4456               826.7671               860.3837
 Red. masses --      2.7242                 1.8115                 1.8073
 Frc consts  --      0.9726                 0.7296                 0.7883
 IR Inten    --     12.6244                11.9372                 2.0608

                     22                     23                     24
                      A                      A                      A
 Frequencies --    873.6927               896.5854               908.7476
 Red. masses --      2.2735                 2.1411                 1.8668
 Frc consts  --      1.0225                 1.0141                 0.9083
 IR Inten    --      2.1195                 4.5595                 5.8885

                     25                     26                     27
                      A                      A                      A
 Frequencies --    937.9624               972.8961              1011.1540
 Red. masses --      1.9159                 1.6442                 1.8479
 Frc consts  --      0.9931                 0.9169                 1.1132
 IR Inten    --      8.1488                 1.0373                 1.4183

                     28                     29                     30
                      A                      A                      A
 Frequencies --   1039.0336              1053.8969              1079.8668
 Red. masses --      2.0313                 1.8704                 1.6154
 Frc consts  --      1.2921                 1.2240                 1.1099
 IR Inten    --     25.2941                10.5954                30.3600

                     31                     32                     33
                      A                      A                      A
 Frequencies --   1084.8477              1098.1873              1132.4654
 Red. masses --      1.9929                 1.8800                 2.6448
 Frc consts  --      1.3819                 1.3359                 1.9985
 IR Inten    --      3.4352                 6.3897                38.2467

                     34                     35                     36
                      A                      A                      A
 Frequencies --   1152.2005              1167.8262              1202.3541
 Red. masses --      1.8779                 2.4533                 1.4044
 Frc consts  --      1.4688                 1.9713                 1.1962
 IR Inten    --      3.0056                23.8449                 1.6543

                     37                     38                     39
                      A                      A                      A
 Frequencies --   1250.2038              1276.0828              1303.2642
 Red. masses --      1.5951                 1.3223                 1.2718
 Frc consts  --      1.4689                 1.2686                 1.2727
 IR Inten    --     33.3451                 2.7698                 5.6192

                     40                     41                     42
                      A                      A                      A
 Frequencies --   1314.3794              1336.9692              1356.9750
 Red. masses --      1.2239                 1.4916                 1.2249
 Frc consts  --      1.2457                 1.5709                 1.3289
 IR Inten    --      3.3042                 4.1444                 4.9805

                     43                     44                     45
                      A                      A                      A
 Frequencies --   1365.1712              1382.4752              1390.7322
 Red. masses --      1.2670                 1.3793                 1.4060
 Frc consts  --      1.3913                 1.5532                 1.6023
 IR Inten    --      2.2417                 0.4507                 3.2256

                     46                     47                     48
                      A                      A                      A
 Frequencies --   1399.2675              1404.2022              1414.4451
 Red. masses --      1.4922                 1.4211                 1.3241
 Frc consts  --      1.7214                 1.6510                 1.5608
 IR Inten    --      0.9898                 0.0540                 7.0854

                     49                     50                     51
                      A                      A                      A
 Frequencies --   1423.5940              1430.0361              1444.1756
 Red. masses --      1.3030                 1.4044                 1.2604
 Frc consts  --      1.5558                 1.6921                 1.5488
 IR Inten    --      6.7223                 3.3123                 3.7060

                     52                     53                     54
                      A                      A                      A
 Frequencies --   1502.0824              1515.6565              1516.3008
 Red. masses --      1.0924                 1.0842                 1.0866
 Frc consts  --      1.4522                 1.4675                 1.4719
 IR Inten    --      4.9826                 4.7050                 4.4031

                     55                     56                     57
                      A                      A                      A
 Frequencies --   1517.7353              1531.9023              1534.1430
 Red. masses --      1.0692                 1.0578                 1.0942
 Frc consts  --      1.4511                 1.4626                 1.5174
 IR Inten    --      0.1643                 5.9275                 5.9337

                     58                     59                     60
                      A                      A                      A
 Frequencies --   1539.3563              1825.7986              2932.4913
 Red. masses --      1.0529                10.4582                 1.0849
 Frc consts  --      1.4699                20.5407                 5.4969
 IR Inten    --      8.1327               112.4471               105.8913

                     61                     62                     63
                      A                      A                      A
 Frequencies --   3013.3127              3034.1399              3043.9102
 Red. masses --      1.0823                 1.0631                 1.0641
 Frc consts  --      5.7900                 5.7664                 5.8088
 IR Inten    --     28.3523                11.8258                26.9513

                     64                     65                     66
                      A                      A                      A
 Frequencies --   3045.8683              3048.1194              3057.1882
 Red. masses --      1.0391                 1.0643                 1.0649
 Frc consts  --      5.6799                 5.8258                 5.8644
 IR Inten    --     18.0257                24.5525                16.4070

                     67                     68                     69
                      A                      A                      A
 Frequencies --   3061.6326              3071.4489              3083.1407
 Red. masses --      1.0666                 1.0867                 1.0964
 Frc consts  --      5.8904                 6.0401                 6.1407
 IR Inten    --     23.5702                 1.9588                20.7360

                     70                     71                     72
                      A                      A                      A
 Frequencies --   3086.0886              3090.2592              3099.6979
 Red. masses --      1.0983                 1.0959                 1.1015
 Frc consts  --      6.1631                 6.1659                 6.2355
 IR Inten    --     27.0686                87.2919                47.9197

                     73                     74                     75
                      A                      A                      A
 Frequencies --   3112.8258              3119.9190              3120.9935
 Red. masses --      1.1011                 1.1017                 1.1002
 Frc consts  --      6.2863                 6.3181                 6.3139
 IR Inten    --     50.2367                45.0755                22.9212

 - Thermochemistry -
 -------------------
 Temperature   298.150 Kelvin.  Pressure   1.00000 Atm.
 Atom     1 has atomic number  6 and mass  12.00000

 Molecular mass:   156.11503 amu.
 Principal axes and moments of inertia in atomic units:
                           1         2         3
     Eigenvalues --  1136.051302205.139762731.64218
           X            0.99926  -0.03828  -0.00428
           Y            0.03814   0.99884  -0.02948
           Z            0.00541   0.02930   0.99956
 This molecule is an asymmetric top.
 Rotational symmetry number  1.
 Warning -- assumption of classical behavior for rotation
           may cause significant error
 Rotational temperatures (Kelvin)      0.07624     0.03928     0.03171
 Rotational constants (GHZ):           1.58861     0.81842     0.66068
 Zero-point vibrational energy     635698.6 (Joules/Mol)
                                  151.93561 (Kcal/Mol)
 Warning -- explicit consideration of  16 degrees of freedom as
           vibrations may cause significant error
 Vibrational temperatures:     71.27   108.47   128.78   177.56   259.88
          (Kelvin)            303.99   330.34   384.69   429.83   504.89
                              541.55   608.61   653.78   716.67   802.16
                              884.02   973.20  1051.08  1120.01  1189.53
                             1237.90  1257.05  1289.99  1307.49  1349.52
                             1399.78  1454.83  1494.94  1516.32  1553.69
                             1560.85  1580.05  1629.37  1657.76  1680.24
                             1729.92  1798.76  1836.00  1875.11  1891.10
                             1923.60  1952.38  1964.18  1989.07  2000.95
                             2013.23  2020.33  2035.07  2048.23  2057.50
                             2077.85  2161.16  2180.69  2181.62  2183.68
                             2204.07  2207.29  2214.79  2626.92  4219.20
                             4335.48  4365.45  4379.51  4382.33  4385.56
                             4398.61  4405.01  4419.13  4435.95  4440.19
                             4446.19  4459.77  4478.66  4488.87  4490.41

 Zero-point correction=                           0.242125 (Hartree/Particle)
 Thermal correction to Energy=                    0.253474
 Thermal correction to Enthalpy=                  0.254418
 Thermal correction to Gibbs Free Energy=         0.204742
 Sum of electronic and zero-point Energies=           -502.828729
 Sum of electronic and thermal Energies=              -502.817380
 Sum of electronic and thermal Enthalpies=            -502.816435
 Sum of electronic and thermal Free Energies=         -502.866111

                     E (Thermal)             CV                S
                      KCal/Mol        Cal/Mol-Kelvin    Cal/Mol-Kelvin
 Total                  159.057             42.955            104.552
 Electronic               0.000              0.000              0.000
 Translational            0.889              2.981             41.046
 Rotational               0.889              2.981             30.305
 Vibrational            157.280             36.993             33.202
 Vibration     1          0.595              1.978              4.836
 Vibration     2          0.599              1.965              4.007
 Vibration     3          0.602              1.957              3.671
 Vibration     4          0.610              1.929              3.046
 Vibration     5          0.630              1.866              2.322
 Vibration     6          0.643              1.824              2.033
 Vibration     7          0.652              1.796              1.882
 Vibration     8          0.672              1.733              1.613
 Vibration     9          0.692              1.676              1.424
 Vibration    10          0.728              1.573              1.162
 Vibration    11          0.747              1.520              1.054
 Vibration    12          0.785              1.420              0.882
 Vibration    13          0.813              1.351              0.783
 Vibration    14          0.854              1.254              0.663
 Vibration    15          0.913              1.123              0.529
 Vibration    16          0.974              1.001              0.426

 Optimization completed.
    -- Stationary point found.

 1\1\GINC-NODE114\Freq\RB3LYP\6-31G(d)\C9H16O2\VSC10255\08-Dec-2020\0\\
 #N Geom=AllCheck Guess=TCheck SCRF=Check GenChk RB3LYP/6-31G(d) Freq\\
 CID_130585001_JID_1706_neutraal\\0,1\C,1.2187450052,0.0764408731,0.051
 4363128\C,0.4776620507,0.7297675645,1.2222714253\C,0.5749804918,2.2621
 39211,1.2405731117\C,-0.1771355884,2.9532741552,0.0938914674\C,0.04852
 11862,4.4709033979,0.0454086607\C,-0.7295466157,5.1990769719,1.1462232
 531\C,-2.2135977195,4.8390124808,1.0339236883\C,-2.4041620778,3.321237
 795,1.0305647698\O,-1.584385814,2.6313630498,0.0905278372\C,-2.2897389

 Normal termination of Gaussian 16 at Tue Dec  8 20:53:09 2020.

 ----------------------------------------------------------------------
 # B3LYP/6-311++G(d,p) empiricaldispersion=gd3bj scf=xqc pop=npa geom=c
 heck
 ----------------------------------------------------------------------

 ---------------------------------------
 CID_130585001_JID_1706_Energie_neutraal
 ---------------------------------------
 Structure from the checkpoint file:  "JID_1706.chk"
 Charge =  0 Multiplicity = 1

 SCF Done:  E(RB3LYP) =  -503.215645506     A.U. after   13 cycles
 Normal termination of Gaussian 16 at Tue Dec  8 20:55:53 2020.

 ----------------------------------------------------------------------
 # B3LYP/6-311++G(d,p) empiricaldispersion=gd3bj scf=xqc pop=npa geom=c
 heck
 ----------------------------------------------------------------------

 -------------------------------------
 CID_130585001_JID_1706_Energie_kation
 -------------------------------------
 Structure from the checkpoint file:  "JID_1706.chk"
 Charge =  1 Multiplicity = 2

 SCF Done:  E(UB3LYP) =  -502.887758581     A.U. after   20 cycles
 Normal termination of Gaussian 16 at Tue Dec  8 21:01:52 2020.
 Gaussian 16:  ES64L-G16RevA.03 25-Dec-2016

 ------------------------------------
 CID_130585001_JID_1706_Energie_anion
 ------------------------------------
 Structure from the checkpoint file:  "JID_1706.chk"
 Charge = -1 Multiplicity = 2

                         Standard orientation:
 ---------------------------------------------------------------------
 Center     Atomic      Atomic             Coordinates (Angstroms)
 Number     Number       Type             X           Y           Z
 ---------------------------------------------------------------------
      1          6           0       -3.624810    0.090892   -0.220208
      2          6           0       -2.387862    0.821929    0.311242
      3          6           0       -1.290582   -0.115690    0.835471
      4          6           0       -0.600232   -0.946953   -0.255695
      5          6           0        0.390947   -1.978674    0.300710
      6          6           0        1.689139   -1.321750    0.780886
      7          6           0        2.295155   -0.509740   -0.367177
      8          6           0        1.269456    0.471567   -0.937216
      9          8           0        0.014984   -0.119753   -1.266260
     10          6           0        1.086477    1.714027   -0.063977
     11          8           0        1.882126    2.093235    0.767004
     12          1           0       -3.387493   -0.532182   -1.089439
     13          1           0       -4.397039    0.802948   -0.531146
     14          1           0       -4.060215   -0.559681    0.548484
     15          1           0       -1.971942    1.453273   -0.482495
     16          1           0       -2.689230    1.496424    1.122538
     17          1           0       -0.545031    0.463021    1.394826
     18          1           0       -1.728182   -0.815662    1.561216
     19          1           0       -1.372952   -1.480046   -0.818658
     20          1           0        0.629670   -2.694478   -0.496499
     21          1           0       -0.091664   -2.542966    1.107506
     22          1           0        1.498218   -0.664782    1.637819
     23          1           0        2.398408   -2.084296    1.121666
     24          1           0        3.171261    0.054998   -0.035163
     25          1           0        2.610546   -1.187233   -1.169565
     26          1           0        1.634375    0.864108   -1.899118
     27          1           0        0.158254    2.285046   -0.282133
 ---------------------------------------------------------------------

 SCF Done:  E(UB3LYP) =  -503.204299973     A.U. after   32 cycles

 The electronic state is 2-A.
 Alpha  occ. eigenvalues --  -19.00700 -18.98394 -10.11101 -10.10560 -10.10551
 Alpha  occ. eigenvalues --  -10.05712 -10.05509 -10.05403 -10.05313 -10.05151
 Alpha  occ. eigenvalues --  -10.05112  -0.92366  -0.91106  -0.69624  -0.68440
 Alpha  occ. eigenvalues --   -0.65110  -0.58585  -0.54753  -0.52369  -0.48304
 Alpha  occ. eigenvalues --   -0.46831  -0.40729  -0.39550  -0.36154  -0.35241
 Alpha  occ. eigenvalues --   -0.34387  -0.33575  -0.31980  -0.31018  -0.30800
 Alpha  occ. eigenvalues --   -0.28686  -0.28102  -0.26777  -0.26060  -0.25422
 Alpha  occ. eigenvalues --   -0.23192  -0.23072  -0.22548  -0.21552  -0.21128
 Alpha  occ. eigenvalues --   -0.17993  -0.16013  -0.11770   0.04919
 Alpha virt. eigenvalues --    0.06993   0.07636   0.08443   0.09029   0.09684
 Alpha virt. eigenvalues --    0.10359   0.10728   0.11538   0.12357   0.12407
 Alpha virt. eigenvalues --    0.12918   0.13296   0.13899   0.14688   0.15807

  Beta  occ. eigenvalues --  -19.00674 -18.98138 -10.10834 -10.10576 -10.10548
  Beta  occ. eigenvalues --  -10.05703 -10.05501 -10.05384 -10.05291 -10.05117
  Beta  occ. eigenvalues --  -10.05083  -0.92137  -0.90772  -0.69584  -0.68393
  Beta  occ. eigenvalues --   -0.65033  -0.58469  -0.54553  -0.52309  -0.48140
  Beta  occ. eigenvalues --   -0.46549  -0.40540  -0.39410  -0.36057  -0.35192
  Beta  occ. eigenvalues --   -0.34358  -0.33428  -0.31787  -0.30866  -0.30722
  Beta  occ. eigenvalues --   -0.28461  -0.27892  -0.26736  -0.25965  -0.24664
  Beta  occ. eigenvalues --   -0.23153  -0.22815  -0.22465  -0.21491  -0.20938
  Beta  occ. eigenvalues --   -0.17926  -0.15920  -0.11598
  Beta virt. eigenvalues --    0.07346   0.08084   0.08926   0.09281   0.09948
  Beta virt. eigenvalues --    0.10274   0.10701   0.11229   0.11909   0.12446
  Beta virt. eigenvalues --    0.12688   0.13232   0.13479   0.14225   0.14867

 Mulliken charges and spin densities:
               1          2
     1  C    0.932646  -1.519776
     2  C   -0.733659   0.556479
     3  C   -0.118314  -0.155763
     4  C    0.082975  -0.016313
     5  C    0.861894  -1.269263
     6  C   -0.738914   0.483608
     7  C    0.981907  -1.520337
     8  C   -0.467996   0.697324
     9  O   -0.096833  -0.008516
    10  C   -0.070536  -0.144930
    11  O   -0.259605   0.083421
    12  H   -0.231469   0.372061
    13  H   -0.193081   0.319102
    14  H   -0.246938   0.378958
    15  H    0.175129  -0.063083
    16  H   -0.080551   0.214164
    17  H    0.189200  -0.017063
    18  H   -0.217061   0.380859
    19  H    0.056549   0.164256
    20  H   -0.229662   0.386068
    21  H   -0.303456   0.437535
    22  H    0.183770  -0.020565
    23  H   -0.160399   0.321700
    24  H    0.094480   0.074248
    25  H   -0.327807   0.486444
    26  H   -0.148101   0.376627
    27  H    0.065833   0.002754
 Sum of Mulliken charges =  -1.00000   1.00000

 Dipole moment (field-independent basis, Debye):
    X=              0.4255    Y=              1.8985    Z=              0.4007  Tot=              1.9865
 Quadrupole moment (field-independent basis, Debye-Ang):
   XX=           -126.6832   YY=           -106.7507   ZZ=            -96.8781
   XY=             -4.7789   XZ=              2.2014   YZ=             -2.9932

 Summary of Natural Population Analysis:

                                       Natural Population
                Natural  -----------------------------------------------
    Atom  No    Charge         Core      Valence    Rydberg      Total
 -----------------------------------------------------------------------
      C    1   -0.28612      0.99967     2.28172    0.00473     3.28612
      C    2   -0.19217      0.99964     2.18342    0.00911     3.19217
      C    3   -0.20612      0.99960     2.19737    0.00915     3.20612
      C    4    0.06780      0.99952     1.91705    0.01563     2.93220
      C    5   -0.19970      0.99961     2.19109    0.00900     3.19970
      C    6   -0.19339      0.99962     2.18485    0.00891     3.19339
      C    7   -0.20359      0.99961     2.19369    0.01029     3.20359
      C    8    0.01804      0.99952     1.96677    0.01567     2.98196
      O    9   -0.30626      0.99989     3.29673    0.00965     4.30626
      C   10    0.24269      0.99971     1.73697    0.02063     2.75731
      O   11   -0.26600      0.99988     3.26000    0.00613     4.26600
      H   12    0.09727      0.00000     0.40161    0.00112     0.40273
      H   13    0.09630      0.00000     0.40280    0.00090     0.40370
      H   14    0.09587      0.00000     0.40278    0.00135     0.40413
      H   15    0.09888      0.00000     0.39948    0.00164     0.40112
      H   16    0.09225      0.00000     0.40684    0.00091     0.40775
      H   17    0.10268      0.00000     0.39605    0.00127     0.39732
      H   18    0.09962      0.00000     0.39905    0.00133     0.40038
      H   19    0.09154      0.00000     0.40671    0.00175     0.40846
      H   20    0.09830      0.00000     0.40015    0.00155     0.40170
      H   21    0.10121      0.00000     0.39752    0.00127     0.39879
      H   22    0.09814      0.00000     0.40054    0.00132     0.40186
      H   23    0.09801      0.00000     0.40103    0.00095     0.40199
      H   24    0.10975      0.00000     0.38925    0.00099     0.39025
      H   25    0.09809      0.00000     0.40035    0.00155     0.40191
      H   26    0.10440      0.00000     0.39393    0.00167     0.39560
      H   27    0.04251      0.00000     0.45502    0.00246     0.45749
 =======================================================================
   * Total *   -0.00000     10.99626    31.86279    0.14095    43.00000

 Normal termination of Gaussian 16 at Tue Dec  8 21:12:50 2020.
