 Gaussian 16, Revision A.03,

 -----------------------------------------------------------
 # opt freq B3LYP/6-31G(d) empiricaldispersion=gd3bj scf=xqc
 -----------------------------------------------------------

 ------------------------------
 CID_92930010_JID_7001_neutraal
 ------------------------------
 Symbolic Z-matrix:
 Charge =  0 Multiplicity = 1

 SCF Done:  E(RB3LYP) =  -730.324960747     A.U. after   14 cycles
 SCF Done:  E(RB3LYP) =  -730.328819836     A.U. after   12 cycles
 SCF Done:  E(RB3LYP) =  -730.329523185     A.U. after   12 cycles
 SCF Done:  E(RB3LYP) =  -730.329926993     A.U. after   12 cycles
 SCF Done:  E(RB3LYP) =  -730.330256568     A.U. after   11 cycles
 SCF Done:  E(RB3LYP) =  -730.330696627     A.U. after   12 cycles
 SCF Done:  E(RB3LYP) =  -730.330928967     A.U. after   12 cycles
 SCF Done:  E(RB3LYP) =  -730.331002067     A.U. after   12 cycles
 SCF Done:  E(RB3LYP) =  -730.331103401     A.U. after   11 cycles
 SCF Done:  E(RB3LYP) =  -730.331089099     A.U. after   11 cycles
 SCF Done:  E(RB3LYP) =  -730.331194380     A.U. after    9 cycles
 SCF Done:  E(RB3LYP) =  -730.331194534     A.U. after    7 cycles
 SCF Done:  E(RB3LYP) =  -730.331194757     A.U. after    9 cycles
 SCF Done:  E(RB3LYP) =  -730.331194812     A.U. after    7 cycles
 SCF Done:  E(RB3LYP) =  -730.331194853     A.U. after    7 cycles
 Optimization completed.
    -- Stationary point found.
 Normal termination of Gaussian 16 at Sun Dec 13 16:26:26 2020.

 --------------------------------------------------------------------
 #N Geom=AllCheck Guess=TCheck SCRF=Check GenChk RB3LYP/6-31G(d) Freq
 --------------------------------------------------------------------

 Structure from the checkpoint file:  "JID_7001.chk"
 ------------------------------
 CID_92930010_JID_7001_neutraal
 ------------------------------
 Charge =  0 Multiplicity = 1

 SCF Done:  E(RB3LYP) =  -730.331194853     A.U. after    1 cycles

  Exact polarizability: 177.122  -1.154 191.254 -26.465   3.204 107.094
 Approx polarizability: 249.388  -8.719 305.588 -53.143  13.223 178.347

                      1                      2                      3
                      A                      A                      A
 Frequencies --     15.3366                37.6166                54.4121
 Red. masses --      3.9090                 4.1679                 3.9138
 Frc consts  --      0.0005                 0.0035                 0.0068
 IR Inten    --      0.4876                 0.6084                 0.1631

                      4                      5                      6
                      A                      A                      A
 Frequencies --     87.2382               105.7543               146.7985
 Red. masses --      4.2097                 3.8198                 3.2952
 Frc consts  --      0.0189                 0.0252                 0.0418
 IR Inten    --      0.6030                 0.4680                 2.9000

                      7                      8                      9
                      A                      A                      A
 Frequencies --    184.4377               210.2237               219.6464
 Red. masses --      2.9489                 2.5985                 1.2260
 Frc consts  --      0.0591                 0.0677                 0.0348
 IR Inten    --      0.2125                 2.4480                 1.0292

                     10                     11                     12
                      A                      A                      A
 Frequencies --    222.5087               254.1931               267.9053
 Red. masses --      3.4420                 1.5262                 1.7647
 Frc consts  --      0.1004                 0.0581                 0.0746
 IR Inten    --      7.1496                 0.3752                 0.2246

                     13                     14                     15
                      A                      A                      A
 Frequencies --    298.2560               344.2659               349.8548
 Red. masses --      2.6342                 2.3915                 2.2988
 Frc consts  --      0.1381                 0.1670                 0.1658
 IR Inten    --      4.2360                 1.2210                26.7062

                     16                     17                     18
                      A                      A                      A
 Frequencies --    369.9812               401.3015               435.2782
 Red. masses --      1.8121                 2.0160                 2.3329
 Frc consts  --      0.1462                 0.1913                 0.2604
 IR Inten    --     44.5651                 8.1318                10.7265

                     19                     20                     21
                      A                      A                      A
 Frequencies --    436.2652               466.7322               470.6727
 Red. masses --      2.7878                 2.9022                 3.0012
 Frc consts  --      0.3126                 0.3725                 0.3917
 IR Inten    --      0.4541                 1.2428                 4.0342

                     22                     23                     24
                      A                      A                      A
 Frequencies --    487.6301               547.2650               562.5056
 Red. masses --      2.7101                 3.1875                 4.0884
 Frc consts  --      0.3797                 0.5625                 0.7622
 IR Inten    --      9.6221                13.1540                 1.0937

                     25                     26                     27
                      A                      A                      A
 Frequencies --    576.9093               589.3892               598.3593
 Red. masses --      4.3137                 3.0945                 1.1646
 Frc consts  --      0.8459                 0.6333                 0.2457
 IR Inten    --      0.4203                 7.7474                62.3500

                     28                     29                     30
                      A                      A                      A
 Frequencies --    654.8325               708.7119               753.7260
 Red. masses --      2.6619                 3.9744                 1.2735
 Frc consts  --      0.6725                 1.1761                 0.4263
 IR Inten    --      0.1220                 3.2736                75.2842

                     31                     32                     33
                      A                      A                      A
 Frequencies --    778.2788               780.8071               788.6702
 Red. masses --      3.1615                 4.1663                 3.0955
 Frc consts  --      1.1283                 1.4965                 1.1344
 IR Inten    --      1.9023                 2.5018                 3.6990

                     34                     35                     36
                      A                      A                      A
 Frequencies --    795.2191               833.4839               857.6423
 Red. masses --      1.7622                 1.3729                 1.5197
 Frc consts  --      0.6566                 0.5619                 0.6586
 IR Inten    --      2.2218               112.7031                 2.8916

                     37                     38                     39
                      A                      A                      A
 Frequencies --    873.2433               893.0234               913.1837
 Red. masses --      2.2961                 4.5012                 1.8649
 Frc consts  --      1.0316                 2.1150                 0.9163
 IR Inten    --      3.1344                 1.0791                 6.4233

                     40                     41                     42
                      A                      A                      A
 Frequencies --    921.7262               924.9021               939.9784
 Red. masses --      2.3509                 1.3466                 1.5845
 Frc consts  --      1.1768                 0.6787                 0.8249
 IR Inten    --      2.9927                 2.7834                 6.6803

                     43                     44                     45
                      A                      A                      A
 Frequencies --    965.4663               966.0305              1010.2682
 Red. masses --      2.2891                 1.2272                 1.6601
 Frc consts  --      1.2571                 0.6748                 0.9983
 IR Inten    --     46.9078                 0.6551                 4.7950

                     46                     47                     48
                      A                      A                      A
 Frequencies --   1021.3532              1037.2660              1047.7501
 Red. masses --      1.7306                 1.6044                 2.1338
 Frc consts  --      1.0636                 1.0170                 1.3801
 IR Inten    --      3.5611                 4.8896                 6.5479

                     49                     50                     51
                      A                      A                      A
 Frequencies --   1092.4379              1098.3208              1117.9120
 Red. masses --      2.7335                 2.1509                 1.5244
 Frc consts  --      1.9221                 1.5287                 1.1224
 IR Inten    --      4.6822                 4.7082                32.9625

                     52                     53                     54
                      A                      A                      A
 Frequencies --   1139.5535              1161.0293              1187.7120
 Red. masses --      2.4078                 1.5213                 1.1653
 Frc consts  --      1.8422                 1.2082                 0.9685
 IR Inten    --     51.2966                 3.4291                 2.6097

                     55                     56                     57
                      A                      A                      A
 Frequencies --   1192.6957              1209.0321              1228.2878
 Red. masses --      1.7612                 1.5095                 1.5614
 Frc consts  --      1.4761                 1.3000                 1.3879
 IR Inten    --     40.4232                11.3584                15.4277

                     58                     59                     60
                      A                      A                      A
 Frequencies --   1258.3724              1259.0399              1289.9396
 Red. masses --      2.4501                 2.5197                 1.5261
 Frc consts  --      2.2859                 2.3533                 1.4961
 IR Inten    --     12.3860                18.5857                 5.9190

                     61                     62                     63
                      A                      A                      A
 Frequencies --   1292.1632              1335.3841              1339.1977
 Red. masses --      1.7278                 2.2156                 1.3606
 Frc consts  --      1.6997                 2.3279                 1.4377
 IR Inten    --      8.7668                 9.8530                54.5407

                     64                     65                     66
                      A                      A                      A
 Frequencies --   1369.4787              1383.7793              1389.0154
 Red. masses --      1.5570                 1.5074                 2.4468
 Frc consts  --      1.7205                 1.7007                 2.7813
 IR Inten    --     11.5368                20.0784                24.1523

                     67                     68                     69
                      A                      A                      A
 Frequencies --   1400.9709              1410.0913              1420.3450
 Red. masses --      2.3169                 1.2989                 1.2623
 Frc consts  --      2.6793                 1.5216                 1.5004
 IR Inten    --     21.7526                 5.0386                12.4294

                     70                     71                     72
                      A                      A                      A
 Frequencies --   1440.9750              1456.5159              1465.3627
 Red. masses --      1.2724                 1.4736                 2.5667
 Frc consts  --      1.5566                 1.8419                 3.2472
 IR Inten    --     23.2319               105.7985                21.1984

                     73                     74                     75
                      A                      A                      A
 Frequencies --   1499.3891              1503.6246              1505.9783
 Red. masses --      2.4600                 1.0723                 1.1502
 Frc consts  --      3.2585                 1.4284                 1.5370
 IR Inten    --     19.0818                 0.0884                19.7109

                     76                     77                     78
                      A                      A                      A
 Frequencies --   1510.6098              1513.6806              1523.8438
 Red. masses --      1.0976                 1.1020                 1.0725
 Frc consts  --      1.4757                 1.4877                 1.4674
 IR Inten    --      7.6231                 2.8860                 4.2518

                     79                     80                     81
                      A                      A                      A
 Frequencies --   1531.2213              1535.4235              1541.9203
 Red. masses --      1.1031                 1.1384                 2.1692
 Frc consts  --      1.5239                 1.5812                 3.0386
 IR Inten    --      2.4027                13.5469                 4.9992

                     82                     83                     84
                      A                      A                      A
 Frequencies --   1543.6430              1605.4564              1633.0607
 Red. masses --      1.2119                 5.5464                 5.5895
 Frc consts  --      1.7014                 8.4229                 8.7827
 IR Inten    --      5.0935                 6.7646                 0.7192

                     85                     86                     87
                      A                      A                      A
 Frequencies --   1680.7950              2987.4414              3040.4882
 Red. masses --      6.1598                 1.0687                 1.0603
 Frc consts  --     10.2528                 5.6195                 5.7752
 IR Inten    --      4.8368                50.9639                22.9158

                     88                     89                     90
                      A                      A                      A
 Frequencies --   3044.0180              3048.3232              3054.8009
 Red. masses --      1.0617                 1.0356                 1.0360
 Frc consts  --      5.7961                 5.6696                 5.6963
 IR Inten    --     46.9860                26.4800                14.8960

                     91                     92                     93
                      A                      A                      A
 Frequencies --   3076.5337              3080.6949              3091.6211
 Red. masses --      1.0950                 1.0981                 1.1053
 Frc consts  --      6.1062                 6.1404                 6.2245
 IR Inten    --      6.1606                53.2948                54.0982

                     94                     95                     96
                      A                      A                      A
 Frequencies --   3115.4048              3122.5930              3129.2205
 Red. masses --      1.1012                 1.1019                 1.1030
 Frc consts  --      6.2974                 6.3303                 6.3634
 IR Inten    --     21.0127                25.1431                31.5691

                     97                     98                     99
                      A                      A                      A
 Frequencies --   3132.3957              3184.3267              3192.9035
 Red. masses --      1.1021                 1.0856                 1.0891
 Frc consts  --      6.3710                 6.4858                 6.5419
 IR Inten    --     48.9738                 1.0541                12.7876

                    100                    101                    102
                      A                      A                      A
 Frequencies --   3206.4132              3215.9433              3263.5877
 Red. masses --      1.0930                 1.0950                 1.0965
 Frc consts  --      6.6209                 6.6722                 6.8809
 IR Inten    --     31.8553                17.4800                 2.0660

                    103                    104                    105
                      A                      A                      A
 Frequencies --   3498.6920              3587.9208              3672.4969
 Red. masses --      1.0729                 1.0645                 1.0801
 Frc consts  --      7.7381                 8.0740                 8.5827
 IR Inten    --      7.1159               106.1325                66.6740

 - Thermochemistry -
 -------------------
 Temperature   298.150 Kelvin.  Pressure   1.00000 Atm.
 Atom     1 has atomic number  6 and mass  12.00000

 Molecular mass:   232.15756 amu.
 Principal axes and moments of inertia in atomic units:
                           1         2         3
     Eigenvalues --  2415.999196089.546047699.62755
           X            0.99989  -0.00938  -0.01126
           Y            0.00933   0.99995  -0.00454
           Z            0.01130   0.00443   0.99993
 This molecule is an asymmetric top.
 Rotational symmetry number  1.
 Warning -- assumption of classical behavior for rotation
           may cause significant error
 Rotational temperatures (Kelvin)      0.03585     0.01422     0.01125
 Rotational constants (GHZ):           0.74700     0.29637     0.23439
 Zero-point vibrational energy     849458.5 (Joules/Mol)
                                  203.02546 (Kcal/Mol)
 Warning -- explicit consideration of  27 degrees of freedom as
           vibrations may cause significant error
 Vibrational temperatures:     22.07    54.12    78.29   125.52   152.16
          (Kelvin)            211.21   265.36   302.47   316.02   320.14
                              365.73   385.46   429.12   495.32   503.36
                              532.32   577.38   626.27   627.69   671.52
                              677.19   701.59   787.39   809.32   830.04
                              848.00   860.91   942.16  1019.68  1084.44
                             1119.77  1123.41  1134.72  1144.14  1199.20
                             1233.96  1256.40  1284.86  1313.87  1326.16
                             1330.73  1352.42  1389.09  1389.90  1453.55
                             1469.50  1492.39  1507.48  1571.77  1580.24
                             1608.43  1639.56  1670.46  1708.85  1716.02
                             1739.53  1767.23  1810.52  1811.48  1855.94
                             1859.13  1921.32  1926.81  1970.37  1990.95
                             1998.48  2015.68  2028.81  2043.56  2073.24
                             2095.60  2108.33  2157.29  2163.38  2166.77
                             2173.43  2177.85  2192.47  2203.09  2209.13
                             2218.48  2220.96  2309.89  2349.61  2418.29
                             4298.26  4374.58  4379.66  4385.86  4395.18
                             4426.45  4432.43  4448.15  4482.37  4492.71
                             4502.25  4506.82  4581.54  4593.88  4613.31
                             4627.03  4695.57  5033.84  5162.22  5283.90

 Zero-point correction=                           0.323542 (Hartree/Particle)
 Thermal correction to Energy=                    0.339879
 Thermal correction to Enthalpy=                  0.340823
 Thermal correction to Gibbs Free Energy=         0.278880
 Sum of electronic and zero-point Energies=           -730.007653
 Sum of electronic and thermal Energies=              -729.991316
 Sum of electronic and thermal Enthalpies=            -729.990372
 Sum of electronic and thermal Free Energies=         -730.052315

                     E (Thermal)             CV                S
                      KCal/Mol        Cal/Mol-Kelvin    Cal/Mol-Kelvin
 Total                  213.277             64.701            130.371
 Electronic               0.000              0.000              0.000
 Translational            0.889              2.981             42.229
 Rotational               0.889              2.981             33.093
 Vibrational            211.500             58.739             55.049
 Vibration     1          0.593              1.986              7.161
 Vibration     2          0.594              1.982              5.381
 Vibration     3          0.596              1.976              4.650
 Vibration     4          0.601              1.958              3.721
 Vibration     5          0.605              1.945              3.345
 Vibration     6          0.617              1.906              2.713
 Vibration     7          0.631              1.861              2.283
 Vibration     8          0.642              1.825              2.042
 Vibration     9          0.647              1.811              1.962
 Vibration    10          0.648              1.807              1.939
 Vibration    11          0.665              1.756              1.701
 Vibration    12          0.673              1.732              1.610
 Vibration    13          0.691              1.677              1.427
 Vibration    14          0.723              1.587              1.192
 Vibration    15          0.727              1.576              1.167
 Vibration    16          0.742              1.534              1.080
 Vibration    17          0.767              1.467              0.958
 Vibration    18          0.796              1.393              0.842
 Vibration    19          0.797              1.391              0.838
 Vibration    20          0.824              1.324              0.747
 Vibration    21          0.828              1.315              0.736
 Vibration    22          0.844              1.277              0.690
 Vibration    23          0.902              1.146              0.550
 Vibration    24          0.918              1.112              0.519
 Vibration    25          0.933              1.081              0.491
 Vibration    26          0.947              1.054              0.468
 Vibration    27          0.956              1.035              0.452

                           ! Non-Optimized Parameters !
 Normal termination of Gaussian 16 at Sun Dec 13 16:40:50 2020.

 ----------------------------------------------------------------------
 # B3LYP/6-311++G(d,p) empiricaldispersion=gd3bj scf=xqc pop=npa geom=c
 heck
 ----------------------------------------------------------------------

 --------------------------------------
 CID_92930010_JID_7001_Energie_neutraal
 --------------------------------------
 Structure from the checkpoint file:  "JID_7001.chk"
 Charge =  0 Multiplicity = 1

 SCF Done:  E(RB3LYP) =  -730.541700085     A.U. after   15 cycles
 Normal termination of Gaussian 16 at Sun Dec 13 16:48:30 2020.

 ----------------------------------------------------------------------
 # B3LYP/6-311++G(d,p) empiricaldispersion=gd3bj scf=xqc pop=npa geom=c
 heck
 ----------------------------------------------------------------------

 ------------------------------------
 CID_92930010_JID_7001_Energie_kation
 ------------------------------------
 Structure from the checkpoint file:  "JID_7001.chk"
 Charge =  1 Multiplicity = 2

 SCF Done:  E(UB3LYP) =  -730.268978111     A.U. after   25 cycles
 Normal termination of Gaussian 16 at Sun Dec 13 17:05:39 2020.
 Gaussian 16:  ES64L-G16RevA.03 25-Dec-2016

 ----------------------------------------------------------------------
 # B3LYP/6-311++G(d,p) empiricaldispersion=gd3bj scf=xqc pop=npa geom=c
 heck
 ----------------------------------------------------------------------

 -----------------------------------
 CID_92930010_JID_7001_Energie_anion
 -----------------------------------
 Structure from the checkpoint file:  "JID_7001.chk"
 Charge = -1 Multiplicity = 2

                         Standard orientation:
 ---------------------------------------------------------------------
 Center     Atomic      Atomic             Coordinates (Angstroms)
 Number     Number       Type             X           Y           Z
 ---------------------------------------------------------------------
      1          6           0        2.405945   -1.719365    0.607296
      2          6           0        3.195461   -0.468701    0.185054
      3          6           0        4.348784   -0.851452   -0.739554
      4          6           0        2.279702    0.564881   -0.504301
      5          7           0        1.367265    1.144074    0.481938
      6          6           0        0.702896    2.379770    0.075109
      7          6           0       -0.434366    2.220253   -0.963063
      8          6           0       -1.595343    1.435367   -0.424522
      9          6           0       -2.687710    1.948164    0.232478
     10          7           0       -3.503959    0.920733    0.672618
     11          6           0       -2.953388   -0.288478    0.303333
     12          6           0       -3.402276   -1.594968    0.516873
     13          6           0       -2.622821   -2.632101    0.018643
     14          6           0       -1.428398   -2.374285   -0.684077
     15          6           0       -0.987950   -1.074729   -0.896404
     16          6           0       -1.745058   -0.001492   -0.394436
     17          8           0        3.764887    0.152879    1.335574
     18          1           0        1.966821   -2.233404   -0.255902
     19          1           0        1.594290   -1.465641    1.297710
     20          1           0        3.074385   -2.413960    1.125329
     21          1           0        3.979671   -1.321599   -1.658373
     22          1           0        4.931515    0.036421   -1.005128
     23          1           0        5.015640   -1.557626   -0.234458
     24          1           0        2.907950    1.380302   -0.881285
     25          1           0        1.781134    0.107411   -1.374918
     26          1           0        0.660910    0.459999    0.748469
     27          1           0        0.283279    2.851364    0.972437
     28          1           0        1.470991    3.056480   -0.318606
     29          1           0       -0.770180    3.222272   -1.259417
     30          1           0       -0.040211    1.744188   -1.869738
     31          1           0       -2.952264    2.978975    0.424906
     32          1           0       -4.378295    1.039220    1.159086
     33          1           0       -4.325968   -1.793234    1.053741
     34          1           0       -2.942132   -3.658990    0.170387
     35          1           0       -0.845700   -3.207272   -1.066368
     36          1           0       -0.073559   -0.891034   -1.451131
     37          1           0        3.046618    0.732264    1.662200
 ---------------------------------------------------------------------

 SCF Done:  E(UB3LYP) =  -730.532708413     A.U. after   33 cycles
 SCF Done:  E(UB3LYP) =  -730.532708413     a.u. after    1 cycles

 The electronic state is 2-A.
 Alpha  occ. eigenvalues --  -19.02099 -14.25373 -14.21857 -10.14140 -10.10872
 Alpha  occ. eigenvalues --  -10.10871 -10.10600 -10.10203 -10.08077 -10.07849
 Alpha  occ. eigenvalues --  -10.07796 -10.07770 -10.07656 -10.07595 -10.07387
 Alpha  occ. eigenvalues --  -10.07276 -10.07046  -0.93195  -0.88046  -0.82373
 Alpha  occ. eigenvalues --   -0.74784  -0.71011  -0.69578  -0.65435  -0.64136
 Alpha  occ. eigenvalues --   -0.61978  -0.60861  -0.58724  -0.53540  -0.52579
 Alpha  occ. eigenvalues --   -0.49844  -0.48044  -0.46164  -0.44234  -0.42800
 Alpha  occ. eigenvalues --   -0.39835  -0.39231  -0.38130  -0.37536  -0.36870
 Alpha  occ. eigenvalues --   -0.34923  -0.34361  -0.33407  -0.33251  -0.32958
 Alpha  occ. eigenvalues --   -0.31577  -0.31095  -0.30610  -0.30233  -0.29182
 Alpha  occ. eigenvalues --   -0.28140  -0.28037  -0.26663  -0.26488  -0.25454
 Alpha  occ. eigenvalues --   -0.24365  -0.23998  -0.23182  -0.18500  -0.18395
 Alpha  occ. eigenvalues --   -0.15436  -0.13296  -0.11000   0.04033
 Alpha virt. eigenvalues --    0.05623   0.06451   0.06841   0.07504   0.07897
 Alpha virt. eigenvalues --    0.08134   0.09161   0.09352   0.09668   0.10167
 Alpha virt. eigenvalues --    0.10340   0.11158   0.11296   0.11652   0.12011

  Beta  occ. eigenvalues --  -19.02096 -14.25319 -14.21855 -10.14139 -10.10876
  Beta  occ. eigenvalues --  -10.10862 -10.10591 -10.10156 -10.08063 -10.07816
  Beta  occ. eigenvalues --  -10.07785 -10.07751 -10.07651 -10.07587 -10.07381
  Beta  occ. eigenvalues --  -10.07270 -10.07049  -0.93189  -0.87977  -0.82366
  Beta  occ. eigenvalues --   -0.74745  -0.70981  -0.69558  -0.65400  -0.64087
  Beta  occ. eigenvalues --   -0.61928  -0.60846  -0.58690  -0.53486  -0.52516
  Beta  occ. eigenvalues --   -0.49798  -0.48028  -0.46119  -0.44144  -0.42792
  Beta  occ. eigenvalues --   -0.39814  -0.39181  -0.38084  -0.37522  -0.36852
  Beta  occ. eigenvalues --   -0.34886  -0.34314  -0.33381  -0.33210  -0.32927
  Beta  occ. eigenvalues --   -0.31552  -0.31070  -0.30581  -0.30205  -0.29168
  Beta  occ. eigenvalues --   -0.28126  -0.28016  -0.26638  -0.26476  -0.25432
  Beta  occ. eigenvalues --   -0.24293  -0.23971  -0.23172  -0.18462  -0.18360
  Beta  occ. eigenvalues --   -0.15422  -0.13230  -0.10917
  Beta virt. eigenvalues --    0.05751   0.06876   0.06988   0.07205   0.08000
  Beta virt. eigenvalues --    0.08346   0.08454   0.09397   0.09522   0.10037
  Beta virt. eigenvalues --    0.10344   0.10459   0.11105   0.11476   0.11933

 Mulliken charges and spin densities:
               1          2
     1  C   -0.321435  -0.222553
     2  C   -0.030913   0.270827
     3  C   -0.232486  -0.267168
     4  C   -0.527919  -0.332362
     5  N   -0.122914   0.025359
     6  C   -0.020790  -0.351865
     7  C   -0.184608  -0.139030
     8  C    1.063218  -0.561837
     9  C    0.910678  -1.072708
    10  N   -0.146095   0.049768
    11  C    0.564712  -0.883553
    12  C   -1.123706   0.809624
    13  C    0.485364  -0.775775
    14  C   -0.269312  -0.149887
    15  C   -0.593556   0.420450
    16  C    0.928877  -0.521908
    17  O   -0.162463  -0.000378
    18  H    0.134792   0.013613
    19  H    0.107550   0.033662
    20  H    0.110179   0.044652
    21  H   -0.044266   0.179310
    22  H    0.041536   0.101013
    23  H    0.104767   0.047139
    24  H    0.131583   0.074278
    25  H    0.163619  -0.047000
    26  H    0.230717   0.036085
    27  H    0.091450   0.099277
    28  H   -0.085641   0.197331
    29  H   -0.208876   0.427169
    30  H   -0.016208   0.150306
    31  H   -1.096894   1.279285
    32  H   -0.536315   0.876726
    33  H   -0.663413   0.826244
    34  H    0.168909  -0.019771
    35  H   -0.031613   0.173272
    36  H   -0.090672   0.195184
    37  H    0.272143   0.015221
 Sum of Mulliken charges =  -1.00000   1.00000

 Dipole moment (field-independent basis, Debye):
    X=              7.9777    Y=             -3.9645    Z=             -2.2973  Tot=              9.1999
 Quadrupole moment (field-independent basis, Debye-Ang):
   XX=           -208.7795   YY=           -152.4326   ZZ=           -136.6318
   XY=             14.3923   XZ=              7.4375   YZ=             -1.8676

 Summary of Natural Population Analysis:

                                       Natural Population
                Natural  -----------------------------------------------
    Atom  No    Charge         Core      Valence    Rydberg      Total
 -----------------------------------------------------------------------
      C    1   -0.29689      0.99961     2.29097    0.00630     3.29689
      C    2    0.12062      0.99956     1.86661    0.01321     2.87938
      C    3   -0.28888      0.99962     2.28358    0.00569     3.28888
      C    4   -0.09804      0.99956     2.08651    0.01197     3.09804
      N    5   -0.35709      0.99974     2.84624    0.01111     3.85709
      C    6   -0.07806      0.99962     2.06650    0.01194     3.07806
      C    7   -0.20548      0.99959     2.19710    0.00879     3.20548
      C    8   -0.06466      0.99948     2.05300    0.01218     3.06466
      C    9    0.01617      0.99949     1.97141    0.01294     2.98383
      N   10   -0.26685      0.99966     2.75611    0.01108     3.76685
      C   11    0.07791      0.99948     1.90965    0.01296     2.92209
      C   12   -0.10957      0.99952     2.10027    0.00978     3.10957
      C   13   -0.10952      0.99958     2.10045    0.00949     3.10952
      C   14   -0.11650      0.99957     2.10727    0.00966     3.11650
      C   15   -0.10072      0.99953     2.09319    0.00800     3.10072
      C   16   -0.04836      0.99946     2.03879    0.01011     3.04836
      O   17   -0.38730      0.99989     3.38052    0.00689     4.38730
      H   18    0.09971      0.00000     0.39921    0.00108     0.40029
      H   19    0.10184      0.00000     0.39724    0.00092     0.39816
      H   20    0.10108      0.00000     0.39796    0.00096     0.39892
      H   21    0.09915      0.00000     0.39989    0.00097     0.40085
      H   22    0.10186      0.00000     0.39714    0.00100     0.39814
      H   23    0.10176      0.00000     0.39737    0.00086     0.39824
      H   24    0.09567      0.00000     0.40298    0.00135     0.40433
      H   25    0.08512      0.00000     0.41328    0.00160     0.41488
      H   26    0.18383      0.00000     0.31285    0.00332     0.31617
      H   27    0.09431      0.00000     0.40443    0.00126     0.40569
      H   28    0.09020      0.00000     0.40866    0.00114     0.40980
      H   29    0.10690      0.00000     0.39186    0.00124     0.39310
      H   30    0.09942      0.00000     0.39942    0.00116     0.40058
      H   31    0.10449      0.00000     0.39195    0.00356     0.39551
      H   32    0.20941      0.00000     0.26572    0.02487     0.29059
      H   33    0.10549      0.00000     0.39322    0.00129     0.39451
      H   34    0.09792      0.00000     0.40134    0.00074     0.40208
      H   35    0.09763      0.00000     0.40147    0.00090     0.40237
      H   36    0.09818      0.00000     0.40002    0.00179     0.40182
      H   37    0.23926      0.00000     0.25780    0.00294     0.26074
 =======================================================================
   * Total *   -0.00000     16.99295    45.78199    0.22505    63.00000

 Normal termination of Gaussian 16 at Sun Dec 13 17:27:38 2020.
