 Gaussian 16, Revision A.03,

 -----------------------------------------------------------
 # opt freq B3LYP/6-31G(d) empiricaldispersion=gd3bj scf=xqc
 -----------------------------------------------------------

 -------------------------------
 CID_117362385_JID_6207_neutraal
 -------------------------------
 Symbolic Z-matrix:
 Charge =  0 Multiplicity = 1

 SCF Done:  E(RB3LYP) =  -1162.58836380     A.U. after   15 cycles
 SCF Done:  E(RB3LYP) =  -1162.59384523     A.U. after   13 cycles
 SCF Done:  E(RB3LYP) =  -1162.59441831     A.U. after   12 cycles
 SCF Done:  E(RB3LYP) =  -1162.59463678     A.U. after   12 cycles
 SCF Done:  E(RB3LYP) =  -1162.59524634     A.U. after   11 cycles
 SCF Done:  E(RB3LYP) =  -1162.59586465     A.U. after   12 cycles
 SCF Done:  E(RB3LYP) =  -1162.59657145     A.U. after   14 cycles
 SCF Done:  E(RB3LYP) =  -1162.59683069     A.U. after   12 cycles
 SCF Done:  E(RB3LYP) =  -1162.59700206     A.U. after   12 cycles
 SCF Done:  E(RB3LYP) =  -1162.59706368     A.U. after   11 cycles
 SCF Done:  E(RB3LYP) =  -1162.59709358     A.U. after    8 cycles
 SCF Done:  E(RB3LYP) =  -1162.59709380     A.U. after    8 cycles
 SCF Done:  E(RB3LYP) =  -1162.59709406     A.U. after    8 cycles
 SCF Done:  E(RB3LYP) =  -1162.59709426     A.U. after    8 cycles
 SCF Done:  E(RB3LYP) =  -1162.59709437     A.U. after    8 cycles
 Optimization completed.
    -- Stationary point found.
 Normal termination of Gaussian 16 at Thu Dec 10 21:20:37 2020.

 --------------------------------------------------------------------
 #N Geom=AllCheck Guess=TCheck SCRF=Check GenChk RB3LYP/6-31G(d) Freq
 --------------------------------------------------------------------

 Structure from the checkpoint file:  "JID_6207.chk"
 -------------------------------
 CID_117362385_JID_6207_neutraal
 -------------------------------
 Charge =  0 Multiplicity = 1

 SCF Done:  E(RB3LYP) =  -1162.59709437     A.U. after    1 cycles

  Exact polarizability: 165.253   5.915 144.119   2.603  -4.740  86.811
 Approx polarizability: 234.338   8.712 243.120  13.745 -10.678 137.705

                      1                      2                      3
                      A                      A                      A
 Frequencies --     28.7561                51.4098                66.7422
 Red. masses --      9.4513                 6.4067                 5.6023
 Frc consts  --      0.0046                 0.0100                 0.0147
 IR Inten    --      2.3912                 1.4945                 1.2711

                      4                      5                      6
                      A                      A                      A
 Frequencies --     77.9698               113.6041               152.7419
 Red. masses --      5.4710                 5.8471                 2.3769
 Frc consts  --      0.0196                 0.0445                 0.0327
 IR Inten    --      3.1506                 1.3628                 0.8857

                      7                      8                      9
                      A                      A                      A
 Frequencies --    157.5804               164.7289               192.9084
 Red. masses --      1.9900                 2.7137                 1.9983
 Frc consts  --      0.0291                 0.0434                 0.0438
 IR Inten    --      0.5095                 4.9350                 7.0232

                     10                     11                     12
                      A                      A                      A
 Frequencies --    214.2658               218.8135               263.0588
 Red. masses --      1.8399                 1.8121                 3.7219
 Frc consts  --      0.0498                 0.0511                 0.1517
 IR Inten    --      1.4180                 3.1023                 0.6338

                     13                     14                     15
                      A                      A                      A
 Frequencies --    266.2018               285.1269               295.2155
 Red. masses --      6.3613                 5.5680                 8.3059
 Frc consts  --      0.2656                 0.2667                 0.4265
 IR Inten    --      0.8218                 8.2799                 1.7291

                     16                     17                     18
                      A                      A                      A
 Frequencies --    336.5043               394.0845               428.9240
 Red. masses --      3.8871                 4.9657                 2.5623
 Frc consts  --      0.2593                 0.4544                 0.2777
 IR Inten    --      0.6946                 4.3113                 6.3065

                     19                     20                     21
                      A                      A                      A
 Frequencies --    457.2367               473.1700               514.3672
 Red. masses --      6.4065                 3.6304                 7.0152
 Frc consts  --      0.7891                 0.4789                 1.0935
 IR Inten    --     28.0507                 1.4456                69.5340

                     22                     23                     24
                      A                      A                      A
 Frequencies --    545.2858               558.2281               568.7265
 Red. masses --      5.6446                 4.9285                 3.5549
 Frc consts  --      0.9889                 0.9049                 0.6775
 IR Inten    --     18.8739                 7.5621                25.7128

                     25                     26                     27
                      A                      A                      A
 Frequencies --    593.1193               619.6983               673.7248
 Red. masses --      3.5092                 3.8624                 1.6268
 Frc consts  --      0.7274                 0.8739                 0.4351
 IR Inten    --     40.0466                23.8722                69.4125

                     28                     29                     30
                      A                      A                      A
 Frequencies --    744.0446               764.5912               786.5823
 Red. masses --      6.3454                 5.2185                 2.5490
 Frc consts  --      2.0697                 1.7974                 0.9292
 IR Inten    --     48.2229                30.9675                38.3208

                     31                     32                     33
                      A                      A                      A
 Frequencies --    816.0636               823.7633               890.0044
 Red. masses --      1.8331                 5.2270                 4.2057
 Frc consts  --      0.7192                 2.0898                 1.9628
 IR Inten    --     12.4868                28.3298                 2.5287

                     34                     35                     36
                      A                      A                      A
 Frequencies --    904.6027               955.9622               969.9837
 Red. masses --      3.8287                 1.5054                 1.8178
 Frc consts  --      1.8459                 0.8106                 1.0077
 IR Inten    --      1.0074                 3.8702                12.9274

                     37                     38                     39
                      A                      A                      A
 Frequencies --    996.0417               998.4174              1004.5377
 Red. masses --      1.3293                 1.3385                 1.5034
 Frc consts  --      0.7770                 0.7861                 0.8938
 IR Inten    --      3.4688                 3.1936                45.0916

                     40                     41                     42
                      A                      A                      A
 Frequencies --   1018.8629              1098.1027              1121.5658
 Red. masses --      7.4355                 2.7390                 3.8426
 Frc consts  --      4.5477                 1.9459                 2.8479
 IR Inten    --     70.8056                62.8708                87.7550

                     43                     44                     45
                      A                      A                      A
 Frequencies --   1138.8269              1184.9913              1197.0864
 Red. masses --      1.7646                 2.1083                 1.2499
 Frc consts  --      1.3484                 1.7442                 1.0553
 IR Inten    --     97.0225               114.1143                 2.9240

                     46                     47                     48
                      A                      A                      A
 Frequencies --   1206.8420              1219.8310              1247.6590
 Red. masses --      1.5287                 1.4884                 1.5099
 Frc consts  --      1.3118                 1.3049                 1.3848
 IR Inten    --     32.6897                 8.1694                91.8913

                     49                     50                     51
                      A                      A                      A
 Frequencies --   1258.0800              1291.7844              1308.0754
 Red. masses --      2.2599                 2.5227                 6.7562
 Frc consts  --      2.1075                 2.4803                 6.8111
 IR Inten    --     27.4681                13.6174               208.4644

                     52                     53                     54
                      A                      A                      A
 Frequencies --   1320.4026              1349.9636              1368.0939
 Red. masses --      1.5613                 5.3018                 1.2162
 Frc consts  --      1.6038                 5.6927                 1.3412
 IR Inten    --     16.0075                10.0429                16.7721

                     55                     56                     57
                      A                      A                      A
 Frequencies --   1390.6664              1473.7650              1478.5082
 Red. masses --      2.4804                 1.6770                 1.1574
 Frc consts  --      2.8262                 2.1460                 1.4907
 IR Inten    --     57.0793                78.5470                 3.7308

                     58                     59                     60
                      A                      A                      A
 Frequencies --   1497.2511              1502.7875              1515.3945
 Red. masses --      1.0545                 1.9819                 1.0990
 Frc consts  --      1.3927                 2.6371                 1.4870
 IR Inten    --      4.8201                 4.5400                 9.9335

                     61                     62                     63
                      A                      A                      A
 Frequencies --   1519.9271              1524.7801              1543.8290
 Red. masses --      1.2211                 1.4060                 1.0525
 Frc consts  --      1.6620                 1.9260                 1.4781
 IR Inten    --     14.4707                33.4933                 4.6049

                     64                     65                     66
                      A                      A                      A
 Frequencies --   1632.8807              1647.9260              1847.1466
 Red. masses --      6.4314                 5.9673                 9.6042
 Frc consts  --     10.1033                 9.5477                19.3069
 IR Inten    --      8.2912                 4.0690               268.8698

                     67                     68                     69
                      A                      A                      A
 Frequencies --   3073.8388              3087.1143              3092.6738
 Red. masses --      1.0293                 1.0290                 1.0654
 Frc consts  --      5.7301                 5.7780                 6.0037
 IR Inten    --     36.6345                 1.0431                 6.8367

                     70                     71                     72
                      A                      A                      A
 Frequencies --   3161.5123              3169.8451              3179.4761
 Red. masses --      1.1062                 1.0990                 1.1082
 Frc consts  --      6.5141                 6.5062                 6.6005
 IR Inten    --     11.6307                 1.8105                 8.8167

                     73                     74                     75
                      A                      A                      A
 Frequencies --   3185.6380              3201.7823              3206.5457
 Red. masses --      1.1065                 1.0877                 1.1078
 Frc consts  --      6.6161                 6.5697                 6.7112
 IR Inten    --      0.7470                 2.9963                 0.8366

                     76                     77                     78
                      A                      A                      A
 Frequencies --   3216.1770              3233.6673              3677.2980
 Red. masses --      1.0933                 1.0934                 1.0639
 Frc consts  --      6.6632                 6.7365                 8.4766
 IR Inten    --      7.5391                 5.0887                56.5926

 - Thermochemistry -
 -------------------
 Temperature   298.150 Kelvin.  Pressure   1.00000 Atm.
 Atom     1 has atomic number  6 and mass  12.00000

 Molecular mass:   244.04055 amu.
 Principal axes and moments of inertia in atomic units:
                           1         2         3
     Eigenvalues --  1899.995585915.243987031.45029
           X            0.99996   0.00066  -0.00845
           Y           -0.00071   0.99999  -0.00487
           Z            0.00845   0.00488   0.99995
 This molecule is an asymmetric top.
 Rotational symmetry number  1.
 Warning -- assumption of classical behavior for rotation
           may cause significant error
 Rotational temperatures (Kelvin)      0.04559     0.01464     0.01232
 Rotational constants (GHZ):           0.94987     0.30510     0.25667
 Zero-point vibrational energy     566775.0 (Joules/Mol)
                                  135.46249 (Kcal/Mol)
 Warning -- explicit consideration of  26 degrees of freedom as
           vibrations may cause significant error
 Vibrational temperatures:     41.37    73.97    96.03   112.18   163.45
          (Kelvin)            219.76   226.72   237.01   277.55   308.28
                              314.82   378.48   383.00   410.23   424.75
                              484.15   567.00   617.13   657.86   680.79
                              740.06   784.54   803.17   818.27   853.37
                              891.61   969.34  1070.51  1100.08  1131.72
                             1174.13  1185.21  1280.52  1301.52  1375.42
                             1395.59  1433.08  1436.50  1445.31  1465.92
                             1579.92  1613.68  1638.52  1704.94  1722.34
                             1736.38  1755.06  1795.10  1810.10  1858.59
                             1882.03  1899.76  1942.30  1968.38  2000.86
                             2120.42  2127.24  2154.21  2162.18  2180.31
                             2186.84  2193.82  2221.23  2349.35  2371.00
                             2657.63  4422.57  4441.67  4449.67  4548.71
                             4560.70  4574.56  4583.42  4606.65  4613.50
                             4627.36  4652.53  5290.81

 Zero-point correction=                           0.215873 (Hartree/Particle)
 Thermal correction to Energy=                    0.231733
 Thermal correction to Enthalpy=                  0.232677
 Thermal correction to Gibbs Free Energy=         0.171906
 Sum of electronic and zero-point Energies=          -1162.381221
 Sum of electronic and thermal Energies=             -1162.365362
 Sum of electronic and thermal Enthalpies=           -1162.364418
 Sum of electronic and thermal Free Energies=        -1162.425189

                     E (Thermal)             CV                S
                      KCal/Mol        Cal/Mol-Kelvin    Cal/Mol-Kelvin
 Total                  145.414             58.612            127.904
 Electronic               0.000              0.000              0.000
 Translational            0.889              2.981             42.377
 Rotational               0.889              2.981             32.735
 Vibrational            143.637             52.651             52.791
 Vibration     1          0.593              1.984              5.913
 Vibration     2          0.596              1.977              4.762
 Vibration     3          0.598              1.970              4.247
 Vibration     4          0.599              1.964              3.941
 Vibration     5          0.607              1.938              3.206
 Vibration     6          0.619              1.900              2.638
 Vibration     7          0.621              1.894              2.579
 Vibration     8          0.623              1.886              2.495
 Vibration     9          0.635              1.850              2.200
 Vibration    10          0.644              1.819              2.007
 Vibration    11          0.647              1.812              1.969
 Vibration    12          0.670              1.741              1.641
 Vibration    13          0.672              1.735              1.621
 Vibration    14          0.683              1.701              1.503
 Vibration    15          0.689              1.683              1.444
 Vibration    16          0.717              1.603              1.229
 Vibration    17          0.761              1.483              0.985
 Vibration    18          0.790              1.407              0.862
 Vibration    19          0.815              1.345              0.774
 Vibration    20          0.830              1.310              0.729
 Vibration    21          0.869              1.218              0.623
 Vibration    22          0.900              1.150              0.554
 Vibration    23          0.914              1.122              0.527
 Vibration    24          0.925              1.099              0.507
 Vibration    25          0.951              1.046              0.462
 Vibration    26          0.980              0.990              0.417

 Optimization completed.
    -- Stationary point found.
 Normal termination of Gaussian 16 at Thu Dec 10 21:30:37 2020.

 ----------------------------------------------------------------------
 # B3LYP/6-311++G(d,p) empiricaldispersion=gd3bj scf=xqc pop=npa geom=c
 heck
 ----------------------------------------------------------------------

 ---------------------------------------
 CID_117362385_JID_6207_Energie_neutraal
 ---------------------------------------
 Structure from the checkpoint file:  "JID_6207.chk"
 Charge =  0 Multiplicity = 1

 SCF Done:  E(RB3LYP) =  -1162.84925050     A.U. after   15 cycles
 Normal termination of Gaussian 16 at Thu Dec 10 21:35:11 2020.

 ----------------------------------------------------------------------
 # B3LYP/6-311++G(d,p) empiricaldispersion=gd3bj scf=xqc pop=npa geom=c
 heck
 ----------------------------------------------------------------------

 -------------------------------------
 CID_117362385_JID_6207_Energie_kation
 -------------------------------------
 Structure from the checkpoint file:  "JID_6207.chk"
 Charge =  1 Multiplicity = 2

 SCF Done:  E(UB3LYP) =  -1162.51251384     A.U. after   31 cycles
 Normal termination of Gaussian 16 at Thu Dec 10 21:48:35 2020.
 Gaussian 16:  ES64L-G16RevA.03 25-Dec-2016

 ----------------------------------------------------------------------
 # B3LYP/6-311++G(d,p) empiricaldispersion=gd3bj scf=xqc pop=npa geom=c
 heck
 ----------------------------------------------------------------------

 ------------------------------------
 CID_117362385_JID_6207_Energie_anion
 ------------------------------------
 Structure from the checkpoint file:  "JID_6207.chk"
 Charge = -1 Multiplicity = 2

                         Standard orientation:
 ---------------------------------------------------------------------
 Center     Atomic      Atomic             Coordinates (Angstroms)
 Number     Number       Type             X           Y           Z
 ---------------------------------------------------------------------
      1          6           0        0.235240   -2.349375   -0.386523
      2          8           0       -0.065197   -1.424882    0.684533
      3          6           0        0.073053   -0.097969    0.360431
      4          6           0        1.311333    0.544610    0.509549
      5          6           0        1.410698    1.907643    0.205970
      6          6           0        0.301765    2.637021   -0.215371
      7          6           0       -0.938098    2.010661   -0.327048
      8          6           0       -1.044410    0.651150   -0.041446
      9         16           0       -2.668283   -0.108895   -0.220797
     10          8           0       -3.615903    0.977014   -0.518535
     11          8           0       -2.570412   -1.262251   -1.131258
     12          6           0       -3.030390   -0.728498    1.432590
     13          6           0        2.525027   -0.213633    1.016214
     14          6           0        3.615651   -0.228011   -0.035699
     15          8           0        4.405996    0.667396   -0.231690
     16          8           0        3.587933   -1.357632   -0.784596
     17          1           0        0.126600   -3.343760    0.049491
     18          1           0        1.261395   -2.206523   -0.737722
     19          1           0       -0.480657   -2.217777   -1.199937
     20          1           0        2.378808    2.390165    0.303800
     21          1           0        0.399738    3.693557   -0.443561
     22          1           0       -1.828364    2.551233   -0.628517
     23          1           0       -2.243218   -1.426704    1.717074
     24          1           0       -3.084747    0.119604    2.117386
     25          1           0       -3.998704   -1.230111    1.366187
     26          1           0        2.935295    0.297538    1.892256
     27          1           0        2.243963   -1.228023    1.298399
     28          1           0        4.283864   -1.255637   -1.461733
 ---------------------------------------------------------------------

 SCF Done:  E(UB3LYP) =  -1162.85123281     A.U. after   33 cycles
 SCF Done:  E(UB3LYP) =  -1162.85123281     a.u. after    1 cycles

 The electronic state is 2-A.
 Alpha  occ. eigenvalues --  -88.92047 -19.07193 -19.02817 -19.00751 -18.98815
 Alpha  occ. eigenvalues --  -18.98712 -10.19438 -10.11087 -10.10125 -10.08858
 Alpha  occ. eigenvalues --  -10.07173 -10.05653 -10.05535 -10.04376 -10.03941
 Alpha  occ. eigenvalues --  -10.02762  -7.98419  -5.94711  -5.94592  -5.94515
 Alpha  occ. eigenvalues --   -1.00826  -0.98133  -0.94162  -0.91684  -0.87779
 Alpha  occ. eigenvalues --   -0.73482  -0.67892  -0.65831  -0.62847  -0.60709
 Alpha  occ. eigenvalues --   -0.57067  -0.52455  -0.51391  -0.46508  -0.45904
 Alpha  occ. eigenvalues --   -0.40993  -0.39398  -0.38635  -0.37352  -0.37142
 Alpha  occ. eigenvalues --   -0.35737  -0.35505  -0.34931  -0.34408  -0.33571
 Alpha  occ. eigenvalues --   -0.32230  -0.31000  -0.30648  -0.29690  -0.29035
 Alpha  occ. eigenvalues --   -0.28786  -0.25958  -0.24675  -0.23700  -0.22511
 Alpha  occ. eigenvalues --   -0.22355  -0.21157  -0.19777  -0.18281  -0.17892
 Alpha  occ. eigenvalues --   -0.17125  -0.16426  -0.13544  -0.12334   0.04780
 Alpha virt. eigenvalues --    0.06887   0.07870   0.08726   0.09317   0.09695
 Alpha virt. eigenvalues --    0.10162   0.11472   0.11679   0.11942   0.12398
 Alpha virt. eigenvalues --    0.13105   0.13622   0.13897   0.14413   0.15281

  Beta  occ. eigenvalues --  -88.92043 -19.07164 -19.02824 -19.00731 -18.98806
  Beta  occ. eigenvalues --  -18.98670 -10.19324 -10.11081 -10.10111 -10.08826
  Beta  occ. eigenvalues --  -10.07179 -10.05469 -10.05397 -10.04454 -10.03704
  Beta  occ. eigenvalues --  -10.02368  -7.98413  -5.94708  -5.94565  -5.94517
  Beta  occ. eigenvalues --   -1.00738  -0.98046  -0.94150  -0.91630  -0.87713
  Beta  occ. eigenvalues --   -0.73108  -0.67602  -0.65666  -0.62607  -0.60329
  Beta  occ. eigenvalues --   -0.56919  -0.52015  -0.51242  -0.46420  -0.45612
  Beta  occ. eigenvalues --   -0.40871  -0.39281  -0.38527  -0.37187  -0.36977
  Beta  occ. eigenvalues --   -0.35564  -0.35308  -0.34799  -0.34336  -0.33449
  Beta  occ. eigenvalues --   -0.32144  -0.30884  -0.30532  -0.29568  -0.28875
  Beta  occ. eigenvalues --   -0.28649  -0.25809  -0.24485  -0.23172  -0.22334
  Beta  occ. eigenvalues --   -0.21920  -0.21066  -0.19677  -0.18166  -0.17796
  Beta  occ. eigenvalues --   -0.16993  -0.16343  -0.11837  -0.11466
  Beta virt. eigenvalues --    0.06924   0.07873   0.09012   0.09304   0.09711
  Beta virt. eigenvalues --    0.10302   0.10586   0.11533   0.11683   0.12100
  Beta virt. eigenvalues --    0.12684   0.13133   0.13552   0.14022   0.14372

 Mulliken charges and spin densities:
               1          2
     1  C   -0.236245  -0.103933
     2  O   -0.211173   0.009768
     3  C    0.065489  -0.025326
     4  C    0.372958   0.519805
     5  C   -0.780684   0.397921
     6  C   -0.451872  -0.064791
     7  C   -0.053036   0.182589
     8  C   -0.615069   0.212394
     9  S    0.210488   0.139733
    10  O   -0.150357   0.001933
    11  O   -0.222530  -0.003236
    12  C   -0.402147  -0.219462
    13  C    0.710773  -1.023260
    14  C    0.070715  -0.096280
    15  O   -0.304385   0.020256
    16  O   -0.198642   0.011730
    17  H    0.019130   0.104558
    18  H    0.154345   0.011616
    19  H    0.214754  -0.013926
    20  H    0.129199   0.011254
    21  H    0.097560   0.037310
    22  H    0.207341  -0.022120
    23  H    0.159880   0.089875
    24  H    0.137728   0.038320
    25  H    0.096188   0.098256
    26  H   -0.328589   0.529860
    27  H    0.102699   0.077726
    28  H    0.205485   0.077431
 Sum of Mulliken charges =  -1.00000   1.00000

 Dipole moment (field-independent basis, Debye):
    X=              0.4618    Y=             -2.7605    Z=              0.2963  Tot=              2.8145
 Quadrupole moment (field-independent basis, Debye-Ang):
   XX=           -159.8126   YY=           -121.8217   ZZ=           -117.1201
   XY=             -7.1857   XZ=            -14.8996   YZ=             -0.5114

 Summary of Natural Population Analysis:

                                       Natural Population
                Natural  -----------------------------------------------
    Atom  No    Charge         Core      Valence    Rydberg      Total
 -----------------------------------------------------------------------
      C    1   -0.10287      0.99958     2.09581    0.00748     3.10287
      O    2   -0.30384      0.99986     3.29430    0.00969     4.30384
      C    3    0.15731      0.99926     1.82860    0.01483     2.84269
      C    4   -0.03274      0.99945     2.02336    0.00993     3.03274
      C    5   -0.01617      0.99953     2.00663    0.01001     3.01617
      C    6   -0.12296      0.99957     2.11428    0.00912     3.12296
      C    7   -0.04973      0.99952     2.04150    0.00870     3.04973
      C    8   -0.12136      0.99931     2.10525    0.01680     3.12136
      S    9    1.03856      4.99923     1.86729    0.09492     6.96144
      O   10   -0.47834      0.99991     3.47314    0.00529     4.47834
      O   11   -0.47633      0.99991     3.47094    0.00548     4.47633
      C   12   -0.39340      0.99961     2.38513    0.00866     3.39340
      C   13   -0.24494      0.99955     2.23541    0.00998     3.24494
      C   14    0.42301      0.99973     1.55003    0.02724     2.57699
      O   15   -0.31194      0.99987     3.30582    0.00626     4.31194
      O   16   -0.34790      0.99987     3.34168    0.00635     4.34790
      H   17    0.08305      0.00000     0.41585    0.00111     0.41695
      H   18    0.08881      0.00000     0.40984    0.00135     0.41119
      H   19    0.09903      0.00000     0.39948    0.00149     0.40097
      H   20    0.09853      0.00000     0.40015    0.00132     0.40147
      H   21    0.09441      0.00000     0.40450    0.00109     0.40559
      H   22    0.10833      0.00000     0.39067    0.00100     0.39167
      H   23    0.12149      0.00000     0.37689    0.00163     0.37851
      H   24    0.11139      0.00000     0.38757    0.00104     0.38861
      H   25    0.11033      0.00000     0.38806    0.00162     0.38967
      H   26    0.11763      0.00000     0.37979    0.00257     0.38237
      H   27    0.11486      0.00000     0.38351    0.00163     0.38514
      H   28    0.23579      0.00000     0.26081    0.00340     0.26421
 =======================================================================
   * Total *   -0.00000     19.99374    43.73629    0.26997    64.00000

 Normal termination of Gaussian 16 at Thu Dec 10 22:03:16 2020.
