 Gaussian 16, Revision A.03,

 -----------------------------------------------------------
 # opt freq B3LYP/6-31G(d) empiricaldispersion=gd3bj scf=xqc
 -----------------------------------------------------------

 ------------------------------
 CID_90401960_JID_5970_neutraal
 ------------------------------
 Symbolic Z-matrix:
 Charge =  0 Multiplicity = 1

 SCF Done:  E(RB3LYP) =  -804.015774529     A.U. after   13 cycles
 SCF Done:  E(RB3LYP) =  -804.018875279     A.U. after   12 cycles
 SCF Done:  E(RB3LYP) =  -804.017653540     A.U. after   12 cycles
 SCF Done:  E(RB3LYP) =  -804.019798758     A.U. after   12 cycles
 SCF Done:  E(RB3LYP) =  -804.020181267     A.U. after   12 cycles
 SCF Done:  E(RB3LYP) =  -804.020498333     A.U. after   10 cycles
 SCF Done:  E(RB3LYP) =  -804.020518732     A.U. after   10 cycles
 SCF Done:  E(RB3LYP) =  -804.020524850     A.U. after   10 cycles
 SCF Done:  E(RB3LYP) =  -804.020536782     A.U. after   10 cycles
 SCF Done:  E(RB3LYP) =  -804.020543166     A.U. after    9 cycles
 SCF Done:  E(RB3LYP) =  -804.020540647     A.U. after    8 cycles
 SCF Done:  E(RB3LYP) =  -804.020543724     A.U. after    8 cycles
 SCF Done:  E(RB3LYP) =  -804.020543927     A.U. after    7 cycles
 SCF Done:  E(RB3LYP) =  -804.020543983     A.U. after    6 cycles
 Optimization completed.
    -- Stationary point found.

 1\1\GINC-NODE111\FOpt\RB3LYP\6-31G(d)\C9H16O6\VSC10255\10-Dec-2020\0\\
 # opt freq B3LYP/6-31G(d) empiricaldispersion=gd3bj scf=xqc\\CID_90401
 960_JID_5970_neutraal\\0,1\C,0.9243925696,0.1862550294,-0.1966546965\C
 ,0.6605304763,0.1464071949,-1.7046889\C,1.2141624603,-1.1080572573,-2.
 3979961345\C,0.6582775361,-2.4435754124,-1.8759623932\C,-0.8730446079,
 -2.5839357469,-1.871251037\C,-1.5087715925,-2.3443333264,-3.2433542665
 \C,-1.1603075436,-3.3125422441,-4.3757976579\O,-1.8431049774,-4.572076
 0978,-4.2950846753\C,-1.2592043361,-5.5282560072,-3.5655583085\O,-0.17

 Normal termination of Gaussian 16 at Thu Dec 10 17:39:31 2020.

 --------------------------------------------------------------------
 #N Geom=AllCheck Guess=TCheck SCRF=Check GenChk RB3LYP/6-31G(d) Freq
 --------------------------------------------------------------------

 Structure from the checkpoint file:  "JID_5970.chk"
 ------------------------------
 CID_90401960_JID_5970_neutraal
 ------------------------------
 Charge =  0 Multiplicity = 1

 SCF Done:  E(RB3LYP) =  -804.020543983     A.U. after    1 cycles

  Exact polarizability: 125.686   5.095 105.849  -6.413   4.337  96.633
 Approx polarizability: 156.212  10.457 152.861 -10.573  15.319 149.384

                      1                      2                      3
                      A                      A                      A
 Frequencies --     34.3023                43.7891                48.0621
 Red. masses --      4.8586                 5.6994                 4.0795
 Frc consts  --      0.0034                 0.0064                 0.0056
 IR Inten    --      0.0124                 0.1489                 0.0973

                      4                      5                      6
                      A                      A                      A
 Frequencies --     65.6316                79.2233                95.7969
 Red. masses --      8.2884                 4.0225                 5.6546
 Frc consts  --      0.0210                 0.0149                 0.0306
 IR Inten    --      0.4572                 0.4019                 2.3285

                      7                      8                      9
                      A                      A                      A
 Frequencies --    117.8677               136.2871               151.8150
 Red. masses --      3.2674                 5.7085                 3.5821
 Frc consts  --      0.0267                 0.0625                 0.0486
 IR Inten    --      0.4861                 0.0919                 1.5797

                     10                     11                     12
                      A                      A                      A
 Frequencies --    192.6816               206.7716               253.7819
 Red. masses --      3.7496                 2.0865                 7.6165
 Frc consts  --      0.0820                 0.0526                 0.2890
 IR Inten    --      1.2445                 1.2644                 3.3491

                     13                     14                     15
                      A                      A                      A
 Frequencies --    265.2395               301.3531               331.2222
 Red. masses --      2.0943                 2.0986                 2.8223
 Frc consts  --      0.0868                 0.1123                 0.1824
 IR Inten    --      1.5591                 0.3938                 6.6331

                     16                     17                     18
                      A                      A                      A
 Frequencies --    349.0135               398.4572               416.3297
 Red. masses --      2.7472                 2.3595                 2.0458
 Frc consts  --      0.1972                 0.2207                 0.2089
 IR Inten    --      3.9735                 6.5450                 1.8513

                     19                     20                     21
                      A                      A                      A
 Frequencies --    491.1004               513.1143               555.8909
 Red. masses --      3.2457                 3.6555                 1.1118
 Frc consts  --      0.4612                 0.5671                 0.2024
 IR Inten    --     17.6894                34.2062                96.6048

                     22                     23                     24
                      A                      A                      A
 Frequencies --    570.3377               573.2162               628.9741
 Red. masses --      2.6467                 1.2304                 4.4888
 Frc consts  --      0.5073                 0.2382                 1.0463
 IR Inten    --     45.2774                85.4480                14.1606

                     25                     26                     27
                      A                      A                      A
 Frequencies --    671.0138               719.3825               749.8688
 Red. masses --      5.8484                 1.4179                 2.8527
 Frc consts  --      1.5515                 0.4323                 0.9451
 IR Inten    --      4.3876                15.7094                 4.3748

                     28                     29                     30
                      A                      A                      A
 Frequencies --    778.9202               782.1984               788.6266
 Red. masses --      2.7016                10.5817                 4.4919
 Frc consts  --      0.9657                 3.8145                 1.6460
 IR Inten    --     26.9166                11.5339                56.1088

                     31                     32                     33
                      A                      A                      A
 Frequencies --    810.3337               863.3310               876.7358
 Red. masses --      2.9172                 1.6151                 3.1701
 Frc consts  --      1.1286                 0.7093                 1.4357
 IR Inten    --      4.1305                 3.5007                 7.6778

                     34                     35                     36
                      A                      A                      A
 Frequencies --    907.3649               937.4511               955.3751
 Red. masses --      2.4378                 2.0772                 1.9589
 Frc consts  --      1.1825                 1.0755                 1.0534
 IR Inten    --      6.1076                10.3893                 4.6947

                     37                     38                     39
                      A                      A                      A
 Frequencies --   1005.7903              1025.0260              1037.8357
 Red. masses --      2.1230                 1.9143                 1.6817
 Frc consts  --      1.2654                 1.1850                 1.0672
 IR Inten    --      1.8808                 8.3195                 1.3090

                     40                     41                     42
                      A                      A                      A
 Frequencies --   1084.3566              1103.0518              1117.0989
 Red. masses --      2.0482                 2.5861                 2.3804
 Frc consts  --      1.4190                 1.8539                 1.7501
 IR Inten    --      9.3602                10.6221                20.9762

                     43                     44                     45
                      A                      A                      A
 Frequencies --   1131.1780              1168.1654              1182.2813
 Red. masses --      2.9342                 2.8263                 2.3997
 Frc consts  --      2.2121                 2.2724                 1.9763
 IR Inten    --     11.7821                17.9746                 3.7965

                     46                     47                     48
                      A                      A                      A
 Frequencies --   1219.8804              1231.1252              1240.9983
 Red. masses --      2.2201                 1.3681                 1.8797
 Frc consts  --      1.9465                 1.2217                 1.7056
 IR Inten    --    444.7757                54.1787               634.3936

                     49                     50                     51
                      A                      A                      A
 Frequencies --   1258.6621              1307.6730              1335.8803
 Red. masses --      1.4350                 1.2359                 1.1492
 Frc consts  --      1.3394                 1.2452                 1.2083
 IR Inten    --      0.0934                 3.7628                12.9441

                     52                     53                     54
                      A                      A                      A
 Frequencies --   1345.6556              1370.5026              1382.8037
 Red. masses --      1.1941                 1.2663                 1.4197
 Frc consts  --      1.2739                 1.4013                 1.5994
 IR Inten    --      4.8749                 2.3894                 9.0537

                     55                     56                     57
                      A                      A                      A
 Frequencies --   1395.0494              1406.8603              1411.6700
 Red. masses --      1.5204                 1.3469                 1.4723
 Frc consts  --      1.7434                 1.5707                 1.7287
 IR Inten    --     80.4961                 0.5021                20.1435

                     58                     59                     60
                      A                      A                      A
 Frequencies --   1416.4965              1432.9498              1444.5465
 Red. masses --      1.4616                 1.5522                 1.2763
 Frc consts  --      1.7278                 1.8778                 1.5692
 IR Inten    --     46.8995                75.9874                 7.4638

                     61                     62                     63
                      A                      A                      A
 Frequencies --   1451.1489              1465.9101              1507.5312
 Red. masses --      1.9528                 1.7908                 1.1661
 Frc consts  --      2.4229                 2.2673                 1.5615
 IR Inten    --    153.6902               104.6421                37.7860

                     64                     65                     66
                      A                      A                      A
 Frequencies --   1516.1022              1522.7949              1533.1079
 Red. masses --      1.0724                 1.0688                 1.0719
 Frc consts  --      1.4523                 1.4602                 1.4844
 IR Inten    --      3.8012                 2.8302                 3.8952

                     67                     68                     69
                      A                      A                      A
 Frequencies --   1533.9001              1538.0740              1547.1689
 Red. masses --      1.0667                 1.0761                 1.0783
 Frc consts  --      1.4787                 1.4998                 1.5208
 IR Inten    --     10.3138                 6.6470                 1.2758

                     70                     71                     72
                      A                      A                      A
 Frequencies --   1838.5614              1843.8114              3023.3844
 Red. masses --      9.6979                 9.6000                 1.0631
 Frc consts  --     19.3144                19.2290                 5.7257
 IR Inten    --    474.2775               216.0302                27.7829

                     73                     74                     75
                      A                      A                      A
 Frequencies --   3034.1199              3046.2973              3051.7465
 Red. masses --      1.0654                 1.0381                 1.0862
 Frc consts  --      5.7786                 5.6758                 5.9602
 IR Inten    --     20.0042                20.8864                 7.6853

                     76                     77                     78
                      A                      A                      A
 Frequencies --   3059.9155              3064.1217              3071.4452
 Red. masses --      1.0784                 1.0800                 1.0891
 Frc consts  --      5.9493                 5.9745                 6.0535
 IR Inten    --     20.4612                28.8126                79.1413

                     79                     80                     81
                      A                      A                      A
 Frequencies --   3088.7098              3102.9984              3107.7837
 Red. masses --      1.0808                 1.0889                 1.0695
 Frc consts  --      6.0753                 6.1773                 6.0863
 IR Inten    --      7.5208                31.8034                32.8158

                     82                     83                     84
                      A                      A                      A
 Frequencies --   3111.1902              3118.7999              3159.9070
 Red. masses --      1.1015                 1.1019                 1.1098
 Frc consts  --      6.2816                 6.3151                 6.5290
 IR Inten    --     48.3835                48.0895                 9.8601

                     85                     86                     87
                      A                      A                      A
 Frequencies --   3186.1117              3741.8897              3745.6316
 Red. masses --      1.0900                 1.0647                 1.0647
 Frc consts  --      6.5194                 8.7830                 8.8012
 IR Inten    --      3.5054                80.6387                94.2324

 - Thermochemistry -
 -------------------
 Temperature   298.150 Kelvin.  Pressure   1.00000 Atm.
 Atom     1 has atomic number  6 and mass  12.00000

 Molecular mass:   220.09469 amu.
 Principal axes and moments of inertia in atomic units:
                           1         2         3
     Eigenvalues --  2325.126644733.144006075.10596
           X            0.99999   0.00372   0.00400
           Y           -0.00369   0.99996  -0.00760
           Z           -0.00402   0.00758   0.99996
 This molecule is an asymmetric top.
 Rotational symmetry number  1.
 Warning -- assumption of classical behavior for rotation
           may cause significant error
 Rotational temperatures (Kelvin)      0.03725     0.01830     0.01426
 Rotational constants (GHZ):           0.77619     0.38130     0.29707
 Zero-point vibrational energy     686229.2 (Joules/Mol)
                                  164.01271 (Kcal/Mol)
 Warning -- explicit consideration of  23 degrees of freedom as
           vibrations may cause significant error
 Vibrational temperatures:     49.35    63.00    69.15    94.43   113.98
          (Kelvin)            137.83   169.59   196.09   218.43   277.23
                              297.50   365.14   381.62   433.58   476.55
                              502.15   573.29   599.01   706.58   738.26
                              799.80   820.59   824.73   904.95   965.44
                             1035.03  1078.89  1120.69  1125.41  1134.66
                             1165.89  1242.14  1261.43  1305.50  1348.78
                             1374.57  1447.11  1474.78  1493.21  1560.15
                             1587.05  1607.26  1627.51  1680.73  1701.04
                             1755.14  1771.31  1785.52  1810.93  1881.45
                             1922.03  1936.10  1971.85  1989.55  2007.16
                             2024.16  2031.08  2038.02  2061.70  2078.38
                             2087.88  2109.12  2169.00  2181.33  2190.96
                             2205.80  2206.94  2212.95  2226.03  2645.28
                             2652.83  4349.98  4365.42  4382.94  4390.78
                             4402.54  4408.59  4419.12  4443.96  4464.52
                             4471.41  4476.31  4487.26  4546.40  4584.10
                             5383.74  5389.13

 Zero-point correction=                           0.261371 (Hartree/Particle)
 Thermal correction to Energy=                    0.277392
 Thermal correction to Enthalpy=                  0.278336
 Thermal correction to Gibbs Free Energy=         0.216295
 Sum of electronic and zero-point Energies=           -803.759173
 Sum of electronic and thermal Energies=              -803.743152
 Sum of electronic and thermal Enthalpies=            -803.742208
 Sum of electronic and thermal Free Energies=         -803.804248

                     E (Thermal)             CV                S
                      KCal/Mol        Cal/Mol-Kelvin    Cal/Mol-Kelvin
 Total                  174.066             58.041            130.575
 Electronic               0.000              0.000              0.000
 Translational            0.889              2.981             42.070
 Rotational               0.889              2.981             32.569
 Vibrational            172.288             52.079             55.936
 Vibration     1          0.594              1.983              5.564
 Vibration     2          0.595              1.980              5.080
 Vibration     3          0.595              1.978              4.896
 Vibration     4          0.597              1.971              4.280
 Vibration     5          0.600              1.963              3.910
 Vibration     6          0.603              1.952              3.538
 Vibration     7          0.608              1.934              3.135
 Vibration     8          0.614              1.917              2.855
 Vibration     9          0.619              1.901              2.649
 Vibration    10          0.635              1.850              2.202
 Vibration    11          0.641              1.830              2.072
 Vibration    12          0.665              1.756              1.704
 Vibration    13          0.671              1.737              1.627
 Vibration    14          0.693              1.671              1.409
 Vibration    15          0.714              1.613              1.254
 Vibration    16          0.726              1.577              1.171
 Vibration    17          0.765              1.473              0.968
 Vibration    18          0.780              1.435              0.905
 Vibration    19          0.847              1.270              0.681
 Vibration    20          0.868              1.221              0.626
 Vibration    21          0.911              1.127              0.532
 Vibration    22          0.926              1.095              0.504
 Vibration    23          0.929              1.089              0.498

 Optimization completed.
    -- Stationary point found.

 1\1\GINC-NODE111\Freq\RB3LYP\6-31G(d)\C9H16O6\VSC10255\10-Dec-2020\0\\
 #N Geom=AllCheck Guess=TCheck SCRF=Check GenChk RB3LYP/6-31G(d) Freq\\
 CID_90401960_JID_5970_neutraal\\0,1\C,0.9243925696,0.1862550294,-0.196
 6546965\C,0.6605304763,0.1464071949,-1.7046889\C,1.2141624603,-1.10805
 72573,-2.3979961345\C,0.6582775361,-2.4435754124,-1.8759623932\C,-0.87
 30446079,-2.5839357469,-1.871251037\C,-1.5087715925,-2.3443333264,-3.2
 433542665\C,-1.1603075436,-3.3125422441,-4.3757976579\O,-1.8431049774,
 -4.5720760978,-4.2950846753\C,-1.2592043361,-5.5282560072,-3.565558308

 Normal termination of Gaussian 16 at Thu Dec 10 17:50:06 2020.

 ----------------------------------------------------------------------
 # B3LYP/6-311++G(d,p) empiricaldispersion=gd3bj scf=xqc pop=npa geom=c
 heck
 ----------------------------------------------------------------------

 --------------------------------------
 CID_90401960_JID_5970_Energie_neutraal
 --------------------------------------
 Structure from the checkpoint file:  "JID_5970.chk"
 Charge =  0 Multiplicity = 1

 SCF Done:  E(RB3LYP) =  -804.277058658     A.U. after   14 cycles
 Normal termination of Gaussian 16 at Thu Dec 10 17:54:51 2020.

 ----------------------------------------------------------------------
 # B3LYP/6-311++G(d,p) empiricaldispersion=gd3bj scf=xqc pop=npa geom=c
 heck
 ----------------------------------------------------------------------

 ------------------------------------
 CID_90401960_JID_5970_Energie_kation
 ------------------------------------
 Structure from the checkpoint file:  "JID_5970.chk"
 Charge =  1 Multiplicity = 2

 SCF Done:  E(UB3LYP) =  -803.915840882     A.U. after   33 cycles
 SCF Done:  E(UB3LYP) =  -803.915840883     a.u. after    1 cycles
 Normal termination of Gaussian 16 at Thu Dec 10 18:10:43 2020.
 Gaussian 16:  ES64L-G16RevA.03 25-Dec-2016

 -----------------------------------
 CID_90401960_JID_5970_Energie_anion
 -----------------------------------
 Structure from the checkpoint file:  "JID_5970.chk"
 Charge = -1 Multiplicity = 2

                         Standard orientation:
 ---------------------------------------------------------------------
 Center     Atomic      Atomic             Coordinates (Angstroms)
 Number     Number       Type             X           Y           Z
 ---------------------------------------------------------------------
      1          6           0       -4.503401    0.390460   -0.966459
      2          6           0       -3.815112    0.313234    0.399437
      3          6           0       -2.977240   -0.958949    0.600398
      4          6           0       -1.839356   -1.160341   -0.414391
      5          6           0       -0.844136    0.003414   -0.555383
      6          6           0       -0.191376    0.407736    0.769251
      7          6           0        0.701279   -0.616750    1.472728
      8          8           0        2.004690   -0.751568    0.887838
      9          6           0        2.127713   -1.628203   -0.114063
     10          8           0        1.268625   -2.370455   -0.539699
     11          8           0        3.392431   -1.577599   -0.560532
     12          8           0        0.500279    1.685545    0.717135
     13          6           0        1.404229    1.925774   -0.238386
     14          8           0        1.719494    1.230094   -1.178346
     15          8           0        1.929512    3.144622    0.006231
     16          1           0       -3.776839    0.443944   -1.784654
     17          1           0       -5.143771    1.276562   -1.036079
     18          1           0       -5.132088   -0.491667   -1.139753
     19          1           0       -3.185454    1.202671    0.538633
     20          1           0       -4.575359    0.358141    1.190031
     21          1           0       -2.574486   -0.960539    1.623170
     22          1           0       -3.641073   -1.832604    0.546432
     23          1           0       -1.286071   -2.073016   -0.169134
     24          1           0       -2.269471   -1.338210   -1.407232
     25          1           0       -0.085309   -0.263385   -1.287719
     26          1           0       -1.358835    0.894115   -0.936616
     27          1           0       -0.989816    0.625188    1.485197
     28          1           0        0.906368   -0.271276    2.487471
     29          1           0        0.202004   -1.587858    1.507712
     30          1           0        3.437303   -2.215609   -1.292766
     31          1           0        2.577047    3.290175   -0.704497
 ---------------------------------------------------------------------

 SCF Done:  E(UB3LYP) =  -804.264972154     A.U. after   33 cycles
 SCF Done:  E(UB3LYP) =  -804.264972154     a.u. after    1 cycles

 The electronic state is 2-A.
 Alpha  occ. eigenvalues --  -19.08594 -19.08236 -19.08119 -19.07831 -19.02364
 Alpha  occ. eigenvalues --  -19.01798 -10.26101 -10.25818 -10.15470 -10.14855
 Alpha  occ. eigenvalues --  -10.07477 -10.07375 -10.07351 -10.07259 -10.06890
 Alpha  occ. eigenvalues --   -1.06076  -1.05290  -0.97489  -0.96385  -0.93591
 Alpha  occ. eigenvalues --   -0.93193  -0.73273  -0.70016  -0.65623  -0.62339
 Alpha  occ. eigenvalues --   -0.58932  -0.54513  -0.53336  -0.49128  -0.46915
 Alpha  occ. eigenvalues --   -0.46403  -0.43915  -0.41415  -0.41010  -0.40238
 Alpha  occ. eigenvalues --   -0.39249  -0.37999  -0.37385  -0.36812  -0.35126
 Alpha  occ. eigenvalues --   -0.34316  -0.33898  -0.32603  -0.31616  -0.30955
 Alpha  occ. eigenvalues --   -0.30073  -0.28242  -0.27416  -0.26630  -0.26297
 Alpha  occ. eigenvalues --   -0.25409  -0.24050  -0.23585  -0.23114  -0.23002
 Alpha  occ. eigenvalues --   -0.22549  -0.20926  -0.20610  -0.19286   0.04094
 Alpha virt. eigenvalues --    0.05596   0.06235   0.06777   0.07900   0.08317
 Alpha virt. eigenvalues --    0.09756   0.10033   0.10747   0.11117   0.11334
 Alpha virt. eigenvalues --    0.11626   0.12265   0.12553   0.13658   0.13938

  Beta  occ. eigenvalues --  -19.08581 -19.08223 -19.08073 -19.07789 -19.02353
  Beta  occ. eigenvalues --  -19.01786 -10.26098 -10.25816 -10.15460 -10.14833
  Beta  occ. eigenvalues --  -10.07468 -10.07355 -10.07333 -10.07254 -10.06868
  Beta  occ. eigenvalues --   -1.06037  -1.05249  -0.97428  -0.96326  -0.93559
  Beta  occ. eigenvalues --   -0.93162  -0.73242  -0.69975  -0.65589  -0.62298
  Beta  occ. eigenvalues --   -0.58892  -0.54437  -0.53279  -0.49053  -0.46866
  Beta  occ. eigenvalues --   -0.46357  -0.43877  -0.41387  -0.40987  -0.40211
  Beta  occ. eigenvalues --   -0.39214  -0.37962  -0.37354  -0.36766  -0.35090
  Beta  occ. eigenvalues --   -0.34281  -0.33856  -0.32573  -0.31586  -0.30930
  Beta  occ. eigenvalues --   -0.30042  -0.28221  -0.27391  -0.26607  -0.26267
  Beta  occ. eigenvalues --   -0.25374  -0.24013  -0.23560  -0.23090  -0.22973
  Beta  occ. eigenvalues --   -0.22518  -0.20909  -0.20589  -0.19262
  Beta virt. eigenvalues --    0.06202   0.06861   0.07340   0.07510   0.08324
  Beta virt. eigenvalues --    0.08818   0.09926   0.10296   0.11150   0.11381
  Beta virt. eigenvalues --    0.11509   0.11659   0.12434   0.12598   0.13710

 Mulliken charges and spin densities:
               1          2
     1  C    0.588980  -1.227765
     2  C   -0.543164   0.386134
     3  C    0.281057  -0.522893
     4  C    0.180676  -0.539556
     5  C    0.448801  -0.547689
     6  C   -1.119208   0.772100
     7  C    1.175401  -1.597016
     8  O   -0.055005  -0.008761
     9  C    0.307836  -0.253209
    10  O   -0.295775   0.016453
    11  O   -0.208423   0.023907
    12  O    0.072814  -0.060706
    13  C   -0.007451   0.051614
    14  O   -0.214067  -0.042680
    15  O   -0.194877   0.009807
    16  H    0.012100   0.124445
    17  H   -0.193997   0.333728
    18  H    0.010574   0.123506
    19  H    0.005344   0.138540
    20  H   -0.537585   0.705745
    21  H   -0.061998   0.193896
    22  H   -0.123604   0.280811
    23  H    0.138255   0.070711
    24  H    0.141673   0.008496
    25  H    0.218565   0.038862
    26  H   -0.001952   0.221565
    27  H   -0.166223   0.406182
    28  H   -0.213296   0.432598
    29  H    0.082757   0.111713
    30  H   -0.330547   0.643048
    31  H   -0.397661   0.706416
 Sum of Mulliken charges =  -1.00000   1.00000

 Dipole moment (field-independent basis, Debye):
    X=             -0.3870    Y=             -1.4720    Z=              0.0785  Tot=              1.5241
 Quadrupole moment (field-independent basis, Debye-Ang):
   XX=           -174.2471   YY=           -137.3799   ZZ=           -122.1910
   XY=              0.4928   XZ=             11.3680   YZ=             -1.7883

 Summary of Natural Population Analysis:

                                       Natural Population
                Natural  -----------------------------------------------
    Atom  No    Charge         Core      Valence    Rydberg      Total
 -----------------------------------------------------------------------
      C    1   -0.28826      0.99967     2.28228    0.00631     3.28826
      C    2   -0.19343      0.99964     2.18551    0.00828     3.19343
      C    3   -0.19251      0.99963     2.18370    0.00918     3.19251
      C    4   -0.19370      0.99962     2.18674    0.00734     3.19370
      C    5   -0.21027      0.99959     2.20238    0.00829     3.21027
      C    6    0.05622      0.99950     1.93114    0.01313     2.94378
      C    7   -0.02381      0.99951     2.01221    0.01209     3.02381
      O    8   -0.27533      0.99985     3.26556    0.00992     4.27533
      C    9    0.51598      0.99976     1.45573    0.02853     2.48402
      O   10   -0.32939      0.99986     3.32383    0.00570     4.32939
      O   11   -0.33110      0.99987     3.32490    0.00633     4.33110
      O   12   -0.27962      0.99985     3.27013    0.00965     4.27962
      C   13    0.51292      0.99976     1.45858    0.02873     2.48708
      O   14   -0.32385      0.99986     3.31778    0.00621     4.32385
      O   15   -0.33805      0.99987     3.33208    0.00609     4.33805
      H   16    0.09560      0.00000     0.40352    0.00088     0.40440
      H   17    0.09979      0.00000     0.39937    0.00084     0.40021
      H   18    0.09517      0.00000     0.40394    0.00090     0.40483
      H   19    0.09321      0.00000     0.40542    0.00137     0.40679
      H   20    0.09807      0.00000     0.40034    0.00159     0.40193
      H   21    0.09415      0.00000     0.40444    0.00141     0.40585
      H   22    0.09724      0.00000     0.40177    0.00099     0.40276
      H   23    0.10701      0.00000     0.39166    0.00134     0.39299
      H   24    0.09824      0.00000     0.40070    0.00106     0.40176
      H   25    0.11963      0.00000     0.37892    0.00145     0.38037
      H   26    0.10114      0.00000     0.39754    0.00132     0.39886
      H   27    0.10084      0.00000     0.39715    0.00201     0.39916
      H   28    0.09836      0.00000     0.40035    0.00129     0.40164
      H   29    0.10343      0.00000     0.39530    0.00127     0.39657
      H   30    0.24631      0.00000     0.24367    0.01001     0.25369
      H   31    0.24601      0.00000     0.24443    0.00956     0.25399
 =======================================================================
   * Total *    0.00000     14.99585    43.80107    0.20308    59.00000

 Normal termination of Gaussian 16 at Thu Dec 10 18:25:57 2020.
