 Gaussian 16, Revision A.03,

 -----------------------------------------------------------
 # opt freq B3LYP/6-31G(d) empiricaldispersion=gd3bj scf=xqc
 -----------------------------------------------------------

 -------------------------------
 CID_130990805_JID_3392_neutraal
 -------------------------------
 Symbolic Z-matrix:
 Charge =  0 Multiplicity = 1

 SCF Done:  E(RB3LYP) =  -610.087590183     A.U. after   15 cycles
 SCF Done:  E(RB3LYP) =  -610.092464844     A.U. after   13 cycles
 SCF Done:  E(RB3LYP) =  -610.093030611     A.U. after   12 cycles
 SCF Done:  E(RB3LYP) =  -610.093402293     A.U. after   12 cycles
 SCF Done:  E(RB3LYP) =  -610.093565530     A.U. after   11 cycles
 SCF Done:  E(RB3LYP) =  -610.093780532     A.U. after   11 cycles
 SCF Done:  E(RB3LYP) =  -610.094128748     A.U. after   12 cycles
 SCF Done:  E(RB3LYP) =  -610.094195995     A.U. after   11 cycles
 SCF Done:  E(RB3LYP) =  -610.094478057     A.U. after   11 cycles
 SCF Done:  E(RB3LYP) =  -610.094884466     A.U. after   12 cycles
 SCF Done:  E(RB3LYP) =  -610.095079905     A.U. after    9 cycles
 SCF Done:  E(RB3LYP) =  -610.095080675     A.U. after    8 cycles
 SCF Done:  E(RB3LYP) =  -610.095081268     A.U. after    8 cycles
 SCF Done:  E(RB3LYP) =  -610.095081537     A.U. after    7 cycles
 SCF Done:  E(RB3LYP) =  -610.095081673     A.U. after    7 cycles
 SCF Done:  E(RB3LYP) =  -610.095081721     A.U. after    7 cycles
 Optimization completed.
    -- Stationary point found.
 Normal termination of Gaussian 16 at Wed Dec  9 23:09:35 2020.

 --------------------------------------------------------------------
 #N Geom=AllCheck Guess=TCheck SCRF=Check GenChk RB3LYP/6-31G(d) Freq
 --------------------------------------------------------------------

 Structure from the checkpoint file:  "JID_3392.chk"
 -------------------------------
 CID_130990805_JID_3392_neutraal
 -------------------------------
 Charge =  0 Multiplicity = 1

 SCF Done:  E(RB3LYP) =  -610.095081721     A.U. after    1 cycles

  Exact polarizability: 146.815   2.808 103.349  -3.951  -2.520  76.026
 Approx polarizability: 183.908   3.593 182.546  -4.782 -11.043 115.993

                      1                      2                      3
                      A                      A                      A
 Frequencies --     44.8566                49.0094                78.1866
 Red. masses --      3.8692                 3.7321                 2.8458
 Frc consts  --      0.0046                 0.0053                 0.0102
 IR Inten    --      1.7113                 0.6399                 0.4545

                      4                      5                      6
                      A                      A                      A
 Frequencies --     88.3395               112.7931               126.0930
 Red. masses --      2.9895                 2.1488                 1.0835
 Frc consts  --      0.0137                 0.0161                 0.0102
 IR Inten    --      0.7814                 2.2867                 0.0520

                      7                      8                      9
                      A                      A                      A
 Frequencies --    175.4433               200.2403               211.7207
 Red. masses --      3.5992                 2.5167                 2.0087
 Frc consts  --      0.0653                 0.0595                 0.0531
 IR Inten    --      0.4813                 0.7154                 4.0901

                     10                     11                     12
                      A                      A                      A
 Frequencies --    275.8123               326.6723               336.0425
 Red. masses --      3.8617                 5.3480                 3.4722
 Frc consts  --      0.1731                 0.3363                 0.2310
 IR Inten    --      2.0726                 3.6188                 1.1921

                     13                     14                     15
                      A                      A                      A
 Frequencies --    353.5740               419.1281               448.8960
 Red. masses --      3.5700                 3.8022                 3.3744
 Frc consts  --      0.2630                 0.3935                 0.4006
 IR Inten    --      7.0637                 5.3164                 1.5883

                     16                     17                     18
                      A                      A                      A
 Frequencies --    519.5945               643.1713               661.5665
 Red. masses --      3.6560                 8.5482                 4.2400
 Frc consts  --      0.5816                 2.0834                 1.0933
 IR Inten    --      5.8743                 1.6793                 1.0677

                     19                     20                     21
                      A                      A                      A
 Frequencies --    668.5216               715.3352               767.2413
 Red. masses --      4.8510                 4.2825                 1.8357
 Frc consts  --      1.2773                 1.2911                 0.6367
 IR Inten    --      4.5624                13.8642                 0.9583

                     22                     23                     24
                      A                      A                      A
 Frequencies --    774.8788               825.9301               834.8856
 Red. masses --      2.3206                 1.5647                 1.8230
 Frc consts  --      0.8209                 0.6289                 0.7487
 IR Inten    --     14.9802                12.9612                 4.5600

                     25                     26                     27
                      A                      A                      A
 Frequencies --    841.4795               947.4714               957.3670
 Red. masses --      1.3030                 4.8184                 6.9807
 Frc consts  --      0.5436                 2.5485                 3.7697
 IR Inten    --      9.8669                35.1056                11.7176

                     28                     29                     30
                      A                      A                      A
 Frequencies --    983.4921               994.2277              1018.2045
 Red. masses --      3.6536                 1.8845                 3.1572
 Frc consts  --      2.0821                 1.0975                 1.9285
 IR Inten    --      0.9211                 0.4671                14.3632

                     31                     32                     33
                      A                      A                      A
 Frequencies --   1057.1565              1074.3599              1079.0510
 Red. masses --      3.0176                 1.3803                 1.4987
 Frc consts  --      1.9870                 0.9387                 1.0281
 IR Inten    --      2.5404                10.2377                 2.5094

                     34                     35                     36
                      A                      A                      A
 Frequencies --   1085.7081              1101.4370              1128.9457
 Red. masses --      1.3483                 2.0208                 1.2808
 Frc consts  --      0.9364                 1.4444                 0.9618
 IR Inten    --      0.8957                70.0389                 3.7020

                     37                     38                     39
                      A                      A                      A
 Frequencies --   1132.8503              1163.9399              1183.5454
 Red. masses --      1.4063                 1.3176                 1.7899
 Frc consts  --      1.0633                 1.0517                 1.4772
 IR Inten    --     17.1510                 2.6230                74.9883

                     40                     41                     42
                      A                      A                      A
 Frequencies --   1204.1931              1234.7411              1282.8411
 Red. masses --      1.3678                 2.4330                 4.2118
 Frc consts  --      1.1686                 2.1855                 4.0838
 IR Inten    --      2.0752                 6.6996                33.5774

                     43                     44                     45
                      A                      A                      A
 Frequencies --   1302.7727              1408.6966              1414.6309
 Red. masses --      3.6290                 1.6263                 3.4627
 Frc consts  --      3.6289                 1.9015                 4.0828
 IR Inten    --     15.5821                63.5568               214.7798

                     46                     47                     48
                      A                      A                      A
 Frequencies --   1430.7677              1464.6271              1487.5949
 Red. masses --      1.4550                 2.6678                 1.1416
 Frc consts  --      1.7549                 3.3718                 1.4885
 IR Inten    --      1.1192                18.9814                 1.8363

                     49                     50                     51
                      A                      A                      A
 Frequencies --   1492.3995              1500.8456              1512.0101
 Red. masses --      1.3507                 1.8446                 1.0438
 Frc consts  --      1.7725                 2.4480                 1.4060
 IR Inten    --      1.0930                30.2288                 7.7957

                     52                     53                     54
                      A                      A                      A
 Frequencies --   1521.5707              1530.6085              1535.5054
 Red. masses --      1.0541                 1.4342                 1.6792
 Frc consts  --      1.4378                 1.9797                 2.3327
 IR Inten    --      4.7182                15.8967                 8.0149

                     55                     56                     57
                      A                      A                      A
 Frequencies --   1549.6901              1635.5660              1764.4898
 Red. masses --      1.1664                 6.3993                12.1849
 Frc consts  --      1.6505                10.0859                22.3517
 IR Inten    --     30.6798                28.6203               241.6704

                     58                     59                     60
                      A                      A                      A
 Frequencies --   3044.3394              3059.5061              3098.3804
 Red. masses --      1.0422                 1.0373                 1.1012
 Frc consts  --      5.6909                 5.7209                 6.2288
 IR Inten    --     49.0321                17.4531                25.6281

                     61                     62                     63
                      A                      A                      A
 Frequencies --   3115.4734              3132.2650              3153.3454
 Red. masses --      1.1016                 1.0874                 1.0541
 Frc consts  --      6.2998                 6.2857                 6.1757
 IR Inten    --     12.9302                23.5667                13.7371

                     64                     65                     66
                      A                      A                      A
 Frequencies --   3155.8020              3169.6937              3188.9531
 Red. masses --      1.1011                 1.0572                 1.0965
 Frc consts  --      6.4612                 6.2578                 6.5699
 IR Inten    --      6.2310                 6.2758                 9.8811

                     67                     68                     69
                      A                      A                      A
 Frequencies --   3232.3764              3253.5369              3287.4472
 Red. masses --      1.1194                 1.1172                 1.0982
 Frc consts  --      6.8909                 6.9675                 6.9926
 IR Inten    --      5.6971                14.0256                 0.3696

 - Thermochemistry -
 -------------------
 Temperature   298.150 Kelvin.  Pressure   1.00000 Atm.
 Atom     1 has atomic number  6 and mass  12.00000

 Molecular mass:   180.08988 amu.
 Principal axes and moments of inertia in atomic units:
                           1         2         3
     Eigenvalues --   915.192814301.515934728.82213
           X            0.99994   0.00923  -0.00547
           Y           -0.00912   0.99977   0.01920
           Z            0.00564  -0.01915   0.99980
 This molecule is an asymmetric top.
 Rotational symmetry number  1.
 Warning -- assumption of classical behavior for rotation
           may cause significant error
 Rotational temperatures (Kelvin)      0.09464     0.02014     0.01832
 Rotational constants (GHZ):           1.97198     0.41956     0.38165
 Zero-point vibrational energy     535758.6 (Joules/Mol)
                                  128.04937 (Kcal/Mol)
 Warning -- explicit consideration of  16 degrees of freedom as
           vibrations may cause significant error
 Vibrational temperatures:     64.54    70.51   112.49   127.10   162.28
          (Kelvin)            181.42   252.42   288.10   304.62   396.83
                              470.01   483.49   508.71   603.03   645.86
                              747.58   925.38   951.85   961.85  1029.21
                             1103.89  1114.88  1188.33  1201.21  1210.70
                             1363.20  1377.44  1415.03  1430.47  1464.97
                             1521.01  1545.76  1552.51  1562.09  1584.72
                             1624.30  1629.92  1674.65  1702.86  1732.57
                             1776.52  1845.72  1874.40  2026.80  2035.34
                             2058.56  2107.27  2140.32  2147.23  2159.38
                             2175.45  2189.20  2202.20  2209.25  2229.66
                             2353.21  2538.71  4380.13  4401.95  4457.88
                             4482.47  4506.63  4536.96  4540.50  4560.48
                             4588.19  4650.67  4681.11  4729.90

 Zero-point correction=                           0.204060 (Hartree/Particle)
 Thermal correction to Energy=                    0.216968
 Thermal correction to Enthalpy=                  0.217912
 Thermal correction to Gibbs Free Energy=         0.163604
 Sum of electronic and zero-point Energies=           -609.891022
 Sum of electronic and thermal Energies=              -609.878114
 Sum of electronic and thermal Enthalpies=            -609.877170
 Sum of electronic and thermal Free Energies=         -609.931477

                     E (Thermal)             CV                S
                      KCal/Mol        Cal/Mol-Kelvin    Cal/Mol-Kelvin
 Total                  136.149             46.640            114.300
 Electronic               0.000              0.000              0.000
 Translational            0.889              2.981             41.472
 Rotational               0.889              2.981             31.299
 Vibrational            134.372             40.678             41.529
 Vibration     1          0.595              1.979              5.032
 Vibration     2          0.595              1.978              4.857
 Vibration     3          0.599              1.964              3.936
 Vibration     4          0.601              1.957              3.697
 Vibration     5          0.607              1.939              3.220
 Vibration     6          0.611              1.927              3.005
 Vibration     7          0.627              1.873              2.376
 Vibration     8          0.638              1.840              2.131
 Vibration     9          0.643              1.823              2.029
 Vibration    10          0.677              1.718              1.560
 Vibration    11          0.710              1.622              1.276
 Vibration    12          0.717              1.604              1.231
 Vibration    13          0.730              1.568              1.150
 Vibration    14          0.782              1.429              0.895
 Vibration    15          0.808              1.363              0.799
 Vibration    16          0.875              1.207              0.611

                           ! Non-Optimized Parameters !
 Normal termination of Gaussian 16 at Wed Dec  9 23:15:07 2020.

 ----------------------------------------------------------------------
 # B3LYP/6-311++G(d,p) empiricaldispersion=gd3bj scf=xqc pop=npa geom=c
 heck
 ----------------------------------------------------------------------

 ---------------------------------------
 CID_130990805_JID_3392_Energie_neutraal
 ---------------------------------------
 Structure from the checkpoint file:  "JID_3392.chk"
 Charge =  0 Multiplicity = 1

 SCF Done:  E(RB3LYP) =  -610.263244746     A.U. after   17 cycles
 Normal termination of Gaussian 16 at Wed Dec  9 23:17:24 2020.

 ----------------------------------------------------------------------
 # B3LYP/6-311++G(d,p) empiricaldispersion=gd3bj scf=xqc pop=npa geom=c
 heck
 ----------------------------------------------------------------------

 -------------------------------------
 CID_130990805_JID_3392_Energie_kation
 -------------------------------------
 Structure from the checkpoint file:  "JID_3392.chk"
 Charge =  1 Multiplicity = 2

 SCF Done:  E(UB3LYP) =  -609.932560846     A.U. after   30 cycles
 Normal termination of Gaussian 16 at Wed Dec  9 23:22:43 2020.
 Gaussian 16:  ES64L-G16RevA.03 25-Dec-2016

 ----------------------------------------------------------------------
 # B3LYP/6-311++G(d,p) empiricaldispersion=gd3bj scf=xqc pop=npa geom=c
 heck
 ----------------------------------------------------------------------

 ------------------------------------
 CID_130990805_JID_3392_Energie_anion
 ------------------------------------
 Structure from the checkpoint file:  "JID_3392.chk"
 Charge = -1 Multiplicity = 2

                         Standard orientation:
 ---------------------------------------------------------------------
 Center     Atomic      Atomic             Coordinates (Angstroms)
 Number     Number       Type             X           Y           Z
 ---------------------------------------------------------------------
      1          6           0       -4.190065   -1.075293    0.652640
      2          6           0       -2.963409   -0.316863    0.255221
      3          7           0       -3.069780    0.865165   -0.315718
      4          8           0       -1.766166    1.303752   -0.543105
      5          6           0       -0.900851    0.362060   -0.114237
      6          6           0       -1.595336   -0.692132    0.404913
      7          6           0        0.547937    0.731624   -0.161359
      8          8           0        0.890400    1.878758    0.084184
      9          7           0        1.440089   -0.294434   -0.391301
     10          6           0        1.131770   -1.487475   -1.175226
     11          6           0        2.840622    0.023449   -0.275986
     12          6           0        3.387729    0.413556    1.062720
     13          6           0        3.721600   -0.938714    0.484800
     14          1           0       -4.199285   -1.263955    1.731919
     15          1           0       -5.083455   -0.503864    0.390434
     16          1           0       -4.232660   -2.045650    0.145531
     17          1           0       -1.197914   -1.593834    0.845977
     18          1           0        1.683121   -1.463390   -2.123889
     19          1           0        1.424104   -2.393639   -0.634007
     20          1           0        0.066867   -1.534570   -1.395929
     21          1           0        3.266774    0.511574   -1.152549
     22          1           0        4.151568    1.184061    1.084806
     23          1           0        2.686066    0.452950    1.888889
     24          1           0        3.246512   -1.805994    0.934317
     25          1           0        4.722280   -1.120172    0.104085
 ---------------------------------------------------------------------

 SCF Done:  E(UB3LYP) =  -610.261918917     A.U. after   32 cycles

 The electronic state is 2-A.
 Alpha  occ. eigenvalues --  -19.05783 -18.94324 -14.21520 -14.21435 -10.12798
 Alpha  occ. eigenvalues --  -10.09455 -10.09273 -10.08440 -10.08423 -10.07491
 Alpha  occ. eigenvalues --  -10.06425 -10.06206 -10.04157  -1.00225  -0.90184
 Alpha  occ. eigenvalues --   -0.81742  -0.74307  -0.73361  -0.66400  -0.61412
 Alpha  occ. eigenvalues --   -0.58831  -0.53788  -0.49613  -0.48386  -0.44803
 Alpha  occ. eigenvalues --   -0.41954  -0.39963  -0.38512  -0.36818  -0.35104
 Alpha  occ. eigenvalues --   -0.34236  -0.32652  -0.31268  -0.30839  -0.30344
 Alpha  occ. eigenvalues --   -0.29100  -0.27791  -0.26735  -0.26072  -0.25122
 Alpha  occ. eigenvalues --   -0.24465  -0.20026  -0.18776  -0.17574  -0.16288
 Alpha  occ. eigenvalues --   -0.13865  -0.12691  -0.11733   0.04729
 Alpha virt. eigenvalues --    0.07123   0.07492   0.08596   0.08787   0.10176
 Alpha virt. eigenvalues --    0.10527   0.11218   0.11910   0.12345   0.12771
 Alpha virt. eigenvalues --    0.13780   0.14327   0.14916   0.15864   0.16136

  Beta  occ. eigenvalues --  -19.05513 -18.94028 -14.21420 -14.21273 -10.12622
  Beta  occ. eigenvalues --  -10.09452 -10.09086 -10.08471 -10.08385 -10.07488
  Beta  occ. eigenvalues --  -10.06388 -10.06200 -10.04074  -0.99780  -0.89723
  Beta  occ. eigenvalues --   -0.81569  -0.74021  -0.73300  -0.65999  -0.61325
  Beta  occ. eigenvalues --   -0.58706  -0.53401  -0.49525  -0.48190  -0.44606
  Beta  occ. eigenvalues --   -0.41782  -0.39779  -0.38424  -0.36725  -0.34711
  Beta  occ. eigenvalues --   -0.33849  -0.32508  -0.31043  -0.30520  -0.30100
  Beta  occ. eigenvalues --   -0.28967  -0.27653  -0.26545  -0.25940  -0.24562
  Beta  occ. eigenvalues --   -0.23869  -0.19826  -0.18732  -0.17230  -0.15394
  Beta  occ. eigenvalues --   -0.12894  -0.12005  -0.11098
  Beta virt. eigenvalues --    0.07133   0.07761   0.08949   0.09163   0.10009
  Beta virt. eigenvalues --    0.10387   0.10553   0.11245   0.12078   0.12452
  Beta virt. eigenvalues --    0.12806   0.13777   0.14434   0.15378   0.16002

 Mulliken charges and spin densities:
               1          2
     1  C   -0.448522  -0.083735
     2  C    0.630950  -0.142175
     3  N   -0.469591   0.132473
     4  O    0.206110   0.036074
     5  C   -0.198977   0.405208
     6  C   -0.005550   0.152222
     7  C   -0.584775  -0.221182
     8  O   -0.332398   0.103759
     9  N    0.137189   0.054255
    10  C    0.516285  -0.875187
    11  C   -1.324958   1.123274
    12  C    0.241743  -0.447122
    13  C    0.794929  -1.159814
    14  H    0.102964   0.030473
    15  H    0.145950  -0.002446
    16  H    0.120539   0.012972
    17  H    0.045331   0.099105
    18  H   -0.326324   0.475292
    19  H   -0.128719   0.259470
    20  H    0.153181   0.002125
    21  H   -0.160966   0.374784
    22  H    0.128159  -0.000873
    23  H    0.099565   0.071208
    24  H    0.076466   0.043886
    25  H   -0.418580   0.555955
 Sum of Mulliken charges =  -1.00000   1.00000

 Dipole moment (field-independent basis, Debye):
    X=             -2.9708    Y=             -3.4780    Z=              2.2265  Tot=              5.0872
 Quadrupole moment (field-independent basis, Debye-Ang):
   XX=           -132.9123   YY=           -104.5328   ZZ=            -95.7164
   XY=             13.3188   XZ=              0.9731   YZ=             -1.7478

 Summary of Natural Population Analysis:

                                       Natural Population
                Natural  -----------------------------------------------
    Atom  No    Charge         Core      Valence    Rydberg      Total
 -----------------------------------------------------------------------
      C    1   -0.29585      0.99963     2.29164    0.00459     3.29585
      C    2    0.05803      0.99962     1.92806    0.01428     2.94197
      N    3   -0.06346      0.99966     2.54976    0.01404     3.56346
      O    4   -0.13340      0.99985     3.12412    0.00942     4.13340
      C    5    0.16593      0.99945     1.81941    0.01521     2.83407
      C    6   -0.16499      0.99945     2.15834    0.00719     3.16499
      C    7    0.34335      0.99960     1.63496    0.02209     2.65665
      O    8   -0.27994      0.99988     3.27491    0.00514     4.27994
      N    9   -0.26216      0.99964     2.75102    0.01150     3.76216
      C   10   -0.17337      0.99963     2.16627    0.00746     3.17337
      C   11   -0.00971      0.99957     1.99604    0.01410     3.00971
      C   12   -0.19177      0.99961     2.18217    0.00999     3.19177
      C   13   -0.20445      0.99962     2.19536    0.00947     3.20445
      H   14    0.10008      0.00000     0.39868    0.00123     0.39992
      H   15    0.10650      0.00000     0.39231    0.00119     0.39350
      H   16    0.09914      0.00000     0.39956    0.00130     0.40086
      H   17    0.10691      0.00000     0.39221    0.00088     0.39309
      H   18    0.09229      0.00000     0.40596    0.00175     0.40771
      H   19    0.08841      0.00000     0.41034    0.00125     0.41159
      H   20    0.10650      0.00000     0.39238    0.00112     0.39350
      H   21    0.09841      0.00000     0.40014    0.00145     0.40159
      H   22    0.10107      0.00000     0.39819    0.00074     0.39893
      H   23    0.10772      0.00000     0.39132    0.00097     0.39228
      H   24    0.10224      0.00000     0.39673    0.00102     0.39776
      H   25    0.10251      0.00000     0.39557    0.00192     0.39749
 =======================================================================
   * Total *   -0.00000     12.99523    34.84548    0.15930    48.00000

 Normal termination of Gaussian 16 at Wed Dec  9 23:28:32 2020.
