 Gaussian 16, Revision A.03,

 -----------------------------------------------------------
 # opt freq B3LYP/6-31G(d) empiricaldispersion=gd3bj scf=xqc
 -----------------------------------------------------------

 -------------------------------
 CID_142596488_JID_1313_neutraal
 -------------------------------
 Symbolic Z-matrix:
 Charge =  0 Multiplicity = 1

 SCF Done:  E(RB3LYP) =  -478.165329828     A.U. after   14 cycles
 SCF Done:  E(RB3LYP) =  -478.170355228     A.U. after   12 cycles
 SCF Done:  E(RB3LYP) =  -478.171091985     A.U. after   11 cycles
 SCF Done:  E(RB3LYP) =  -478.171519220     A.U. after   11 cycles
 SCF Done:  E(RB3LYP) =  -478.171695924     A.U. after   11 cycles
 SCF Done:  E(RB3LYP) =  -478.171809109     A.U. after   10 cycles
 SCF Done:  E(RB3LYP) =  -478.171877084     A.U. after   10 cycles
 SCF Done:  E(RB3LYP) =  -478.171885877     A.U. after    9 cycles
 SCF Done:  E(RB3LYP) =  -478.171889908     A.U. after    8 cycles
 SCF Done:  E(RB3LYP) =  -478.171894439     A.U. after    9 cycles
 SCF Done:  E(RB3LYP) =  -478.171895521     A.U. after    7 cycles
 SCF Done:  E(RB3LYP) =  -478.171895710     A.U. after    7 cycles
 SCF Done:  E(RB3LYP) =  -478.171895747     A.U. after    6 cycles
 SCF Done:  E(RB3LYP) =  -478.171895758     A.U. after    7 cycles
 SCF Done:  E(RB3LYP) =  -478.171895766     A.U. after    7 cycles
 SCF Done:  E(RB3LYP) =  -478.171895784     A.U. after    6 cycles
 Optimization completed.
    -- Stationary point found.

 1\1\GINC-NODE355\FOpt\RB3LYP\6-31G(d)\C8H15N3\VSC10255\08-Dec-2020\0\\
 # opt freq B3LYP/6-31G(d) empiricaldispersion=gd3bj scf=xqc\\CID_14259
 6488_JID_1313_neutraal\\0,1\C,0.8396135097,-0.0543453528,0.0657507912\
 C,0.4277469861,-1.5262295619,-0.0295627939\C,0.8952996392,-2.383773816
 3,1.1531902254\C,0.3000728327,-1.9685234009,2.5058518981\N,-1.15367142
 88,-1.9522462679,2.4956956904\C,-1.9872453229,-3.0515456465,2.31258420
 52\C,-3.2682337793,-2.5322119865,2.2671778988\N,-3.2369460505,-1.16480
 11355,2.4153221399\C,-1.9572032979,-0.8573862999,2.5408685674\N,-4.471

 Normal termination of Gaussian 16 at Tue Dec  8 19:41:11 2020.

 --------------------------------------------------------------------
 #N Geom=AllCheck Guess=TCheck SCRF=Check GenChk RB3LYP/6-31G(d) Freq
 --------------------------------------------------------------------

 Structure from the checkpoint file:  "JID_1313.chk"
 -------------------------------
 CID_142596488_JID_1313_neutraal
 -------------------------------
 Charge =  0 Multiplicity = 1

 SCF Done:  E(RB3LYP) =  -478.171895784     A.U. after    1 cycles

  Exact polarizability: 132.042  -5.924  94.009   9.870   7.398  78.327
 Approx polarizability: 166.145 -14.098 149.122  18.669  17.863 117.935

                      1                      2                      3
                      A                      A                      A
 Frequencies --     36.1395                47.2926                76.5511
 Red. masses --      3.5303                 2.7244                 3.5325
 Frc consts  --      0.0027                 0.0036                 0.0122
 IR Inten    --      0.5121                 0.7452                 1.6394

                      4                      5                      6
                      A                      A                      A
 Frequencies --     84.8840               146.5153               161.4088
 Red. masses --      2.1774                 1.8240                 1.5167
 Frc consts  --      0.0092                 0.0231                 0.0233
 IR Inten    --      0.3501                 1.9736                 1.2863

                      7                      8                      9
                      A                      A                      A
 Frequencies --    201.3158               227.1745               266.4754
 Red. masses --      1.8764                 2.2221                 1.6336
 Frc consts  --      0.0448                 0.0676                 0.0683
 IR Inten    --      0.3382                 5.6106                 1.0182

                     10                     11                     12
                      A                      A                      A
 Frequencies --    322.4345               354.7896               395.1377
 Red. masses --      2.4662                 3.0301                 2.1220
 Frc consts  --      0.1511                 0.2247                 0.1952
 IR Inten    --      6.1021                 1.7454                 4.2625

                     13                     14                     15
                      A                      A                      A
 Frequencies --    468.4372               494.2175               575.2094
 Red. masses --      3.0973                 2.4224                 2.2577
 Frc consts  --      0.4004                 0.3486                 0.4401
 IR Inten    --      9.6864                15.1336                62.0990

                     16                     17                     18
                      A                      A                      A
 Frequencies --    606.6328               640.4592               693.0778
 Red. masses --      1.3050                 3.1313                 2.1767
 Frc consts  --      0.2829                 0.7568                 0.6160
 IR Inten    --     21.0202                24.8361                18.8227

                     19                     20                     21
                      A                      A                      A
 Frequencies --    722.2961               755.1348               776.5579
 Red. masses --      8.8204                 1.4666                 1.6416
 Frc consts  --      2.7113                 0.4927                 0.5833
 IR Inten    --     11.3995                26.9248                15.0583

                     22                     23                     24
                      A                      A                      A
 Frequencies --    780.5212               818.0702               900.4471
 Red. masses --      1.4506                 2.3554                 1.4692
 Frc consts  --      0.5207                 0.9287                 0.7019
 IR Inten    --     29.7313                 0.9515                 1.4205

                     25                     26                     27
                      A                      A                      A
 Frequencies --    963.9046               987.5641               991.5304
 Red. masses --      2.0769                 1.6459                 3.6426
 Frc consts  --      1.1369                 0.9458                 2.1100
 IR Inten    --      0.7280                 0.7906                 5.9554

                     28                     29                     30
                      A                      A                      A
 Frequencies --   1061.5554              1081.8540              1088.6162
 Red. masses --      3.3072                 1.9485                 2.0483
 Frc consts  --      2.1958                 1.3437                 1.4302
 IR Inten    --      5.6560                 7.7563                18.7219

                     31                     32                     33
                      A                      A                      A
 Frequencies --   1127.5572              1141.1988              1152.2446
 Red. masses --      1.7941                 1.8861                 1.6364
 Frc consts  --      1.3440                 1.4472                 1.2800
 IR Inten    --      2.3968                 3.2912                44.6054

                     34                     35                     36
                      A                      A                      A
 Frequencies --   1165.9325              1214.2627              1225.4766
 Red. masses --      1.3516                 1.9971                 1.5039
 Frc consts  --      1.0825                 1.7349                 1.3307
 IR Inten    --      8.2835                 1.1444                 1.0438

                     37                     38                     39
                      A                      A                      A
 Frequencies --   1262.4031              1283.6241              1335.5008
 Red. masses --      1.4139                 1.3144                 1.2472
 Frc consts  --      1.3276                 1.2760                 1.3106
 IR Inten    --     37.3680                 1.7302                 8.5177

                     40                     41                     42
                      A                      A                      A
 Frequencies --   1358.2998              1387.0967              1395.1267
 Red. masses --      3.0950                 1.7817                 1.8125
 Frc consts  --      3.3644                 2.0198                 2.0785
 IR Inten    --     69.6498                10.7432                 5.2065

                     43                     44                     45
                      A                      A                      A
 Frequencies --   1410.5737              1420.8440              1443.7239
 Red. masses --      2.0083                 1.4092                 1.2661
 Frc consts  --      2.3543                 1.6762                 1.5549
 IR Inten    --     44.4918                15.6006                 9.8336

                     46                     47                     48
                      A                      A                      A
 Frequencies --   1461.3443              1474.6380              1493.6511
 Red. masses --      2.1430                 1.4767                 1.5785
 Frc consts  --      2.6964                 1.8920                 2.0748
 IR Inten    --     23.6483                 2.1666                33.3725

                     49                     50                     51
                      A                      A                      A
 Frequencies --   1508.8105              1514.7646              1520.0296
 Red. masses --      1.0903                 1.0773                 1.1059
 Frc consts  --      1.4624                 1.4563                 1.5055
 IR Inten    --      3.3132                19.0204                 1.9217

                     52                     53                     54
                      A                      A                      A
 Frequencies --   1521.7389              1532.3207              1539.9295
 Red. masses --      1.1000                 1.0744                 1.0852
 Frc consts  --      1.5007                 1.4864                 1.5162
 IR Inten    --      6.0323                10.6694                 9.9331

                     55                     56                     57
                      A                      A                      A
 Frequencies --   1546.4082              1556.7283              1641.4779
 Red. masses --      1.0668                 2.4223                 4.9513
 Frc consts  --      1.5031                 3.4586                 7.8603
 IR Inten    --      4.2805                42.4963               263.1726

                     58                     59                     60
                      A                      A                      A
 Frequencies --   3000.2635              3037.2735              3045.8650
 Red. masses --      1.0566                 1.0619                 1.0399
 Frc consts  --      5.6036                 5.7717                 5.6839
 IR Inten    --    102.8941                16.5172                17.7428

                     61                     62                     63
                      A                      A                      A
 Frequencies --   3050.0321              3061.0275              3076.7779
 Red. masses --      1.0622                 1.0651                 1.1002
 Frc consts  --      5.8221                 5.8798                 6.1362
 IR Inten    --     29.0207                55.1533                19.3447

                     64                     65                     66
                      A                      A                      A
 Frequencies --   3085.9247              3104.7403              3112.5107
 Red. masses --      1.1005                 1.0804                 1.1017
 Frc consts  --      6.1744                 6.1360                 6.2881
 IR Inten    --     17.5980                46.6420                61.3136

                     67                     68                     69
                      A                      A                      A
 Frequencies --   3116.4704              3122.6991              3159.0068
 Red. masses --      1.1002                 1.1003                 1.1015
 Frc consts  --      6.2957                 6.3218                 6.4763
 IR Inten    --     35.3013                35.0849                14.7608

                     70                     71                     72
                      A                      A                      A
 Frequencies --   3258.5077              3284.7535              3569.7748
 Red. masses --      1.0955                 1.0970                 1.0751
 Frc consts  --      6.8535                 6.9738                 8.0718
 IR Inten    --      5.0712                 2.2922                 3.8158

 - Thermochemistry -
 -------------------
 Temperature   298.150 Kelvin.  Pressure   1.00000 Atm.
 Atom     1 has atomic number  6 and mass  12.00000

 Molecular mass:   153.12660 amu.
 Principal axes and moments of inertia in atomic units:
                           1         2         3
     Eigenvalues --   721.407503329.405003462.02552
           X            0.99999   0.00430   0.00000
           Y           -0.00430   0.99997   0.00571
           Z            0.00002  -0.00571   0.99998
 This molecule is an asymmetric top.
 Rotational symmetry number  1.
 Warning -- assumption of classical behavior for rotation
           may cause significant error
 Rotational temperatures (Kelvin)      0.12006     0.02601     0.02502
 Rotational constants (GHZ):           2.50169     0.54206     0.52130
 Zero-point vibrational energy     606791.0 (Joules/Mol)
                                  145.02654 (Kcal/Mol)
 Warning -- explicit consideration of  16 degrees of freedom as
           vibrations may cause significant error
 Vibrational temperatures:     52.00    68.04   110.14   122.13   210.80
          (Kelvin)            232.23   289.65   326.85   383.40   463.91
                              510.46   568.51   673.98   711.07   827.60
                              872.81   921.48   997.18  1039.22  1086.47
                             1117.29  1123.00  1177.02  1295.54  1386.84
                             1420.88  1426.59  1527.34  1556.55  1566.28
                             1622.30  1641.93  1657.82  1677.52  1747.05
                             1763.19  1816.32  1846.85  1921.49  1954.29
                             1995.72  2007.28  2029.50  2044.28  2077.20
                             2102.55  2121.68  2149.03  2170.84  2179.41
                             2186.98  2189.44  2204.67  2215.62  2224.94
                             2239.78  2361.72  4316.71  4369.96  4382.32
                             4388.32  4404.14  4426.80  4439.96  4467.03
                             4478.21  4483.91  4492.87  4545.11  4688.27
                             4726.03  5136.11

 Zero-point correction=                           0.231114 (Hartree/Particle)
 Thermal correction to Energy=                    0.243077
 Thermal correction to Enthalpy=                  0.244021
 Thermal correction to Gibbs Free Energy=         0.192037
 Sum of electronic and zero-point Energies=           -477.940781
 Sum of electronic and thermal Energies=              -477.928819
 Sum of electronic and thermal Enthalpies=            -477.927874
 Sum of electronic and thermal Free Energies=         -477.979859

                     E (Thermal)             CV                S
                      KCal/Mol        Cal/Mol-Kelvin    Cal/Mol-Kelvin
 Total                  152.533             43.546            109.411
 Electronic               0.000              0.000              0.000
 Translational            0.889              2.981             40.988
 Rotational               0.889              2.981             30.498
 Vibrational            150.756             37.584             37.924
 Vibration     1          0.594              1.982              5.460
 Vibration     2          0.595              1.979              4.928
 Vibration     3          0.599              1.965              3.977
 Vibration     4          0.601              1.960              3.775
 Vibration     5          0.617              1.906              2.717
 Vibration     6          0.622              1.890              2.533
 Vibration     7          0.638              1.838              2.121
 Vibration     8          0.651              1.800              1.901
 Vibration     9          0.672              1.735              1.619
 Vibration    10          0.707              1.631              1.298
 Vibration    11          0.731              1.565              1.145
 Vibration    12          0.762              1.481              0.981
 Vibration    13          0.826              1.320              0.742
 Vibration    14          0.850              1.263              0.673
 Vibration    15          0.932              1.085              0.494
 Vibration    16          0.965              1.018              0.438

                           ! Non-Optimized Parameters !

 1\1\GINC-NODE355\Freq\RB3LYP\6-31G(d)\C8H15N3\VSC10255\08-Dec-2020\0\\
 #N Geom=AllCheck Guess=TCheck SCRF=Check GenChk RB3LYP/6-31G(d) Freq\\
 CID_142596488_JID_1313_neutraal\\0,1\C,0.8396135097,-0.0543453528,0.06
 57507912\C,0.4277469861,-1.5262295619,-0.0295627939\C,0.8952996392,-2.
 3837738163,1.1531902254\C,0.3000728327,-1.9685234009,2.5058518981\N,-1
 .1536714288,-1.9522462679,2.4956956904\C,-1.9872453229,-3.0515456465,2
 .3125842052\C,-3.2682337793,-2.5322119865,2.2671778988\N,-3.2369460505
 ,-1.1648011355,2.4153221399\C,-1.9572032979,-0.8573862999,2.5408685674

 Normal termination of Gaussian 16 at Tue Dec  8 19:46:06 2020.

 ----------------------------------------------------------------------
 # B3LYP/6-311++G(d,p) empiricaldispersion=gd3bj scf=xqc pop=npa geom=c
 heck
 ----------------------------------------------------------------------

 ---------------------------------------
 CID_142596488_JID_1313_Energie_neutraal
 ---------------------------------------
 Structure from the checkpoint file:  "JID_1313.chk"
 Charge =  0 Multiplicity = 1

 SCF Done:  E(RB3LYP) =  -478.307406219     A.U. after   14 cycles
 Normal termination of Gaussian 16 at Tue Dec  8 19:48:35 2020.

 ----------------------------------------------------------------------
 # B3LYP/6-311++G(d,p) empiricaldispersion=gd3bj scf=xqc pop=npa geom=c
 heck
 ----------------------------------------------------------------------

 -------------------------------------
 CID_142596488_JID_1313_Energie_kation
 -------------------------------------
 Structure from the checkpoint file:  "JID_1313.chk"
 Charge =  1 Multiplicity = 2

 SCF Done:  E(UB3LYP) =  -478.048169678     A.U. after   19 cycles
 Normal termination of Gaussian 16 at Tue Dec  8 19:52:03 2020.
 Gaussian 16:  ES64L-G16RevA.03 25-Dec-2016

 ------------------------------------
 CID_142596488_JID_1313_Energie_anion
 ------------------------------------
 Structure from the checkpoint file:  "JID_1313.chk"
 Charge = -1 Multiplicity = 2

                         Standard orientation:
 ---------------------------------------------------------------------
 Center     Atomic      Atomic             Coordinates (Angstroms)
 Number     Number       Type             X           Y           Z
 ---------------------------------------------------------------------
      1          6           0        3.292661    1.413189   -0.332381
      2          6           0        2.596314    0.290373   -1.106684
      3          6           0        2.496718   -1.031872   -0.335554
      4          6           0        1.654194   -0.951693    0.945128
      5          7           0        0.308257   -0.460096    0.699111
      6          6           0       -0.669356   -1.087746   -0.067156
      7          6           0       -1.728244   -0.198855   -0.103617
      8          7           0       -1.425170    0.937702    0.609911
      9          6           0       -0.199118    0.745885    1.065993
     10          7           0       -2.942658   -0.320748   -0.778064
     11          6           0       -4.048487    0.512904   -0.322229
     12          1           0        2.724462    1.707553    0.556827
     13          1           0        3.403157    2.307366   -0.954910
     14          1           0        4.294074    1.107950   -0.003683
     15          1           0        1.588569    0.610899   -1.397556
     16          1           0        3.141842    0.102881   -2.040042
     17          1           0        2.068567   -1.800964   -0.990339
     18          1           0        3.499871   -1.381949   -0.055450
     19          1           0        1.592191   -1.939384    1.417271
     20          1           0        2.113240   -0.274816    1.671428
     21          1           0       -0.519916   -2.067783   -0.492773
     22          1           0        0.362453    1.441564    1.675094
     23          1           0       -3.208822   -1.288612   -0.913259
     24          1           0       -4.907964    0.339662   -0.976506
     25          1           0       -4.346299    0.322435    0.721416
     26          1           0       -3.756530    1.562086   -0.395217
 ---------------------------------------------------------------------

 SCF Done:  E(UB3LYP) =  -478.292848611     A.U. after   31 cycles

 The electronic state is 2-A.
 Alpha  occ. eigenvalues --  -14.26104 -14.21290 -14.18440 -10.11478 -10.11248
 Alpha  occ. eigenvalues --  -10.10954 -10.09284 -10.07760 -10.06718 -10.06477
 Alpha  occ. eigenvalues --  -10.05888  -0.91315  -0.82529  -0.77104  -0.69338
 Alpha  occ. eigenvalues --   -0.64233  -0.62409  -0.57760  -0.55611  -0.49598
 Alpha  occ. eigenvalues --   -0.47768  -0.46298  -0.43066  -0.38560  -0.37205
 Alpha  occ. eigenvalues --   -0.36032  -0.34613  -0.33950  -0.32706  -0.31698
 Alpha  occ. eigenvalues --   -0.31053  -0.29365  -0.29197  -0.28504  -0.27861
 Alpha  occ. eigenvalues --   -0.23715  -0.23525  -0.23135  -0.19615  -0.17325
 Alpha  occ. eigenvalues --   -0.15538  -0.08664   0.04527
 Alpha virt. eigenvalues --    0.06291   0.07442   0.07787   0.08648   0.09291
 Alpha virt. eigenvalues --    0.10292   0.10346   0.10519   0.11654   0.11787
 Alpha virt. eigenvalues --    0.12103   0.12754   0.13821   0.14096   0.14788

  Beta  occ. eigenvalues --  -14.26107 -14.21269 -14.18435 -10.11462 -10.11246
  Beta  occ. eigenvalues --  -10.10923 -10.09273 -10.07737 -10.06688 -10.06466
  Beta  occ. eigenvalues --  -10.05856  -0.91305  -0.82503  -0.77081  -0.69299
  Beta  occ. eigenvalues --   -0.64202  -0.62364  -0.57720  -0.55547  -0.49544
  Beta  occ. eigenvalues --   -0.47731  -0.46244  -0.43009  -0.38499  -0.37160
  Beta  occ. eigenvalues --   -0.35996  -0.34583  -0.33929  -0.32671  -0.31672
  Beta  occ. eigenvalues --   -0.31013  -0.29319  -0.29152  -0.28473  -0.27822
  Beta  occ. eigenvalues --   -0.23670  -0.23487  -0.23093  -0.19585  -0.17316
  Beta  occ. eigenvalues --   -0.15514  -0.08629
  Beta virt. eigenvalues --    0.06804   0.07243   0.08269   0.08445   0.09352
  Beta virt. eigenvalues --    0.09807   0.10521   0.10954   0.10993   0.11890
  Beta virt. eigenvalues --    0.12067   0.12575   0.13287   0.14051   0.14468

 Mulliken charges and spin densities:
               1          2
     1  C    1.125061  -1.666966
     2  C   -1.033556   0.843906
     3  C    0.899441  -1.021905
     4  C    0.429888  -0.817162
     5  N    0.075732   0.016355
     6  C   -0.616319   0.545235
     7  C    1.275625  -1.674905
     8  N   -0.241857   0.061200
     9  C    0.238854  -0.329218
    10  N   -0.186473   0.114330
    11  C   -0.050835  -0.326680
    12  H    0.049851   0.073166
    13  H   -0.056502   0.185472
    14  H   -0.350637   0.492903
    15  H    0.150916   0.015378
    16  H   -0.256101   0.421053
    17  H   -0.088732   0.227286
    18  H   -0.618272   0.778753
    19  H   -0.570679   0.774762
    20  H   -0.310480   0.459002
    21  H   -0.817740   0.975085
    22  H   -0.007344   0.158751
    23  H   -0.060132   0.296815
    24  H   -0.139880   0.261717
    25  H    0.029817   0.103719
    26  H    0.130355   0.031946
 Sum of Mulliken charges =  -1.00000   1.00000

 Dipole moment (field-independent basis, Debye):
    X=             -3.9333    Y=              3.6219    Z=             -0.0073  Tot=              5.3469
 Quadrupole moment (field-independent basis, Debye-Ang):
   XX=           -143.2496   YY=           -110.2721   ZZ=           -100.2479
   XY=              3.3545   XZ=             -3.5201   YZ=              0.6178

 Summary of Natural Population Analysis:

                                       Natural Population
                Natural  -----------------------------------------------
    Atom  No    Charge         Core      Valence    Rydberg      Total
 -----------------------------------------------------------------------
      C    1   -0.28688      0.99966     2.28183    0.00538     3.28688
      C    2   -0.19457      0.99964     2.18643    0.00850     3.19457
      C    3   -0.19215      0.99962     2.18351    0.00902     3.19215
      C    4   -0.08153      0.99960     2.06946    0.01247     3.08153
      N    5   -0.20393      0.99966     2.69268    0.01159     3.70393
      C    6   -0.06715      0.99950     2.05552    0.01213     3.06715
      C    7    0.15031      0.99954     1.83403    0.01612     2.84969
      N    8   -0.27897      0.99970     2.77031    0.00896     3.77897
      C    9    0.10970      0.99963     1.87393    0.01674     2.89030
      N   10   -0.32261      0.99969     2.81156    0.01136     3.82261
      C   11   -0.17842      0.99965     2.16968    0.00909     3.17842
      H   12    0.09355      0.00000     0.40515    0.00130     0.40645
      H   13    0.09810      0.00000     0.40109    0.00081     0.40190
      H   14    0.09805      0.00000     0.40057    0.00137     0.40195
      H   15    0.09860      0.00000     0.39992    0.00149     0.40140
      H   16    0.09708      0.00000     0.40188    0.00104     0.40292
      H   17    0.10010      0.00000     0.39811    0.00179     0.39990
      H   18    0.10240      0.00000     0.39455    0.00305     0.39760
      H   19    0.10377      0.00000     0.39353    0.00270     0.39623
      H   20    0.09995      0.00000     0.39825    0.00179     0.40005
      H   21    0.10649      0.00000     0.39166    0.00185     0.39351
      H   22    0.09113      0.00000     0.40757    0.00130     0.40887
      H   23    0.18282      0.00000     0.31342    0.00376     0.31718
      H   24    0.09042      0.00000     0.40877    0.00081     0.40958
      H   25    0.08269      0.00000     0.41594    0.00137     0.41731
      H   26    0.10106      0.00000     0.39753    0.00141     0.39894
 =======================================================================
   * Total *   -0.00000     10.99589    30.85690    0.14721    42.00000

 Normal termination of Gaussian 16 at Tue Dec  8 19:57:13 2020.
