 Gaussian 16, Revision A.03,

 -----------------------------------------------------------
 # opt freq B3LYP/6-31G(d) empiricaldispersion=gd3bj scf=xqc
 -----------------------------------------------------------

 -------------------------------
 CID_130146120_JID_2284_neutraal
 -------------------------------
 Symbolic Z-matrix:
 Charge =  0 Multiplicity = 1

 SCF Done:  E(RB3LYP) =  -588.040445718     A.U. after   14 cycles
 SCF Done:  E(RB3LYP) =  -588.044180441     A.U. after   12 cycles
 SCF Done:  E(RB3LYP) =  -588.044657510     A.U. after   12 cycles
 SCF Done:  E(RB3LYP) =  -588.044646260     A.U. after   12 cycles
 SCF Done:  E(RB3LYP) =  -588.044930126     A.U. after   12 cycles
 SCF Done:  E(RB3LYP) =  -588.044945719     A.U. after   11 cycles
 SCF Done:  E(RB3LYP) =  -588.044957451     A.U. after   10 cycles
 SCF Done:  E(RB3LYP) =  -588.044962672     A.U. after   10 cycles
 SCF Done:  E(RB3LYP) =  -588.044964268     A.U. after   10 cycles
 SCF Done:  E(RB3LYP) =  -588.044965345     A.U. after    9 cycles
 Optimization completed.
    -- Stationary point found.
 Normal termination of Gaussian 16 at Wed Dec  9 16:55:06 2020.

 --------------------------------------------------------------------
 #N Geom=AllCheck Guess=TCheck SCRF=Check GenChk RB3LYP/6-31G(d) Freq
 --------------------------------------------------------------------

 Structure from the checkpoint file:  "JID_2284.chk"
 -------------------------------
 CID_130146120_JID_2284_neutraal
 -------------------------------
 Charge =  0 Multiplicity = 1

 SCF Done:  E(RB3LYP) =  -588.044965345     A.U. after    1 cycles

  Exact polarizability: 142.345 -11.856  81.415   2.015   9.352  75.546
 Approx polarizability: 195.077 -16.608 128.934   9.403  28.181 118.212

                      1                      2                      3
                      A                      A                      A
 Frequencies --     40.9929                56.8508                96.6460
 Red. masses --      5.4277                 3.3362                 3.1061
 Frc consts  --      0.0054                 0.0064                 0.0171
 IR Inten    --      3.6115                 0.1551                 1.0728

                      4                      5                      6
                      A                      A                      A
 Frequencies --    110.6626               145.2689               211.0805
 Red. masses --      4.1123                 3.7875                 3.6665
 Frc consts  --      0.0297                 0.0471                 0.0962
 IR Inten    --      1.2313                 3.1630                 2.0429

                      7                      8                      9
                      A                      A                      A
 Frequencies --    234.7066               240.4040               256.6730
 Red. masses --      1.7365                 1.6684                 2.3128
 Frc consts  --      0.0564                 0.0568                 0.0898
 IR Inten    --      3.3184                 1.0425                 1.9395

                     10                     11                     12
                      A                      A                      A
 Frequencies --    318.6549               347.9492               362.2656
 Red. masses --      2.4938                 1.7530                 2.9276
 Frc consts  --      0.1492                 0.1250                 0.2264
 IR Inten    --      6.2146                20.1781                 7.9778

                     13                     14                     15
                      A                      A                      A
 Frequencies --    421.8410               433.8729               477.0172
 Red. masses --      1.4939                 2.2706                 3.6021
 Frc consts  --      0.1566                 0.2518                 0.4829
 IR Inten    --     64.0510                90.5499                20.9863

                     16                     17                     18
                      A                      A                      A
 Frequencies --    533.9994               581.1075               590.2489
 Red. masses --      3.1282                 3.6976                 2.3969
 Frc consts  --      0.5256                 0.7357                 0.4920
 IR Inten    --     14.8841                29.8085                 2.1706

                     19                     20                     21
                      A                      A                      A
 Frequencies --    703.0651               744.2130               778.6944
 Red. masses --      3.3846                 5.6045                 3.7927
 Frc consts  --      0.9857                 1.8289                 1.3550
 IR Inten    --     11.8183                 6.4692                 9.6317

                     22                     23                     24
                      A                      A                      A
 Frequencies --    790.8490               840.5922               909.9979
 Red. masses --      4.7457                 2.2414                 1.7263
 Frc consts  --      1.7488                 0.9331                 0.8423
 IR Inten    --     10.7395                22.5371               235.8793

                     25                     26                     27
                      A                      A                      A
 Frequencies --    939.2912               969.4847               981.8561
 Red. masses --      2.0372                 1.3824                10.2396
 Frc consts  --      1.0590                 0.7655                 5.8161
 IR Inten    --      6.3601                25.3560                 6.6716

                     28                     29                     30
                      A                      A                      A
 Frequencies --    986.1512              1022.4297              1036.1259
 Red. masses --      6.5863                 1.0705                 2.6566
 Frc consts  --      3.7738                 0.6594                 1.6803
 IR Inten    --     17.5798                20.7108                11.0329

                     31                     32                     33
                      A                      A                      A
 Frequencies --   1044.0498              1098.3120              1108.6657
 Red. masses --      1.8726                 1.9662                 1.9916
 Frc consts  --      1.2026                 1.3974                 1.4423
 IR Inten    --     41.1597                 6.7645                 7.3708

                     34                     35                     36
                      A                      A                      A
 Frequencies --   1119.6199              1148.2649              1197.7369
 Red. masses --      2.2020                 2.0731                 4.8778
 Frc consts  --      1.6263                 1.6105                 4.1229
 IR Inten    --     15.7357                72.4722                13.5702

                     37                     38                     39
                      A                      A                      A
 Frequencies --   1227.7434              1280.3398              1328.7028
 Red. masses --      1.6135                 2.1824                 1.5033
 Frc consts  --      1.4330                 2.1079                 1.5637
 IR Inten    --     16.1946                24.0499                 0.3742

                     40                     41                     42
                      A                      A                      A
 Frequencies --   1346.5381              1368.7056              1377.4186
 Red. masses --      1.4209                 1.6000                 1.8401
 Frc consts  --      1.5179                 1.7660                 2.0570
 IR Inten    --      6.4872                 6.3704                25.7625

                     43                     44                     45
                      A                      A                      A
 Frequencies --   1408.3125              1439.7615              1454.4063
 Red. masses --      1.3355                 1.2348                 1.2104
 Frc consts  --      1.5606                 1.5081                 1.5085
 IR Inten    --      1.1630                 7.4995                54.8715

                     46                     47                     48
                      A                      A                      A
 Frequencies --   1474.3839              1520.0213              1527.7331
 Red. masses --      1.3320                 1.0602                 1.0491
 Frc consts  --      1.7059                 1.4433                 1.4427
 IR Inten    --     18.5202                 3.8167                 3.7460

                     49                     50                     51
                      A                      A                      A
 Frequencies --   1598.5065              1600.7189              1678.2791
 Red. masses --      8.8668                 9.5204                 1.0943
 Frc consts  --     13.3490                14.3726                 1.8159
 IR Inten    --     44.8951                18.3885                35.7455

                     52                     53                     54
                      A                      A                      A
 Frequencies --   1713.9942              3050.8755              3086.4249
 Red. masses --      4.5324                 1.0386                 1.0848
 Frc consts  --      7.8451                 5.6955                 6.0885
 IR Inten    --      1.8895                10.7894                 9.8299

                     55                     56                     57
                      A                      A                      A
 Frequencies --   3098.4536              3120.5822              3141.4290
 Red. masses --      1.0885                 1.0974                 1.1025
 Frc consts  --      6.1568                 6.2961                 6.4104
 IR Inten    --      4.8726                46.6646                20.7537

                     58                     59                     60
                      A                      A                      A
 Frequencies --   3184.1869              3202.8610              3274.8567
 Red. masses --      1.0575                 1.0930                 1.1182
 Frc consts  --      6.3175                 6.6064                 7.0657
 IR Inten    --      0.8501                 4.3980                 3.2923

                     61                     62                     63
                      A                      A                      A
 Frequencies --   3483.0467              3576.0430              3726.5534
 Red. masses --      1.0486                 1.0940                 1.0653
 Frc consts  --      7.4952                 8.2431                 8.7163
 IR Inten    --      3.1641                 4.0893                25.0721

 - Thermochemistry -
 -------------------
 Temperature   298.150 Kelvin.  Pressure   1.00000 Atm.
 Atom     1 has atomic number  6 and mass  12.00000

 Molecular mass:   169.08513 amu.
 Principal axes and moments of inertia in atomic units:
                           1         2         3
     Eigenvalues --  1035.101213194.605053371.44745
           X            0.99983  -0.01230  -0.01396
           Y            0.01047   0.99213  -0.12481
           Z            0.01539   0.12464   0.99208
 This molecule is an asymmetric top.
 Rotational symmetry number  1.
 Warning -- assumption of classical behavior for rotation
           may cause significant error
 Rotational temperatures (Kelvin)      0.08368     0.02711     0.02569
 Rotational constants (GHZ):           1.74354     0.56493     0.53530
 Zero-point vibrational energy     491488.9 (Joules/Mol)
                                  117.46866 (Kcal/Mol)
 Warning -- explicit consideration of  18 degrees of freedom as
           vibrations may cause significant error
 Vibrational temperatures:     58.98    81.80   139.05   159.22   209.01
          (Kelvin)            303.70   337.69   345.89   369.30   458.47
                              500.62   521.22   606.94   624.25   686.32
                              768.31   836.08   849.24  1011.55  1070.76
                             1120.37  1137.86  1209.42  1309.28  1351.43
                             1394.87  1412.67  1418.85  1471.05  1490.75
                             1502.15  1580.23  1595.12  1610.88  1652.10
                             1723.28  1766.45  1842.12  1911.71  1937.37
                             1969.26  1981.80  2026.25  2071.50  2092.57
                             2121.31  2186.97  2198.07  2299.89  2303.08
                             2414.67  2466.06  4389.53  4440.68  4457.98
                             4489.82  4519.82  4581.33  4608.20  4711.79
                             5011.33  5145.13  5361.68

 Zero-point correction=                           0.187198 (Hartree/Particle)
 Thermal correction to Energy=                    0.199268
 Thermal correction to Enthalpy=                  0.200212
 Thermal correction to Gibbs Free Energy=         0.148510
 Sum of electronic and zero-point Energies=           -587.857767
 Sum of electronic and thermal Energies=              -587.845697
 Sum of electronic and thermal Enthalpies=            -587.844753
 Sum of electronic and thermal Free Energies=         -587.896456

                     E (Thermal)             CV                S
                      KCal/Mol        Cal/Mol-Kelvin    Cal/Mol-Kelvin
 Total                  125.043             44.503            108.817
 Electronic               0.000              0.000              0.000
 Translational            0.889              2.981             41.284
 Rotational               0.889              2.981             30.789
 Vibrational            123.265             38.542             36.744
 Vibration     1          0.594              1.981              5.211
 Vibration     2          0.596              1.975              4.564
 Vibration     3          0.603              1.952              3.521
 Vibration     4          0.606              1.941              3.257
 Vibration     5          0.617              1.908              2.733
 Vibration     6          0.643              1.824              2.034
 Vibration     7          0.655              1.788              1.843
 Vibration     8          0.657              1.779              1.800
 Vibration     9          0.666              1.752              1.684
 Vibration    10          0.705              1.638              1.317
 Vibration    11          0.726              1.579              1.175
 Vibration    12          0.736              1.550              1.112
 Vibration    13          0.784              1.423              0.886
 Vibration    14          0.795              1.396              0.846
 Vibration    15          0.834              1.301              0.718
 Vibration    16          0.889              1.175              0.578
 Vibration    17          0.938              1.072              0.483
 Vibration    18          0.948              1.053              0.467

                           ! Non-Optimized Parameters !
 Normal termination of Gaussian 16 at Wed Dec  9 17:00:15 2020.

 ----------------------------------------------------------------------
 # B3LYP/6-311++G(d,p) empiricaldispersion=gd3bj scf=xqc pop=npa geom=c
 heck
 ----------------------------------------------------------------------

 ---------------------------------------
 CID_130146120_JID_2284_Energie_neutraal
 ---------------------------------------
 Structure from the checkpoint file:  "JID_2284.chk"
 Charge =  0 Multiplicity = 1

 SCF Done:  E(RB3LYP) =  -588.225944073     A.U. after   15 cycles
 Normal termination of Gaussian 16 at Wed Dec  9 17:02:43 2020.

 ----------------------------------------------------------------------
 # B3LYP/6-311++G(d,p) empiricaldispersion=gd3bj scf=xqc pop=npa geom=c
 heck
 ----------------------------------------------------------------------

 -------------------------------------
 CID_130146120_JID_2284_Energie_kation
 -------------------------------------
 Structure from the checkpoint file:  "JID_2284.chk"
 Charge =  1 Multiplicity = 2

 SCF Done:  E(UB3LYP) =  -587.898940467     A.U. after   27 cycles
 Normal termination of Gaussian 16 at Wed Dec  9 17:08:50 2020.
 Gaussian 16:  ES64L-G16RevA.03 25-Dec-2016

 ----------------------------------------------------------------------
 # B3LYP/6-311++G(d,p) empiricaldispersion=gd3bj scf=xqc pop=npa geom=c
 heck
 ----------------------------------------------------------------------

 ------------------------------------
 CID_130146120_JID_2284_Energie_anion
 ------------------------------------
 Structure from the checkpoint file:  "JID_2284.chk"
 Charge = -1 Multiplicity = 2

                         Standard orientation:
 ---------------------------------------------------------------------
 Center     Atomic      Atomic             Coordinates (Angstroms)
 Number     Number       Type             X           Y           Z
 ---------------------------------------------------------------------
      1          6           0       -2.153493   -1.072616    1.591262
      2          6           0       -2.395529   -0.531898    0.185575
      3          6           0       -1.695005    0.823030   -0.073534
      4          6           0       -0.217606    0.742721    0.181107
      5          7           0        0.519653    1.488970    0.943380
      6          7           0        1.834435    1.035501    0.809402
      7          6           0        1.803482    0.040703   -0.026359
      8          8           0        0.527860   -0.207502   -0.475265
      9          6           0        2.877621   -0.798226   -0.523252
     10          6           0        4.150910   -0.654578   -0.139298
     11          7           0       -2.045627    1.264480   -1.422526
     12          8           0       -2.038594   -1.481715   -0.818897
     13          1           0       -1.089408   -1.279706    1.759889
     14          1           0       -2.708499   -2.004654    1.730160
     15          1           0       -2.476242   -0.354147    2.352601
     16          1           0       -3.463135   -0.353664    0.027674
     17          1           0       -2.073362    1.554163    0.649023
     18          1           0        2.583328   -1.561719   -1.237790
     19          1           0        4.929508   -1.299279   -0.532805
     20          1           0        4.439029    0.110536    0.574812
     21          1           0       -1.495970    2.076984   -1.692421
     22          1           0       -1.839941    0.508226   -2.072969
     23          1           0       -1.100957   -1.700491   -0.689687
 ---------------------------------------------------------------------

 SCF Done:  E(UB3LYP) =  -588.233777813     A.U. after   32 cycles

 The electronic state is 2-A.
 Alpha  occ. eigenvalues --  -19.03956 -19.01975 -14.18680 -14.18657 -14.15313
 Alpha  occ. eigenvalues --  -10.12362 -10.10359 -10.10108 -10.08305 -10.06608
 Alpha  occ. eigenvalues --  -10.00569  -9.98618  -0.99238  -0.92440  -0.81518
 Alpha  occ. eigenvalues --   -0.78447  -0.68863  -0.65985  -0.60480  -0.57121
 Alpha  occ. eigenvalues --   -0.51731  -0.50121  -0.44582  -0.41775  -0.39340
 Alpha  occ. eigenvalues --   -0.38216  -0.37344  -0.34793  -0.33800  -0.32887
 Alpha  occ. eigenvalues --   -0.31740  -0.29454  -0.28540  -0.27331  -0.27113
 Alpha  occ. eigenvalues --   -0.25563  -0.22517  -0.20939  -0.19255  -0.18608
 Alpha  occ. eigenvalues --   -0.16970  -0.16398  -0.14224  -0.12013  -0.08941
 Alpha  occ. eigenvalues --    0.05659
 Alpha virt. eigenvalues --    0.07708   0.09135   0.10020   0.10721   0.10940
 Alpha virt. eigenvalues --    0.12086   0.12656   0.13638   0.14310   0.14512
 Alpha virt. eigenvalues --    0.15021   0.15431   0.17038   0.17419   0.18533

  Beta  occ. eigenvalues --  -19.03650 -19.01971 -14.18779 -14.18621 -14.15063
  Beta  occ. eigenvalues --  -10.12352 -10.10196 -10.10119 -10.08032 -10.06602
  Beta  occ. eigenvalues --  -10.00482  -9.98068  -0.98794  -0.92428  -0.81226
  Beta  occ. eigenvalues --   -0.78355  -0.68473  -0.65888  -0.59832  -0.57006
  Beta  occ. eigenvalues --   -0.51651  -0.49487  -0.44194  -0.41254  -0.39165
  Beta  occ. eigenvalues --   -0.38159  -0.37176  -0.34564  -0.33311  -0.32462
  Beta  occ. eigenvalues --   -0.31466  -0.29283  -0.28302  -0.27274  -0.27030
  Beta  occ. eigenvalues --   -0.25219  -0.22463  -0.20585  -0.18545  -0.18069
  Beta  occ. eigenvalues --   -0.16837  -0.15186  -0.13694  -0.11727  -0.06793
  Beta virt. eigenvalues --    0.07665   0.09056   0.09937   0.10670   0.10849
  Beta virt. eigenvalues --    0.12024   0.12513   0.12614   0.13572   0.14366
  Beta virt. eigenvalues --    0.14628   0.15354   0.15468   0.16947   0.17432

 Mulliken charges and spin densities:
               1          2
     1  C   -0.531531  -0.004216
     2  C   -0.114271  -0.009921
     3  C   -0.422374  -0.076464
     4  C   -0.468137   0.151574
     5  N    0.088832  -0.056605
     6  N   -0.253620   0.128950
     7  C    0.011457   0.204573
     8  O   -0.032381   0.052071
     9  C    0.240197  -0.051217
    10  C   -0.875825   0.598483
    11  N   -0.186573  -0.006072
    12  O   -0.243239   0.001272
    13  H    0.191171  -0.007413
    14  H    0.105353   0.046584
    15  H    0.116146  -0.004213
    16  H    0.187446   0.005394
    17  H    0.231066  -0.005651
    18  H    0.107437  -0.010287
    19  H    0.086532  -0.024172
    20  H    0.116859  -0.030915
    21  H    0.167077   0.069512
    22  H    0.218145   0.028370
    23  H    0.260233   0.000362
 Sum of Mulliken charges =  -1.00000   1.00000

 Dipole moment (field-independent basis, Debye):
    X=             -7.2654    Y=             -1.7869    Z=             -0.4077  Tot=              7.4930
 Quadrupole moment (field-independent basis, Debye-Ang):
   XX=           -123.8145   YY=            -87.9803   ZZ=            -84.6803
   XY=             -1.5017   XZ=             -8.6163   YZ=             -3.5571

 Summary of Natural Population Analysis:

                                       Natural Population
                Natural  -----------------------------------------------
    Atom  No    Charge         Core      Valence    Rydberg      Total
 -----------------------------------------------------------------------
      C    1   -0.30006      0.99965     2.29590    0.00451     3.30006
      C    2    0.06493      0.99957     1.92027    0.01524     2.93507
      C    3   -0.05319      0.99953     2.03925    0.01441     3.05319
      C    4    0.24779      0.99957     1.72703    0.02561     2.75221
      N    5   -0.18705      0.99966     2.67556    0.01182     3.68705
      N    6   -0.15155      0.99966     2.63913    0.01277     3.65155
      C    7    0.28651      0.99958     1.69573    0.01818     2.71349
      O    8   -0.24399      0.99985     3.23468    0.00946     4.24399
      C    9   -0.14660      0.99954     2.13709    0.00998     3.14660
      C   10   -0.05345      0.99961     2.04482    0.00903     3.05345
      N   11   -0.42288      0.99977     2.91265    0.01046     3.92288
      O   12   -0.37968      0.99990     3.37358    0.00620     4.37968
      H   13    0.10610      0.00000     0.39302    0.00088     0.39390
      H   14    0.09808      0.00000     0.40059    0.00133     0.40192
      H   15    0.10106      0.00000     0.39818    0.00075     0.39894
      H   16    0.08586      0.00000     0.41243    0.00171     0.41414
      H   17    0.10382      0.00000     0.39477    0.00142     0.39618
      H   18    0.08822      0.00000     0.41012    0.00166     0.41178
      H   19    0.07447      0.00000     0.42448    0.00105     0.42553
      H   20    0.08682      0.00000     0.41194    0.00124     0.41318
      H   21    0.17678      0.00000     0.32129    0.00193     0.32322
      H   22    0.18118      0.00000     0.31673    0.00209     0.31882
      H   23    0.23684      0.00000     0.26088    0.00228     0.26316
 =======================================================================
   * Total *    0.00000     11.99588    32.84011    0.16401    45.00000

 Normal termination of Gaussian 16 at Wed Dec  9 17:15:49 2020.
