 Gaussian 16, Revision A.03,

 -----------------------------------------------------------
 # opt freq B3LYP/6-31G(d) empiricaldispersion=gd3bj scf=xqc
 -----------------------------------------------------------

 -------------------------------
 CID_115066791_JID_8505_neutraal
 -------------------------------
 Symbolic Z-matrix:
 Charge =  0 Multiplicity = 1

 SCF Done:  E(RB3LYP) =  -1127.30042071     A.U. after   15 cycles
 SCF Done:  E(RB3LYP) =  -1127.30634980     A.U. after   12 cycles
 SCF Done:  E(RB3LYP) =  -1127.30711635     A.U. after   12 cycles
 SCF Done:  E(RB3LYP) =  -1127.30734702     A.U. after   12 cycles
 SCF Done:  E(RB3LYP) =  -1127.30744158     A.U. after   12 cycles
 SCF Done:  E(RB3LYP) =  -1127.30750990     A.U. after   11 cycles
 SCF Done:  E(RB3LYP) =  -1127.30754185     A.U. after   11 cycles
 SCF Done:  E(RB3LYP) =  -1127.30754560     A.U. after    9 cycles
 SCF Done:  E(RB3LYP) =  -1127.30754619     A.U. after    8 cycles
 SCF Done:  E(RB3LYP) =  -1127.30754624     A.U. after    8 cycles
 SCF Done:  E(RB3LYP) =  -1127.30754631     A.U. after    7 cycles
 Optimization completed.
    -- Stationary point found.
 Normal termination of Gaussian 16 at Fri Dec 11 20:00:55 2020.

 --------------------------------------------------------------------
 #N Geom=AllCheck Guess=TCheck SCRF=Check GenChk RB3LYP/6-31G(d) Freq
 --------------------------------------------------------------------

 Structure from the checkpoint file:  "JID_8505.chk"
 -------------------------------
 CID_115066791_JID_8505_neutraal
 -------------------------------
 Charge =  0 Multiplicity = 1

 SCF Done:  E(RB3LYP) =  -1127.30754631     A.U. after    1 cycles

  Exact polarizability: 205.833 -11.422 169.353 -20.242   6.894 136.800
 Approx polarizability: 260.291 -15.480 291.022 -44.360  20.066 235.851

                      1                      2                      3
                      A                      A                      A
 Frequencies --     20.3380                26.4459                30.3777
 Red. masses --      4.7432                 5.4916                 4.7215
 Frc consts  --      0.0012                 0.0023                 0.0026
 IR Inten    --      0.1361                 0.0624                 0.4432

                      4                      5                      6
                      A                      A                      A
 Frequencies --     74.3363               117.2309               151.4554
 Red. masses --      4.1980                 3.3856                 4.7822
 Frc consts  --      0.0137                 0.0274                 0.0646
 IR Inten    --      0.1737                 0.1652                 1.9921

                      7                      8                      9
                      A                      A                      A
 Frequencies --    174.1016               186.6693               234.9267
 Red. masses --      5.1985                 2.0988                 4.4597
 Frc consts  --      0.0928                 0.0431                 0.1450
 IR Inten    --      1.3875                 0.6886                 0.9072

                     10                     11                     12
                      A                      A                      A
 Frequencies --    242.0291               256.7572               299.9794
 Red. masses --      4.0398                 3.4967                 1.2540
 Frc consts  --      0.1394                 0.1358                 0.0665
 IR Inten    --      0.1282                 4.2397                32.6838

                     13                     14                     15
                      A                      A                      A
 Frequencies --    329.2712               345.2471               365.9053
 Red. masses --      2.2604                 3.9383                 3.5477
 Frc consts  --      0.1444                 0.2766                 0.2799
 IR Inten    --     16.4836                 3.7574                 8.5239

                     16                     17                     18
                      A                      A                      A
 Frequencies --    374.0501               393.2139               443.8729
 Red. masses --      1.1089                 4.1053                 3.4146
 Frc consts  --      0.0914                 0.3740                 0.3964
 IR Inten    --    112.6367                 3.8447                 7.2589

                     19                     20                     21
                      A                      A                      A
 Frequencies --    449.4408               454.3976               458.9925
 Red. masses --      2.9316                 2.5856                 3.2355
 Frc consts  --      0.3489                 0.3145                 0.4016
 IR Inten    --      4.4349                 0.5902                 2.9080

                     22                     23                     24
                      A                      A                      A
 Frequencies --    504.3026               533.4209               543.6023
 Red. masses --      4.1697                 4.8043                 6.3173
 Frc consts  --      0.6248                 0.8054                 1.0999
 IR Inten    --      4.3490                 4.5993                 4.2139

                     25                     26                     27
                      A                      A                      A
 Frequencies --    560.4864               575.1333               608.9299
 Red. masses --      4.3720                 4.4663                 6.7161
 Frc consts  --      0.8092                 0.8704                 1.4673
 IR Inten    --      3.8429                 1.3623                20.1898

                     28                     29                     30
                      A                      A                      A
 Frequencies --    654.8774               691.6774               725.2901
 Red. masses --      4.1375                 3.2108                 2.9110
 Frc consts  --      1.0455                 0.9051                 0.9022
 IR Inten    --      2.8496                 0.5330                28.7634

                     31                     32                     33
                      A                      A                      A
 Frequencies --    765.2475               770.2552               801.4709
 Red. masses --      3.3777                 3.5342                 1.6870
 Frc consts  --      1.1654                 1.2354                 0.6385
 IR Inten    --     45.2227                 8.0358                10.0704

                     34                     35                     36
                      A                      A                      A
 Frequencies --    816.5492               847.1656               869.7842
 Red. masses --      2.0321                 2.3540                 1.5219
 Frc consts  --      0.7983                 0.9954                 0.6784
 IR Inten    --      3.8188                12.0498                18.6917

                     37                     38                     39
                      A                      A                      A
 Frequencies --    888.1082               902.7004               920.1525
 Red. masses --      1.4055                 1.5926                 1.4344
 Frc consts  --      0.6531                 0.7646                 0.7156
 IR Inten    --      1.4803               125.9633                49.3830

                     40                     41                     42
                      A                      A                      A
 Frequencies --    945.8243               947.6078               967.9852
 Red. masses --      2.3080                 2.3597                 1.2618
 Frc consts  --      1.2165                 1.2484                 0.6966
 IR Inten    --      6.9312                 2.1354                 0.2066

                     43                     44                     45
                      A                      A                      A
 Frequencies --    980.7041               992.5121              1019.3908
 Red. masses --      3.0677                 2.4031                 6.1729
 Frc consts  --      1.7383                 1.3948                 3.7794
 IR Inten    --      7.9668                 9.7003                 4.6828

                     46                     47                     48
                      A                      A                      A
 Frequencies --   1053.5117              1083.7483              1091.3776
 Red. masses --      2.5433                 2.4292                 2.5790
 Frc consts  --      1.6631                 1.6810                 1.8099
 IR Inten    --     15.7608                12.1960                52.8252

                     49                     50                     51
                      A                      A                      A
 Frequencies --   1100.2617              1110.4402              1113.6121
 Red. masses --      2.5578                 2.1289                 1.6468
 Frc consts  --      1.8244                 1.5467                 1.2032
 IR Inten    --      0.3403                 4.7247                12.7439

                     52                     53                     54
                      A                      A                      A
 Frequencies --   1139.3520              1147.3025              1167.1973
 Red. masses --      2.4820                 1.4469                 2.3808
 Frc consts  --      1.8983                 1.1221                 1.9110
 IR Inten    --     14.0206                 4.3794                12.1980

                     55                     56                     57
                      A                      A                      A
 Frequencies --   1194.0253              1196.7036              1205.3007
 Red. masses --      1.7242                 1.2180                 1.4834
 Frc consts  --      1.4483                 1.0277                 1.2697
 IR Inten    --     12.3912                46.1467                 2.5797

                     58                     59                     60
                      A                      A                      A
 Frequencies --   1217.7388              1239.2392              1257.3708
 Red. masses --      1.3043                 1.2638                 1.3203
 Frc consts  --      1.1396                 1.1435                 1.2298
 IR Inten    --    106.6430                36.4203                16.0671

                     61                     62                     63
                      A                      A                      A
 Frequencies --   1278.5706              1298.2749              1314.9043
 Red. masses --      1.2214                 1.3959                 1.8651
 Frc consts  --      1.1764                 1.3862                 1.9000
 IR Inten    --      4.9914                 4.6588                45.0558

                     64                     65                     66
                      A                      A                      A
 Frequencies --   1326.3496              1344.7941              1349.0864
 Red. masses --      1.3058                 2.3957                 1.2877
 Frc consts  --      1.3535                 2.5526                 1.3808
 IR Inten    --      2.3647                 7.0026                20.4597

                     67                     68                     69
                      A                      A                      A
 Frequencies --   1360.3280              1366.4923              1368.5044
 Red. masses --      1.2613                 1.6589                 1.4067
 Frc consts  --      1.3752                 1.8251                 1.5522
 IR Inten    --      8.6903                 1.6458                 1.3407

                     70                     71                     72
                      A                      A                      A
 Frequencies --   1388.2611              1393.4794              1396.5659
 Red. masses --      2.5840                 1.4713                 1.3203
 Frc consts  --      2.9342                 1.6833                 1.5172
 IR Inten    --     18.0080                11.0872                 8.2913

                     73                     74                     75
                      A                      A                      A
 Frequencies --   1399.8355              1440.7172              1499.8656
 Red. masses --      1.4175                 1.3463                 1.2378
 Frc consts  --      1.6366                 1.6464                 1.6406
 IR Inten    --      8.4275                 5.8999                 8.4417

                     76                     77                     78
                      A                      A                      A
 Frequencies --   1509.2390              1516.0708              1519.2963
 Red. masses --      2.1912                 1.0803                 1.0834
 Frc consts  --      2.9407                 1.4630                 1.4734
 IR Inten    --     80.1172                 0.4331                 3.3277

                     79                     80                     81
                      A                      A                      A
 Frequencies --   1535.3909              1557.5838              1664.7722
 Red. masses --      1.0950                 2.5095                 5.9713
 Frc consts  --      1.5208                 3.5871                 9.7506
 IR Inten    --      3.1934                10.9070                48.1163

                     82                     83                     84
                      A                      A                      A
 Frequencies --   1667.4231              1695.4522              1696.4192
 Red. masses --      5.9807                 4.4047                 1.2689
 Frc consts  --      9.7970                 7.4600                 2.1515
 IR Inten    --     76.1650                83.5590                20.7545

                     85                     86                     87
                      A                      A                      A
 Frequencies --   2991.9251              3025.7812              3040.7848
 Red. masses --      1.0821                 1.0711                 1.0801
 Frc consts  --      5.7072                 5.7777                 5.8844
 IR Inten    --     17.6605                 9.0767                30.8736

                     88                     89                     90
                      A                      A                      A
 Frequencies --   3048.2657              3061.9280              3064.5388
 Red. masses --      1.0832                 1.0630                 1.0639
 Frc consts  --      5.9303                 5.8719                 5.8867
 IR Inten    --     18.2123                38.8475                17.5482

                     91                     92                     93
                      A                      A                      A
 Frequencies --   3067.0110              3077.9855              3106.6481
 Red. masses --      1.0586                 1.0971                 1.1054
 Frc consts  --      5.8668                 6.1240                 6.2857
 IR Inten    --     13.1126                34.0136                39.6641

                     94                     95                     96
                      A                      A                      A
 Frequencies --   3113.6900              3113.8537              3169.6921
 Red. masses --      1.1029                 1.1045                 1.0903
 Frc consts  --      6.2999                 6.3095                 6.4538
 IR Inten    --     26.7064                10.7841                 7.6292

                     97                     98                     99
                      A                      A                      A
 Frequencies --   3187.7739              3203.2195              3220.9122
 Red. masses --      1.0866                 1.0927                 1.0945
 Frc consts  --      6.5055                 6.6060                 6.6897
 IR Inten    --      6.4695                19.0240                11.0001

                    100                    101                    102
                      A                      A                      A
 Frequencies --   3446.5232              3534.2986              3749.7896
 Red. masses --      1.0496                 1.0917                 1.0658
 Frc consts  --      7.3460                 8.0347                 8.8299
 IR Inten    --      2.4662                 1.2349                30.8006

 - Thermochemistry -
 -------------------
 Temperature   298.150 Kelvin.  Pressure   1.00000 Atm.
 Atom     1 has atomic number  6 and mass  12.00000

 Molecular mass:   262.11399 amu.
 Principal axes and moments of inertia in atomic units:
                           1         2         3
     Eigenvalues --  2349.382299623.34237**********
           X            0.99991  -0.01347   0.00103
           Y            0.01347   0.99991   0.00072
           Z           -0.00104  -0.00070   1.00000
 This molecule is an asymmetric top.
 Rotational symmetry number  1.
 Warning -- assumption of classical behavior for rotation
           may cause significant error
 Rotational temperatures (Kelvin)      0.03687     0.00900     0.00830
 Rotational constants (GHZ):           0.76818     0.18754     0.17288
 Zero-point vibrational energy     799653.9 (Joules/Mol)
                                  191.12188 (Kcal/Mol)
 Warning -- explicit consideration of  27 degrees of freedom as
           vibrations may cause significant error
 Vibrational temperatures:     29.26    38.05    43.71   106.95   168.67
          (Kelvin)            217.91   250.49   268.58   338.01   348.23
                              369.42   431.60   473.75   496.73   526.46
                              538.17   565.75   638.63   646.65   653.78
                              660.39   725.58   767.47   782.12   806.41
                              827.49   876.11   942.22   995.17  1043.53
                             1101.02  1108.23  1153.14  1174.83  1218.88
                             1251.43  1277.79  1298.78  1323.89  1360.83
                             1363.40  1392.71  1411.01  1428.00  1466.68
                             1515.77  1559.27  1570.25  1583.03  1597.68
                             1602.24  1639.27  1650.71  1679.34  1717.94
                             1721.79  1734.16  1752.05  1782.99  1809.08
                             1839.58  1867.93  1891.85  1908.32  1934.86
                             1941.03  1957.21  1966.08  1968.97  1997.40
                             2004.91  2009.35  2014.05  2072.87  2157.97
                             2171.46  2181.29  2185.93  2209.09  2241.02
                             2395.24  2399.05  2439.38  2440.77  4304.71
                             4353.42  4375.01  4385.77  4405.43  4409.19
                             4412.74  4428.53  4469.77  4479.91  4480.14
                             4560.48  4586.50  4608.72  4634.17  4958.78
                             5085.07  5395.11

 Zero-point correction=                           0.304572 (Hartree/Particle)
 Thermal correction to Energy=                    0.320885
 Thermal correction to Enthalpy=                  0.321829
 Thermal correction to Gibbs Free Energy=         0.258890
 Sum of electronic and zero-point Energies=          -1127.002974
 Sum of electronic and thermal Energies=             -1126.986661
 Sum of electronic and thermal Enthalpies=           -1126.985717
 Sum of electronic and thermal Free Energies=        -1127.048656

                     E (Thermal)             CV                S
                      KCal/Mol        Cal/Mol-Kelvin    Cal/Mol-Kelvin
 Total                  201.358             64.567            132.467
 Electronic               0.000              0.000              0.000
 Translational            0.889              2.981             42.590
 Rotational               0.889              2.981             33.823
 Vibrational            199.581             58.606             56.054
 Vibration     1          0.593              1.986              6.601
 Vibration     2          0.593              1.985              6.080
 Vibration     3          0.594              1.984              5.805
 Vibration     4          0.599              1.966              4.035
 Vibration     5          0.608              1.935              3.146
 Vibration     6          0.619              1.901              2.654
 Vibration     7          0.627              1.874              2.391
 Vibration     8          0.632              1.858              2.261
 Vibration     9          0.655              1.787              1.841
 Vibration    10          0.658              1.776              1.788
 Vibration    11          0.666              1.751              1.684
 Vibration    12          0.693              1.674              1.417
 Vibration    13          0.712              1.617              1.264
 Vibration    14          0.724              1.585              1.188
 Vibration    15          0.739              1.542              1.097
 Vibration    16          0.745              1.525              1.063
 Vibration    17          0.760              1.485              0.988
 Vibration    18          0.803              1.374              0.815
 Vibration    19          0.808              1.362              0.797
 Vibration    20          0.813              1.351              0.783
 Vibration    21          0.817              1.341              0.769
 Vibration    22          0.860              1.240              0.647
 Vibration    23          0.888              1.176              0.580
 Vibration    24          0.899              1.154              0.558
 Vibration    25          0.916              1.117              0.523
 Vibration    26          0.931              1.085              0.494
 Vibration    27          0.968              1.013              0.435

                           ! Non-Optimized Parameters !
 Normal termination of Gaussian 16 at Fri Dec 11 20:18:13 2020.

 ----------------------------------------------------------------------
 # B3LYP/6-311++G(d,p) empiricaldispersion=gd3bj scf=xqc pop=npa geom=c
 heck
 ----------------------------------------------------------------------

 ---------------------------------------
 CID_115066791_JID_8505_Energie_neutraal
 ---------------------------------------
 Structure from the checkpoint file:  "JID_8505.chk"
 Charge =  0 Multiplicity = 1

 SCF Done:  E(RB3LYP) =  -1127.54292225     A.U. after   16 cycles
 Normal termination of Gaussian 16 at Fri Dec 11 20:27:17 2020.

 ----------------------------------------------------------------------
 # B3LYP/6-311++G(d,p) empiricaldispersion=gd3bj scf=xqc pop=npa geom=c
 heck
 ----------------------------------------------------------------------

 -------------------------------------
 CID_115066791_JID_8505_Energie_kation
 -------------------------------------
 Structure from the checkpoint file:  "JID_8505.chk"
 Charge =  1 Multiplicity = 2

 SCF Done:  E(UB3LYP) =  -1127.25516502     A.U. after   29 cycles
 Normal termination of Gaussian 16 at Fri Dec 11 20:50:22 2020.
 Gaussian 16:  ES64L-G16RevA.03 25-Dec-2016

 ----------------------------------------------------------------------
 # B3LYP/6-311++G(d,p) empiricaldispersion=gd3bj scf=xqc pop=npa geom=c
 heck
 ----------------------------------------------------------------------

 ------------------------------------
 CID_115066791_JID_8505_Energie_anion
 ------------------------------------
 Structure from the checkpoint file:  "JID_8505.chk"
 Charge = -1 Multiplicity = 2

                         Standard orientation:
 ---------------------------------------------------------------------
 Center     Atomic      Atomic             Coordinates (Angstroms)
 Number     Number       Type             X           Y           Z
 ---------------------------------------------------------------------
      1          6           0       -3.561263    1.577762    0.128461
      2          6           0       -2.442889    1.370678    1.184612
      3          6           0       -1.824346   -0.026142    1.040652
      4          6           0       -1.779078   -0.402623   -0.447295
      5          6           0       -3.183524   -0.698472   -0.975645
      6          6           0       -4.220130    0.251648   -0.314420
      7          7           0       -5.362153    0.398731   -1.219966
      8         16           0       -0.528237   -1.751384   -0.509880
      9          6           0        0.200245   -1.028548    0.977948
     10          7           0       -0.489604   -0.172399    1.621914
     11          6           0        1.604625   -1.417058    1.350677
     12          6           0        2.624181   -0.678007    0.501743
     13          6           0        2.625210    0.721050    0.501074
     14          6           0        3.552878    1.422540   -0.269051
     15          6           0        4.487245    0.732821   -1.050168
     16          6           0        4.478248   -0.657723   -1.048647
     17          6           0        3.552208   -1.367560   -0.279195
     18          8           0        3.593330    2.789669   -0.300665
     19          1           0       -3.151402    2.071515   -0.763885
     20          1           0       -4.332733    2.250162    0.521950
     21          1           0       -2.835860    1.493785    2.199379
     22          1           0       -1.655251    2.121483    1.056160
     23          1           0       -2.465358   -0.758453    1.557586
     24          1           0       -1.340826    0.436194   -1.002076
     25          1           0       -3.466539   -1.736504   -0.775819
     26          1           0       -3.214041   -0.565698   -2.063281
     27          1           0       -4.607348   -0.242049    0.586613
     28          1           0       -6.088224    0.955348   -0.769866
     29          1           0       -5.071842    0.929024   -2.042510
     30          1           0        1.739080   -1.174759    2.410200
     31          1           0        1.735193   -2.497831    1.231421
     32          1           0        1.886396    1.254940    1.096264
     33          1           0        5.199069    1.298194   -1.642354
     34          1           0        5.199720   -1.196766   -1.656223
     35          1           0        3.550761   -2.453635   -0.287985
     36          1           0        2.904991    3.133329    0.289715
 ---------------------------------------------------------------------

 SCF Done:  E(UB3LYP) =  -1127.53366274     A.U. after   33 cycles
 SCF Done:  E(UB3LYP) =  -1127.53366274     a.u. after    2 cycles

 The electronic state is 2-A.
 Alpha  occ. eigenvalues --  -88.76049 -19.06323 -14.21743 -14.19798 -10.15411
 Alpha  occ. eigenvalues --  -10.15281 -10.11442 -10.11398 -10.10824 -10.10803
 Alpha  occ. eigenvalues --  -10.10794 -10.09897 -10.08927 -10.08912 -10.08638
 Alpha  occ. eigenvalues --  -10.08221 -10.07268 -10.06825  -7.84699  -5.81024
 Alpha  occ. eigenvalues --   -5.80720  -5.80148  -0.97407  -0.86184  -0.79832
 Alpha  occ. eigenvalues --   -0.77842  -0.73201  -0.70665  -0.68255  -0.65993
 Alpha  occ. eigenvalues --   -0.64205  -0.62974  -0.60103  -0.54386  -0.52278
 Alpha  occ. eigenvalues --   -0.52015  -0.50799  -0.46135  -0.46019  -0.44139
 Alpha  occ. eigenvalues --   -0.42269  -0.41906  -0.39289  -0.38467  -0.37075
 Alpha  occ. eigenvalues --   -0.35930  -0.35651  -0.34905  -0.34287  -0.33278
 Alpha  occ. eigenvalues --   -0.32575  -0.32154  -0.31226  -0.30149  -0.30061
 Alpha  occ. eigenvalues --   -0.28065  -0.27622  -0.27195  -0.27101  -0.26085
 Alpha  occ. eigenvalues --   -0.25697  -0.24848  -0.23509  -0.21936  -0.21207
 Alpha  occ. eigenvalues --   -0.18035  -0.16929  -0.14970  -0.14671  -0.14149
 Alpha  occ. eigenvalues --    0.04070
 Alpha virt. eigenvalues --    0.05547   0.05899   0.06245   0.06898   0.07321
 Alpha virt. eigenvalues --    0.07620   0.07850   0.08681   0.08913   0.09193
 Alpha virt. eigenvalues --    0.09548   0.10233   0.10798   0.10996   0.11376

  Beta  occ. eigenvalues --  -88.76042 -19.06269 -14.21736 -14.19757 -10.15402
  Beta  occ. eigenvalues --  -10.15278 -10.11439 -10.11379 -10.10820 -10.10795
  Beta  occ. eigenvalues --  -10.10793 -10.09896 -10.08919 -10.08910 -10.08622
  Beta  occ. eigenvalues --  -10.08209 -10.07249 -10.06788  -7.84693  -5.81003
  Beta  occ. eigenvalues --   -5.80716  -5.80144  -0.97304  -0.86164  -0.79773
  Beta  occ. eigenvalues --   -0.77826  -0.73165  -0.70643  -0.68214  -0.65966
  Beta  occ. eigenvalues --   -0.64173  -0.62927  -0.60064  -0.54335  -0.52232
  Beta  occ. eigenvalues --   -0.51949  -0.50767  -0.46078  -0.45955  -0.44096
  Beta  occ. eigenvalues --   -0.42233  -0.41875  -0.39260  -0.38431  -0.37046
  Beta  occ. eigenvalues --   -0.35865  -0.35626  -0.34887  -0.34247  -0.33246
  Beta  occ. eigenvalues --   -0.32538  -0.32119  -0.31185  -0.30117  -0.30026
  Beta  occ. eigenvalues --   -0.28033  -0.27571  -0.27164  -0.27062  -0.26055
  Beta  occ. eigenvalues --   -0.25648  -0.24818  -0.23474  -0.21902  -0.21168
  Beta  occ. eigenvalues --   -0.18015  -0.16911  -0.14928  -0.14643  -0.14124
  Beta virt. eigenvalues --    0.05558   0.06095   0.06606   0.06872   0.07374
  Beta virt. eigenvalues --    0.07548   0.07872   0.08356   0.08848   0.08975
  Beta virt. eigenvalues --    0.09395   0.09894   0.10557   0.10964   0.11213

 Mulliken charges and spin densities:
               1          2
     1  C    0.010177  -0.336448
     2  C    1.171792  -1.623881
     3  C   -2.167901   1.187378
     4  C    0.469965   0.116253
     5  C    0.415550  -1.406646
     6  C    0.094828  -0.280170
     7  N   -0.375820   0.088957
     8  S   -0.061094  -0.264537
     9  C    0.112856   0.044995
    10  N    0.210625  -0.022824
    11  C    0.540865  -0.680319
    12  C    1.282031  -0.107607
    13  C   -1.477356   1.132597
    14  C    0.012473  -0.548854
    15  C    0.768799  -0.858411
    16  C   -0.465813   0.141749
    17  C   -0.646409   0.244596
    18  O   -0.211659  -0.009397
    19  H   -0.110634   0.262037
    20  H   -0.560908   0.761606
    21  H   -0.081254   0.248409
    22  H   -0.079428   0.249165
    23  H    0.169816   0.075137
    24  H    0.064974   0.250912
    25  H    0.051027   0.095623
    26  H   -0.066191   0.235402
    27  H    0.027067   0.164140
    28  H   -0.197204   0.438522
    29  H    0.026387   0.196619
    30  H    0.143796   0.061452
    31  H    0.154812   0.002463
    32  H   -0.109952   0.290927
    33  H    0.102877   0.059242
    34  H    0.099846   0.056774
    35  H    0.073924   0.047215
    36  H   -0.392865   0.686923
 Sum of Mulliken charges =  -1.00000   1.00000

 Dipole moment (field-independent basis, Debye):
    X=              6.5506    Y=             -8.1460    Z=              0.5063  Tot=             10.4654
 Quadrupole moment (field-independent basis, Debye-Ang):
   XX=           -217.7500   YY=           -166.1054   ZZ=           -145.7541
   XY=             -0.7047   XZ=             -7.5285   YZ=             -4.6463

 Summary of Natural Population Analysis:

                                       Natural Population
                Natural  -----------------------------------------------
    Atom  No    Charge         Core      Valence    Rydberg      Total
 -----------------------------------------------------------------------
      C    1   -0.20048      0.99961     2.19085    0.01002     3.20048
      C    2   -0.18964      0.99960     2.17915    0.01088     3.18964
      C    3   -0.02261      0.99952     2.00971    0.01337     3.02261
      C    4   -0.16192      0.99951     2.14955    0.01286     3.16192
      C    5   -0.19337      0.99958     2.18213    0.01166     3.19337
      C    6   -0.01049      0.99959     1.99883    0.01207     3.01049
      N    7   -0.41898      0.99977     2.90879    0.01043     3.91898
      S    8    0.10068      4.99952     2.88461    0.01519     7.89932
      C    9    0.08461      0.99957     1.89732    0.01851     2.91539
      N   10   -0.24354      0.99962     2.73002    0.01390     3.74354
      C   11   -0.22205      0.99954     2.21238    0.01013     3.22205
      C   12   -0.00169      0.99950     1.99128    0.01090     3.00169
      C   13   -0.13740      0.99946     2.12812    0.00982     3.13740
      C   14    0.16583      0.99939     1.82084    0.01394     2.83417
      C   15   -0.12889      0.99952     2.12025    0.00913     3.12889
      C   16   -0.09268      0.99958     2.08376    0.00934     3.09268
      C   17   -0.11991      0.99951     2.11190    0.00850     3.11991
      O   18   -0.33819      0.99988     3.33124    0.00708     4.33819
      H   19    0.09679      0.00000     0.40107    0.00215     0.40321
      H   20    0.10579      0.00000     0.39154    0.00267     0.39421
      H   21    0.10055      0.00000     0.39824    0.00122     0.39945
      H   22    0.10693      0.00000     0.39107    0.00200     0.39307
      H   23    0.09374      0.00000     0.40459    0.00167     0.40626
      H   24    0.10333      0.00000     0.39470    0.00197     0.39667
      H   25    0.10450      0.00000     0.39442    0.00108     0.39550
      H   26    0.10276      0.00000     0.39618    0.00107     0.39724
      H   27    0.08721      0.00000     0.41099    0.00180     0.41279
      H   28    0.17758      0.00000     0.31997    0.00245     0.32242
      H   29    0.17179      0.00000     0.32600    0.00222     0.32821
      H   30    0.11670      0.00000     0.38175    0.00155     0.38330
      H   31    0.10711      0.00000     0.39187    0.00102     0.39289
      H   32    0.11142      0.00000     0.38636    0.00222     0.38858
      H   33    0.10558      0.00000     0.39360    0.00082     0.39442
      H   34    0.09845      0.00000     0.40082    0.00074     0.40155
      H   35    0.09859      0.00000     0.40050    0.00090     0.40141
      H   36    0.24191      0.00000     0.24655    0.01154     0.25809
 =======================================================================
   * Total *    0.00000     21.99226    47.76093    0.24681    70.00000

 Normal termination of Gaussian 16 at Fri Dec 11 21:38:43 2020.
