 Gaussian 16, Revision A.03,

 -----------------------------------------------------------
 # opt freq B3LYP/6-31G(d) empiricaldispersion=gd3bj scf=xqc
 -----------------------------------------------------------

 -------------------------------
 CID_139685914_JID_4762_neutraal
 -------------------------------
 Symbolic Z-matrix:
 Charge =  0 Multiplicity = 1

 SCF Done:  E(RB3LYP) =  -581.513619259     A.U. after   15 cycles
 SCF Done:  E(RB3LYP) =  -581.515230054     A.U. after   12 cycles
 SCF Done:  E(RB3LYP) =  -581.515375528     A.U. after   11 cycles
 SCF Done:  E(RB3LYP) =  -581.515340411     A.U. after   12 cycles
 SCF Done:  E(RB3LYP) =  -581.515326369     A.U. after   11 cycles
 SCF Done:  E(RB3LYP) =  -581.515409661     A.U. after   11 cycles
 SCF Done:  E(RB3LYP) =  -581.515418318     A.U. after    9 cycles
 SCF Done:  E(RB3LYP) =  -581.515418458     A.U. after    8 cycles
 SCF Done:  E(RB3LYP) =  -581.515418416     A.U. after    8 cycles
 SCF Done:  E(RB3LYP) =  -581.515418350     A.U. after    7 cycles
 SCF Done:  E(RB3LYP) =  -581.515418584     A.U. after    8 cycles
 SCF Done:  E(RB3LYP) =  -581.515418590     A.U. after    6 cycles
 Optimization completed.
    -- Stationary point found.
 Normal termination of Gaussian 16 at Thu Dec 10 10:33:26 2020.

 --------------------------------------------------------------------
 #N Geom=AllCheck Guess=TCheck SCRF=Check GenChk RB3LYP/6-31G(d) Freq
 --------------------------------------------------------------------

 Structure from the checkpoint file:  "JID_4762.chk"
 -------------------------------
 CID_139685914_JID_4762_neutraal
 -------------------------------
 Charge =  0 Multiplicity = 1

 SCF Done:  E(RB3LYP) =  -581.515418590     A.U. after    1 cycles

  Exact polarizability: 186.590  11.523 117.118   7.650 -19.760 110.064
 Approx polarizability: 259.613  26.329 184.963  15.799 -47.327 175.754

                      1                      2                      3
                      A                      A                      A
 Frequencies --     30.0043                47.0426                73.0205
 Red. masses --      4.2329                 2.8107                 2.9797
 Frc consts  --      0.0022                 0.0037                 0.0094
 IR Inten    --      0.4419                 0.0988                 0.5352

                      4                      5                      6
                      A                      A                      A
 Frequencies --     92.1530               123.4451               154.9960
 Red. masses --      2.1384                 5.1766                 4.4978
 Frc consts  --      0.0107                 0.0465                 0.0637
 IR Inten    --      0.1937                 4.4560                 2.3466

                      7                      8                      9
                      A                      A                      A
 Frequencies --    203.3411               213.5077               224.2154
 Red. masses --      1.8570                 1.0912                 1.5560
 Frc consts  --      0.0452                 0.0293                 0.0461
 IR Inten    --      0.0631                 0.1454                 0.8845

                     10                     11                     12
                      A                      A                      A
 Frequencies --    239.9915               251.6079               263.7908
 Red. masses --      2.3283                 3.2367                 1.8285
 Frc consts  --      0.0790                 0.1207                 0.0750
 IR Inten    --      3.7883                 1.7373                 3.4708

                     13                     14                     15
                      A                      A                      A
 Frequencies --    278.7770               326.0001               346.3660
 Red. masses --      2.4462                 2.3535                 1.9651
 Frc consts  --      0.1120                 0.1474                 0.1389
 IR Inten    --      3.0815                 1.0863                 0.2746

                     16                     17                     18
                      A                      A                      A
 Frequencies --    400.8186               428.5330               450.3284
 Red. masses --      2.5549                 2.9354                 3.0485
 Frc consts  --      0.2418                 0.3176                 0.3642
 IR Inten    --      0.4150                 0.1351                 1.3755

                     19                     20                     21
                      A                      A                      A
 Frequencies --    454.5033               517.1026               598.9057
 Red. masses --      4.0855                 2.9739                 4.1391
 Frc consts  --      0.4972                 0.4685                 0.8747
 IR Inten    --      0.5862                 1.7170                 0.8617

                     22                     23                     24
                      A                      A                      A
 Frequencies --    619.1047               678.6160               714.5298
 Red. masses --      3.8840                 5.6575                 2.1245
 Frc consts  --      0.8771                 1.5351                 0.6391
 IR Inten    --      0.6793                19.1731                13.4993

                     25                     26                     27
                      A                      A                      A
 Frequencies --    773.8277               789.8928               817.8225
 Red. masses --      2.1506                 2.1364                 1.4407
 Frc consts  --      0.7587                 0.7853                 0.5677
 IR Inten    --     18.2360                 8.7048                20.0648

                     28                     29                     30
                      A                      A                      A
 Frequencies --    834.2918               885.5155               913.8195
 Red. masses --      1.6451                 2.5396                 1.4142
 Frc consts  --      0.6747                 1.1733                 0.6958
 IR Inten    --      7.0841                 6.6615                 5.8972

                     31                     32                     33
                      A                      A                      A
 Frequencies --    930.3005               945.8261               974.6665
 Red. masses --      2.2783                 1.3765                 1.2727
 Frc consts  --      1.1617                 0.7255                 0.7123
 IR Inten    --      4.7342                 0.1779                 2.3109

                     34                     35                     36
                      A                      A                      A
 Frequencies --    993.0214               999.1534              1008.0101
 Red. masses --      1.3174                 1.6163                 1.3819
 Frc consts  --      0.7654                 0.9507                 0.8273
 IR Inten    --      0.4825                 0.4974                 5.2329

                     37                     38                     39
                      A                      A                      A
 Frequencies --   1022.2510              1034.4284              1043.5363
 Red. masses --      5.9706                 1.8034                 1.8638
 Frc consts  --      3.6761                 1.1370                 1.1958
 IR Inten    --      0.0462                 0.1290                 6.6853

                     40                     41                     42
                      A                      A                      A
 Frequencies --   1069.3788              1093.8863              1126.8388
 Red. masses --      2.3009                 2.1095                 1.5374
 Frc consts  --      1.5503                 1.4872                 1.1502
 IR Inten    --      1.7192                 7.7057                 6.6817

                     43                     44                     45
                      A                      A                      A
 Frequencies --   1160.1863              1184.8719              1192.4816
 Red. masses --      2.2018                 1.7491                 1.7344
 Frc consts  --      1.7462                 1.4468                 1.4531
 IR Inten    --      0.2212                28.3736                 2.8214

                     46                     47                     48
                      A                      A                      A
 Frequencies --   1200.8005              1207.7033              1272.9870
 Red. masses --      1.2491                 1.7254                 2.1806
 Frc consts  --      1.0611                 1.4828                 2.0820
 IR Inten    --     16.1706                11.4168                49.4197

                     49                     50                     51
                      A                      A                      A
 Frequencies --   1285.8468              1323.2965              1330.9837
 Red. masses --      1.9238                 1.4677                 1.3926
 Frc consts  --      1.8741                 1.5142                 1.4535
 IR Inten    --     11.9792                 1.2882                 6.7388

                     52                     53                     54
                      A                      A                      A
 Frequencies --   1359.2901              1369.4935              1384.3161
 Red. masses --      1.3787                 1.5422                 1.8966
 Frc consts  --      1.5009                 1.7041                 2.1414
 IR Inten    --      4.2837                 1.9146                 2.4512

                     55                     56                     57
                      A                      A                      A
 Frequencies --   1387.9619              1406.0011              1435.5268
 Red. masses --      1.6087                 1.4643                 1.3097
 Frc consts  --      1.8259                 1.7055                 1.5901
 IR Inten    --      4.3623                 0.0877                 4.9529

                     58                     59                     60
                      A                      A                      A
 Frequencies --   1438.6017              1442.0838              1444.0593
 Red. masses --      1.2597                 1.2504                 1.2209
 Frc consts  --      1.5360                 1.5320                 1.5000
 IR Inten    --     11.6081                 1.0226                 4.2043

                     61                     62                     63
                      A                      A                      A
 Frequencies --   1491.7894              1514.2525              1526.3190
 Red. masses --      2.3857                 1.0676                 1.0470
 Frc consts  --      3.1282                 1.4423                 1.4371
 IR Inten    --      4.4564                 0.2226                 5.9191

                     64                     65                     66
                      A                      A                      A
 Frequencies --   1527.2719              1530.3392              1535.7012
 Red. masses --      1.0716                 1.0618                 1.3187
 Frc consts  --      1.4727                 1.4651                 1.8323
 IR Inten    --      2.0851                 3.8778                 3.2139

                     67                     68                     69
                      A                      A                      A
 Frequencies --   1537.3731              1540.6094              1548.9668
 Red. masses --      1.1661                 1.3883                 1.0477
 Frc consts  --      1.6238                 1.9414                 1.4810
 IR Inten    --      6.7362                 8.3147                 3.7487

                     70                     71                     72
                      A                      A                      A
 Frequencies --   1642.2170              1665.4351              1800.9826
 Red. masses --      5.5536                 5.6677                 9.7678
 Frc consts  --      8.8244                 9.2622                18.6666
 IR Inten    --     41.9127                 3.0221               267.4849

                     73                     74                     75
                      A                      A                      A
 Frequencies --   2904.8522              3000.5501              3019.5009
 Red. masses --      1.0836                 1.0806                 1.0791
 Frc consts  --      5.3873                 5.7320                 5.7967
 IR Inten    --    127.3056                 3.1580                 4.5499

                     76                     77                     78
                      A                      A                      A
 Frequencies --   3027.6086              3046.5908              3047.8309
 Red. masses --      1.0725                 1.0416                 1.0412
 Frc consts  --      5.7924                 5.6964                 5.6984
 IR Inten    --     43.5644                31.5997                29.7322

                     79                     80                     81
                      A                      A                      A
 Frequencies --   3053.0570              3083.5604              3109.4919
 Red. masses --      1.0381                 1.0935                 1.1011
 Frc consts  --      5.7010                 6.1259                 6.2725
 IR Inten    --     16.0873                21.6354                42.1169

                     82                     83                     84
                      A                      A                      A
 Frequencies --   3117.4355              3118.3301              3126.4686
 Red. masses --      1.0942                 1.1005                 1.1000
 Frc consts  --      6.2651                 6.3048                 6.3353
 IR Inten    --     28.4816                28.0563                39.4821

                     85                     86                     87
                      A                      A                      A
 Frequencies --   3136.8243              3140.4611              3168.5873
 Red. masses --      1.1008                 1.1016                 1.0893
 Frc consts  --      6.3819                 6.4012                 6.4435
 IR Inten    --     47.8576                30.7591                11.5512

                     88                     89                     90
                      A                      A                      A
 Frequencies --   3186.3707              3202.8610              3223.7358
 Red. masses --      1.0866                 1.0924                 1.0936
 Frc consts  --      6.5000                 6.6025                 6.6962
 IR Inten    --      8.2188                16.1454                 5.9291

 - Thermochemistry -
 -------------------
 Temperature   298.150 Kelvin.  Pressure   1.00000 Atm.
 Atom     1 has atomic number  6 and mass  12.00000

 Molecular mass:   190.13577 amu.
 Principal axes and moments of inertia in atomic units:
                           1         2         3
     Eigenvalues --  1213.702125783.115746023.97116
           X            0.99996  -0.00921  -0.00056
           Y            0.00922   0.99939   0.03357
           Z            0.00025  -0.03358   0.99944
 This molecule is an asymmetric top.
 Rotational symmetry number  1.
 Warning -- assumption of classical behavior for rotation
           may cause significant error
 Rotational temperatures (Kelvin)      0.07136     0.01498     0.01438
 Rotational constants (GHZ):           1.48697     0.31207     0.29959
 Zero-point vibrational energy     738030.3 (Joules/Mol)
                                  176.39348 (Kcal/Mol)
 Warning -- explicit consideration of  22 degrees of freedom as
           vibrations may cause significant error
 Vibrational temperatures:     43.17    67.68   105.06   132.59   177.61
          (Kelvin)            223.00   292.56   307.19   322.60   345.29
                              362.01   379.54   401.10   469.04   498.34
                              576.69   616.56   647.92   653.93   744.00
                              861.69   890.75   976.38  1028.05  1113.37
                             1136.48  1176.66  1200.36  1274.06  1314.78
                             1338.49  1360.83  1402.33  1428.74  1437.56
                             1450.30  1470.79  1488.31  1501.42  1538.60
                             1573.86  1621.27  1669.25  1704.77  1715.72
                             1727.68  1737.62  1831.54  1850.05  1903.93
                             1914.99  1955.72  1970.40  1991.72  1996.97
                             2022.92  2065.40  2069.83  2074.84  2077.68
                             2146.35  2178.67  2196.03  2197.40  2201.82
                             2209.53  2211.94  2216.59  2228.62  2362.78
                             2396.19  2591.21  4179.43  4317.12  4344.39
                             4356.05  4383.36  4385.15  4392.67  4436.56
                             4473.87  4485.29  4486.58  4498.29  4513.19
                             4518.42  4558.89  4584.48  4608.20  4638.24

 Zero-point correction=                           0.281101 (Hartree/Particle)
 Thermal correction to Energy=                    0.295733
 Thermal correction to Enthalpy=                  0.296677
 Thermal correction to Gibbs Free Energy=         0.239035
 Sum of electronic and zero-point Energies=           -581.234318
 Sum of electronic and thermal Energies=              -581.219686
 Sum of electronic and thermal Enthalpies=            -581.218742
 Sum of electronic and thermal Free Energies=         -581.276384

                     E (Thermal)             CV                S
                      KCal/Mol        Cal/Mol-Kelvin    Cal/Mol-Kelvin
 Total                  185.575             55.032            121.318
 Electronic               0.000              0.000              0.000
 Translational            0.889              2.981             41.633
 Rotational               0.889              2.981             32.114
 Vibrational            183.798             49.070             47.571
 Vibration     1          0.594              1.984              5.829
 Vibration     2          0.595              1.979              4.938
 Vibration     3          0.599              1.967              4.070
 Vibration     4          0.602              1.955              3.614
 Vibration     5          0.610              1.929              3.046
 Vibration     6          0.620              1.897              2.610
 Vibration     7          0.639              1.835              2.103
 Vibration     8          0.644              1.820              2.013
 Vibration     9          0.649              1.804              1.925
 Vibration    10          0.657              1.779              1.803
 Vibration    11          0.664              1.760              1.719
 Vibration    12          0.670              1.739              1.637
 Vibration    13          0.679              1.713              1.541
 Vibration    14          0.710              1.623              1.280
 Vibration    15          0.724              1.583              1.183
 Vibration    16          0.767              1.468              0.960
 Vibration    17          0.790              1.408              0.863
 Vibration    18          0.809              1.360              0.795
 Vibration    19          0.813              1.351              0.782
 Vibration    20          0.872              1.212              0.617
 Vibration    21          0.957              1.034              0.452
 Vibration    22          0.979              0.992              0.418

 Optimization completed.
    -- Stationary point found.
 Normal termination of Gaussian 16 at Thu Dec 10 10:42:23 2020.

 ----------------------------------------------------------------------
 # B3LYP/6-311++G(d,p) empiricaldispersion=gd3bj scf=xqc pop=npa geom=c
 heck
 ----------------------------------------------------------------------

 ---------------------------------------
 CID_139685914_JID_4762_Energie_neutraal
 ---------------------------------------
 Structure from the checkpoint file:  "JID_4762.chk"
 Charge =  0 Multiplicity = 1

 SCF Done:  E(RB3LYP) =  -581.673317072     A.U. after   14 cycles
 Normal termination of Gaussian 16 at Thu Dec 10 10:46:36 2020.

 ----------------------------------------------------------------------
 # B3LYP/6-311++G(d,p) empiricaldispersion=gd3bj scf=xqc pop=npa geom=c
 heck
 ----------------------------------------------------------------------

 -------------------------------------
 CID_139685914_JID_4762_Energie_kation
 -------------------------------------
 Structure from the checkpoint file:  "JID_4762.chk"
 Charge =  1 Multiplicity = 2

 SCF Done:  E(UB3LYP) =  -581.346112344     A.U. after   30 cycles
 Normal termination of Gaussian 16 at Thu Dec 10 10:59:04 2020.
 Gaussian 16:  ES64L-G16RevA.03 25-Dec-2016

 ----------------------------------------------------------------------
 # B3LYP/6-311++G(d,p) empiricaldispersion=gd3bj scf=xqc pop=npa geom=c
 heck
 ----------------------------------------------------------------------

 ------------------------------------
 CID_139685914_JID_4762_Energie_anion
 ------------------------------------
 Structure from the checkpoint file:  "JID_4762.chk"
 Charge = -1 Multiplicity = 2

                         Standard orientation:
 ---------------------------------------------------------------------
 Center     Atomic      Atomic             Coordinates (Angstroms)
 Number     Number       Type             X           Y           Z
 ---------------------------------------------------------------------
      1          6           0        4.686379   -0.722793   -0.643445
      2          6           0        3.611385   -0.291385    0.359521
      3          6           0        2.194200   -0.178124   -0.233311
      4          6           0        1.747472   -1.496815   -0.879322
      5          6           0        1.160667    0.283604    0.832810
      6          6           0        1.562253    1.585086    1.552144
      7          6           0       -0.229411    0.429927    0.236794
      8          6           0       -0.496379    1.384329   -0.755353
      9          6           0       -1.773775    1.527033   -1.303850
     10          6           0       -2.816020    0.716425   -0.868597
     11          6           0       -2.569994   -0.241930    0.122945
     12          6           0       -1.286189   -0.376552    0.664498
     13          6           0       -3.660643   -1.117055    0.601859
     14          8           0       -4.807319   -1.082095    0.197578
     15          1           0        4.538835   -1.749925   -0.991251
     16          1           0        5.682289   -0.669123   -0.190093
     17          1           0        4.686848   -0.069175   -1.524731
     18          1           0        3.589280   -0.999532    1.201303
     19          1           0        3.905441    0.676310    0.780103
     20          1           0        2.225389    0.593231   -1.018877
     21          1           0        1.745525   -2.307810   -0.138869
     22          1           0        0.737225   -1.418184   -1.290191
     23          1           0        2.414790   -1.791302   -1.694151
     24          1           0        1.106464   -0.511841    1.590133
     25          1           0        1.760711    2.390200    0.834592
     26          1           0        0.755503    1.919818    2.212093
     27          1           0        2.459591    1.450523    2.162106
     28          1           0        0.306303    2.026530   -1.107658
     29          1           0       -1.948884    2.274903   -2.072057
     30          1           0       -3.818512    0.802962   -1.274814
     31          1           0       -1.110126   -1.128362    1.431974
     32          1           0       -3.357790   -1.842957    1.389600
 ---------------------------------------------------------------------

 SCF Done:  E(UB3LYP) =  -581.684803189     A.U. after   33 cycles
 SCF Done:  E(UB3LYP) =  -581.684803189     a.u. after    2 cycles

 The electronic state is 2-A.
 Alpha  occ. eigenvalues --  -18.90873 -10.07799 -10.07400 -10.06826 -10.06072
 Alpha  occ. eigenvalues --  -10.05264 -10.05018 -10.04368 -10.02617 -10.02167
 Alpha  occ. eigenvalues --  -10.01432 -10.00785 -10.00366 -10.00023  -0.84688
 Alpha  occ. eigenvalues --   -0.72676  -0.69790  -0.65854  -0.61819  -0.59771
 Alpha  occ. eigenvalues --   -0.58735  -0.54774  -0.51090  -0.48059  -0.45138
 Alpha  occ. eigenvalues --   -0.44730  -0.39013  -0.37095  -0.35422  -0.35078
 Alpha  occ. eigenvalues --   -0.33217  -0.32452  -0.31211  -0.30581  -0.29354
 Alpha  occ. eigenvalues --   -0.28736  -0.27537  -0.26832  -0.26442  -0.25762
 Alpha  occ. eigenvalues --   -0.24564  -0.23823  -0.23364  -0.22330  -0.22083
 Alpha  occ. eigenvalues --   -0.21543  -0.19231  -0.19120  -0.18238  -0.10732
 Alpha  occ. eigenvalues --   -0.09855  -0.07093   0.05240
 Alpha virt. eigenvalues --    0.06274   0.08097   0.08542   0.09158   0.10584
 Alpha virt. eigenvalues --    0.10940   0.11142   0.11626   0.11778   0.12875
 Alpha virt. eigenvalues --    0.13421   0.13489   0.13632   0.14582   0.14719

  Beta  occ. eigenvalues --  -18.90271 -10.07799 -10.07401 -10.06820 -10.06073
  Beta  occ. eigenvalues --  -10.05261 -10.05019 -10.04041 -10.02638 -10.02258
  Beta  occ. eigenvalues --  -10.01307 -10.00423 -10.00139  -9.99899  -0.83590
  Beta  occ. eigenvalues --   -0.72603  -0.69537  -0.65765  -0.61799  -0.59285
  Beta  occ. eigenvalues --   -0.58386  -0.54769  -0.50929  -0.47347  -0.44956
  Beta  occ. eigenvalues --   -0.44448  -0.38687  -0.37046  -0.35122  -0.35023
  Beta  occ. eigenvalues --   -0.33105  -0.32376  -0.31175  -0.30347  -0.29304
  Beta  occ. eigenvalues --   -0.28605  -0.27528  -0.26819  -0.26239  -0.25702
  Beta  occ. eigenvalues --   -0.24279  -0.23506  -0.22509  -0.22179  -0.21681
  Beta  occ. eigenvalues --   -0.20837  -0.18990  -0.18117  -0.17110  -0.09689
  Beta  occ. eigenvalues --   -0.07960  -0.06550
  Beta virt. eigenvalues --    0.06224   0.08045   0.08479   0.09100   0.10517
  Beta virt. eigenvalues --    0.10879   0.11099   0.11583   0.11638   0.11988
  Beta virt. eigenvalues --    0.12852   0.13443   0.13525   0.13665   0.14633

 Mulliken charges and spin densities:
               1          2
     1  C   -0.710187  -0.008963
     2  C   -0.116284   0.006539
     3  C    0.145282   0.020990
     4  C   -0.860508  -0.010117
     5  C    0.181772   0.020633
     6  C   -0.694069  -0.028790
     7  C    0.779999  -0.056064
     8  C   -0.420772   0.306610
     9  C   -0.404048  -0.049088
    10  C   -0.189386   0.226019
    11  C    0.564009   0.067350
    12  C   -0.686266   0.081515
    13  C   -0.354988   0.234064
    14  O   -0.402256   0.205243
    15  H    0.142529  -0.000928
    16  H    0.120130   0.001509
    17  H    0.128099   0.011185
    18  H    0.130135   0.000565
    19  H    0.111527   0.002835
    20  H    0.122359   0.022797
    21  H    0.138165  -0.002308
    22  H    0.166416   0.000631
    23  H    0.110634   0.000318
    24  H    0.151592  -0.000614
    25  H    0.153436   0.001171
    26  H    0.142407   0.002648
    27  H    0.111503   0.001447
    28  H    0.061105  -0.023389
    29  H    0.112190   0.008145
    30  H    0.143382  -0.015577
    31  H    0.104155  -0.006731
    32  H    0.017936  -0.019644
 Sum of Mulliken charges =  -1.00000   1.00000

 Dipole moment (field-independent basis, Debye):
    X=             12.7361    Y=              1.0779    Z=              0.3434  Tot=             12.7863
 Quadrupole moment (field-independent basis, Debye-Ang):
   XX=           -162.9794   YY=           -100.5066   ZZ=            -96.5564
   XY=            -10.4889   XZ=              1.8758   YZ=             -1.0716

 Summary of Natural Population Analysis:

                                       Natural Population
                Natural  -----------------------------------------------
    Atom  No    Charge         Core      Valence    Rydberg      Total
 -----------------------------------------------------------------------
      C    1   -0.28490      0.99967     2.28111    0.00412     3.28490
      C    2   -0.18868      0.99963     2.18209    0.00696     3.18868
      C    3   -0.10426      0.99959     2.09565    0.00902     3.10426
      C    4   -0.28878      0.99965     2.28388    0.00525     3.28878
      C    5   -0.10942      0.99956     2.09964    0.01022     3.10942
      C    6   -0.28177      0.99966     2.27739    0.00473     3.28177
      C    7   -0.03725      0.99950     2.02663    0.01111     3.03725
      C    8   -0.04184      0.99951     2.03407    0.00826     3.04184
      C    9   -0.12885      0.99958     2.11993    0.00934     3.12885
      C   10   -0.04239      0.99953     2.03362    0.00924     3.04239
      C   11   -0.05122      0.99949     2.04233    0.00939     3.05122
      C   12   -0.06515      0.99948     2.05742    0.00825     3.06515
      C   13    0.24621      0.99969     1.73288    0.02122     2.75379
      O   14   -0.24394      0.99988     3.23583    0.00823     4.24394
      H   15    0.09549      0.00000     0.40364    0.00087     0.40451
      H   16    0.09304      0.00000     0.40604    0.00091     0.40696
      H   17    0.09469      0.00000     0.40437    0.00094     0.40531
      H   18    0.09016      0.00000     0.40864    0.00119     0.40984
      H   19    0.09507      0.00000     0.40391    0.00102     0.40493
      H   20    0.09321      0.00000     0.40513    0.00166     0.40679
      H   21    0.09237      0.00000     0.40667    0.00095     0.40763
      H   22    0.11589      0.00000     0.38338    0.00074     0.38411
      H   23    0.09161      0.00000     0.40758    0.00080     0.40839
      H   24    0.09174      0.00000     0.40670    0.00156     0.40826
      H   25    0.09569      0.00000     0.40340    0.00091     0.40431
      H   26    0.10378      0.00000     0.39542    0.00080     0.39622
      H   27    0.08907      0.00000     0.40996    0.00096     0.41093
      H   28    0.08313      0.00000     0.41545    0.00142     0.41687
      H   29    0.08760      0.00000     0.41073    0.00167     0.41240
      H   30    0.10004      0.00000     0.39850    0.00146     0.39996
      H   31    0.08703      0.00000     0.41114    0.00183     0.41297
      H   32    0.02262      0.00000     0.47415    0.00322     0.47738
 =======================================================================
   * Total *   -0.00000     13.99442    37.85733    0.14825    52.00000

 Normal termination of Gaussian 16 at Thu Dec 10 11:23:07 2020.
