 Gaussian 16, Revision A.03,

 -----------------------------------------------------------
 # opt freq B3LYP/6-31G(d) empiricaldispersion=gd3bj scf=xqc
 -----------------------------------------------------------

 -------------------------------
 CID_130173015_JID_3910_neutraal
 -------------------------------
 Symbolic Z-matrix:
 Charge =  0 Multiplicity = 1

 SCF Done:  E(RB3LYP) =  -664.532875874     A.U. after   14 cycles
 SCF Done:  E(RB3LYP) =  -664.538856995     A.U. after   13 cycles
 SCF Done:  E(RB3LYP) =  -664.539531132     A.U. after   13 cycles
 SCF Done:  E(RB3LYP) =  -664.541886564     A.U. after   13 cycles
 SCF Done:  E(RB3LYP) =  -664.544482824     A.U. after   13 cycles
 SCF Done:  E(RB3LYP) =  -664.542903666     A.U. after   13 cycles
 SCF Done:  E(RB3LYP) =  -664.545058035     A.U. after   12 cycles
 SCF Done:  E(RB3LYP) =  -664.545545605     A.U. after   11 cycles
 SCF Done:  E(RB3LYP) =  -664.545614492     A.U. after   11 cycles
 SCF Done:  E(RB3LYP) =  -664.545663958     A.U. after   10 cycles
 SCF Done:  E(RB3LYP) =  -664.545688824     A.U. after   10 cycles
 SCF Done:  E(RB3LYP) =  -664.545702005     A.U. after   10 cycles
 SCF Done:  E(RB3LYP) =  -664.545705456     A.U. after    8 cycles
 SCF Done:  E(RB3LYP) =  -664.545705968     A.U. after    7 cycles
 SCF Done:  E(RB3LYP) =  -664.545706044     A.U. after    7 cycles
 Optimization completed.
    -- Stationary point found.
 Normal termination of Gaussian 16 at Sun Dec 13 15:58:20 2020.

 --------------------------------------------------------------------
 #N Geom=AllCheck Guess=TCheck SCRF=Check GenChk RB3LYP/6-31G(d) Freq
 --------------------------------------------------------------------

 Structure from the checkpoint file:  "JID_3910.chk"
 -------------------------------
 CID_130173015_JID_3910_neutraal
 -------------------------------
 Charge =  0 Multiplicity = 1

 SCF Done:  E(RB3LYP) =  -664.545706044     A.U. after    1 cycles

  Exact polarizability:  94.298   2.627 100.161   6.748   1.840  90.140
 Approx polarizability: 128.468   5.949 146.026  21.526   8.856 146.004

                      1                      2                      3
                      A                      A                      A
 Frequencies --     66.7924                71.6764               104.0035
 Red. masses --      5.4727                 5.0061                 7.6966
 Frc consts  --      0.0144                 0.0152                 0.0491
 IR Inten    --      0.5436                 0.0909                 1.7699

                      4                      5                      6
                      A                      A                      A
 Frequencies --    117.9050               176.4334               214.6590
 Red. masses --      4.5205                 6.7850                 4.6579
 Frc consts  --      0.0370                 0.1244                 0.1265
 IR Inten    --      1.3432                 0.6787                 1.0949

                      7                      8                      9
                      A                      A                      A
 Frequencies --    222.9165               250.7897               267.4445
 Red. masses --      2.0717                 1.3511                 1.6965
 Frc consts  --      0.0607                 0.0501                 0.0715
 IR Inten    --      0.3795                 0.0717                 2.1779

                     10                     11                     12
                      A                      A                      A
 Frequencies --    281.1979               302.5095               317.3111
 Red. masses --      2.3049                 5.0130                 2.9333
 Frc consts  --      0.1074                 0.2703                 0.1740
 IR Inten    --      3.7919                 3.7363                 1.7849

                     13                     14                     15
                      A                      A                      A
 Frequencies --    343.3826               451.7778               492.9561
 Red. masses --      1.7343                 4.5673                 3.1906
 Frc consts  --      0.1205                 0.5492                 0.4568
 IR Inten    --      0.5559                 4.8472                35.9591

                     16                     17                     18
                      A                      A                      A
 Frequencies --    510.6249               526.8151               592.9272
 Red. masses --      2.4000                 2.0266                 2.1810
 Frc consts  --      0.3687                 0.3314                 0.4518
 IR Inten    --     40.5742                49.6615                74.6411

                     19                     20                     21
                      A                      A                      A
 Frequencies --    601.6910               640.1548               654.6713
 Red. masses --      1.6549                 2.9447                 2.4860
 Frc consts  --      0.3530                 0.7110                 0.6278
 IR Inten    --     43.5355                34.8389                48.3634

                     22                     23                     24
                      A                      A                      A
 Frequencies --    739.9892               760.7342               785.1404
 Red. masses --      3.8856                 3.8719                 3.7211
 Frc consts  --      1.2536                 1.3202                 1.3515
 IR Inten    --     20.9683                41.8620                 7.1007

                     25                     26                     27
                      A                      A                      A
 Frequencies --    811.8975               842.5822               848.4081
 Red. masses --      3.0315                 4.1323                 2.5331
 Frc consts  --      1.1774                 1.7285                 1.0742
 IR Inten    --    134.8473                39.0163                31.0196

                     28                     29                     30
                      A                      A                      A
 Frequencies --    918.5885               928.7821               982.3229
 Red. masses --      1.8887                 2.9447                 1.4048
 Frc consts  --      0.9390                 1.4967                 0.7987
 IR Inten    --     28.8034                12.1650                 5.8486

                     31                     32                     33
                      A                      A                      A
 Frequencies --   1005.6520              1029.7344              1058.8602
 Red. masses --      2.5394                 1.8082                 1.9983
 Frc consts  --      1.5131                 1.1297                 1.3201
 IR Inten    --     39.6117                21.5090                67.8887

                     34                     35                     36
                      A                      A                      A
 Frequencies --   1075.2049              1092.0371              1101.5259
 Red. masses --      1.9765                 1.9660                 3.4424
 Frc consts  --      1.3463                 1.3814                 2.4609
 IR Inten    --     43.0972                13.9478                21.8121

                     37                     38                     39
                      A                      A                      A
 Frequencies --   1143.1537              1154.8959              1191.0267
 Red. masses --      3.0663                 1.7942                 2.0401
 Frc consts  --      2.3609                 1.4100                 1.7051
 IR Inten    --     45.9428                 1.1258                 8.7737

                     40                     41                     42
                      A                      A                      A
 Frequencies --   1227.3125              1286.8252              1309.3953
 Red. masses --      1.9709                 1.8040                 1.5724
 Frc consts  --      1.7491                 1.7601                 1.5884
 IR Inten    --    161.3519                45.7551                 8.2772

                     43                     44                     45
                      A                      A                      A
 Frequencies --   1337.6314              1358.2727              1374.7183
 Red. masses --      1.5258                 1.3713                 1.4782
 Frc consts  --      1.6085                 1.4906                 1.6460
 IR Inten    --     20.3126                 2.5822                 7.4743

                     46                     47                     48
                      A                      A                      A
 Frequencies --   1382.3062              1392.7719              1422.2232
 Red. masses --      2.3526                 1.4207                 1.5799
 Frc consts  --      2.6486                 1.6237                 1.8829
 IR Inten    --     52.0683                16.9291                31.1701

                     49                     50                     51
                      A                      A                      A
 Frequencies --   1428.1040              1435.2091              1441.7544
 Red. masses --      1.3225                 1.2541                 1.4050
 Frc consts  --      1.5891                 1.5220                 1.7207
 IR Inten    --      7.1432                11.7408                36.8669

                     52                     53                     54
                      A                      A                      A
 Frequencies --   1449.5767              1507.7419              1523.3433
 Red. masses --      1.2628                 1.1304                 1.0520
 Frc consts  --      1.5634                 1.5140                 1.4384
 IR Inten    --      2.9591                 2.7034                 7.6803

                     55                     56                     57
                      A                      A                      A
 Frequencies --   1532.1633              1535.3621              1549.6461
 Red. masses --      1.0501                 1.0509                 1.0478
 Frc consts  --      1.4525                 1.4596                 1.4825
 IR Inten    --     10.1968                10.1118                 1.0332

                     58                     59                     60
                      A                      A                      A
 Frequencies --   1822.3289              1858.0469              3045.5251
 Red. masses --      9.0638                10.1218                 1.0432
 Frc consts  --     17.7342                20.5884                 5.7008
 IR Inten    --    311.1438               436.6411                13.9593

                     61                     62                     63
                      A                      A                      A
 Frequencies --   3054.3169              3064.9766              3066.0492
 Red. masses --      1.0818                 1.0415                 1.0790
 Frc consts  --      5.9462                 5.7644                 5.9761
 IR Inten    --     29.1338                21.4583                16.3149

                     64                     65                     66
                      A                      A                      A
 Frequencies --   3090.0339              3105.4961              3132.8285
 Red. masses --      1.0854                 1.1012                 1.1026
 Frc consts  --      6.1059                 6.2573                 6.3760
 IR Inten    --      6.3874                36.3812                17.9786

                     67                     68                     69
                      A                      A                      A
 Frequencies --   3140.5606              3148.4277              3484.9573
 Red. masses --      1.0991                 1.1020                 1.0759
 Frc consts  --      6.3869                 6.4360                 7.6984
 IR Inten    --     27.0652                15.3739                 2.6435

                     70                     71                     72
                      A                      A                      A
 Frequencies --   3504.3144              3642.7702              3690.9288
 Red. masses --      1.0770                 1.0773                 1.0640
 Frc consts  --      7.7926                 8.4229                 8.5404
 IR Inten    --     82.3748                24.9953                58.6352

 - Thermochemistry -
 -------------------
 Temperature   298.150 Kelvin.  Pressure   1.00000 Atm.
 Atom     1 has atomic number  6 and mass  12.00000

 Molecular mass:   187.09569 amu.
 Principal axes and moments of inertia in atomic units:
                           1         2         3
     Eigenvalues --  1691.646512481.778133086.28963
           X            0.99909   0.03151  -0.02876
           Y           -0.03216   0.99923  -0.02237
           Z            0.02803   0.02327   0.99934
 This molecule is an asymmetric top.
 Rotational symmetry number  1.
 Warning -- assumption of classical behavior for rotation
           may cause significant error
 Rotational temperatures (Kelvin)      0.05120     0.03490     0.02806
 Rotational constants (GHZ):           1.06685     0.72720     0.58476
 Zero-point vibrational energy     574357.6 (Joules/Mol)
                                  137.27476 (Kcal/Mol)
 Warning -- explicit consideration of  19 degrees of freedom as
           vibrations may cause significant error
 Vibrational temperatures:     96.10   103.13   149.64   169.64   253.85
          (Kelvin)            308.85   320.73   360.83   384.79   404.58
                              435.24   456.54   494.05   650.01   709.25
                              734.68   757.97   853.09   865.70   921.04
                              941.93  1064.68  1094.53  1129.64  1168.14
                             1212.29  1220.67  1321.64  1336.31  1413.34
                             1446.91  1481.56  1523.46  1546.98  1571.20
                             1584.85  1644.74  1661.64  1713.62  1765.83
                             1851.45  1883.93  1924.55  1954.25  1977.91
                             1988.83  2003.89  2046.26  2054.72  2064.95
                             2074.36  2085.62  2169.30  2191.75  2204.44
                             2209.04  2229.60  2621.92  2673.32  4381.83
                             4394.48  4409.82  4411.36  4445.87  4468.12
                             4507.44  4518.57  4529.89  5014.08  5041.93
                             5241.13  5310.42

 Zero-point correction=                           0.218761 (Hartree/Particle)
 Thermal correction to Energy=                    0.231346
 Thermal correction to Enthalpy=                  0.232290
 Thermal correction to Gibbs Free Energy=         0.180323
 Sum of electronic and zero-point Energies=           -664.326945
 Sum of electronic and thermal Energies=              -664.314360
 Sum of electronic and thermal Enthalpies=            -664.313416
 Sum of electronic and thermal Free Energies=         -664.365383

                     E (Thermal)             CV                S
                      KCal/Mol        Cal/Mol-Kelvin    Cal/Mol-Kelvin
 Total                  145.172             48.148            109.373
 Electronic               0.000              0.000              0.000
 Translational            0.889              2.981             41.585
 Rotational               0.889              2.981             30.939
 Vibrational            143.394             42.187             36.849
 Vibration     1          0.598              1.970              4.246
 Vibration     2          0.598              1.968              4.107
 Vibration     3          0.605              1.946              3.378
 Vibration     4          0.608              1.934              3.134
 Vibration     5          0.628              1.871              2.366
 Vibration     6          0.645              1.819              2.004
 Vibration     7          0.649              1.806              1.935
 Vibration     8          0.663              1.761              1.725
 Vibration     9          0.673              1.733              1.613
 Vibration    10          0.681              1.708              1.526
 Vibration    11          0.694              1.669              1.403
 Vibration    12          0.704              1.641              1.324
 Vibration    13          0.722              1.589              1.196
 Vibration    14          0.810              1.357              0.790
 Vibration    15          0.849              1.266              0.676
 Vibration    16          0.866              1.226              0.632
 Vibration    17          0.882              1.191              0.594
 Vibration    18          0.950              1.047              0.462
 Vibration    19          0.960              1.028              0.447

 Optimization completed.
    -- Stationary point found.
 Normal termination of Gaussian 16 at Sun Dec 13 16:05:08 2020.

 ----------------------------------------------------------------------
 # B3LYP/6-311++G(d,p) empiricaldispersion=gd3bj scf=xqc pop=npa geom=c
 heck
 ----------------------------------------------------------------------

 ---------------------------------------
 CID_130173015_JID_3910_Energie_neutraal
 ---------------------------------------
 Structure from the checkpoint file:  "JID_3910.chk"
 Charge =  0 Multiplicity = 1

 SCF Done:  E(RB3LYP) =  -664.757987947     A.U. after   14 cycles
 Normal termination of Gaussian 16 at Sun Dec 13 16:07:22 2020.

 ----------------------------------------------------------------------
 # B3LYP/6-311++G(d,p) empiricaldispersion=gd3bj scf=xqc pop=npa geom=c
 heck
 ----------------------------------------------------------------------

 -------------------------------------
 CID_130173015_JID_3910_Energie_kation
 -------------------------------------
 Structure from the checkpoint file:  "JID_3910.chk"
 Charge =  1 Multiplicity = 2

 SCF Done:  E(UB3LYP) =  -664.431056634     A.U. after   27 cycles
 Normal termination of Gaussian 16 at Sun Dec 13 16:13:02 2020.
 Gaussian 16:  ES64L-G16RevA.03 25-Dec-2016

 ----------------------------------------------------------------------
 # B3LYP/6-311++G(d,p) empiricaldispersion=gd3bj scf=xqc pop=npa geom=c
 heck
 ----------------------------------------------------------------------

 ------------------------------------
 CID_130173015_JID_3910_Energie_anion
 ------------------------------------
 Structure from the checkpoint file:  "JID_3910.chk"
 Charge = -1 Multiplicity = 2

                         Standard orientation:
 ---------------------------------------------------------------------
 Center     Atomic      Atomic             Coordinates (Angstroms)
 Number     Number       Type             X           Y           Z
 ---------------------------------------------------------------------
      1          6           0        0.558390    2.661634    0.134998
      2          6           0        0.598497    1.183539    0.546342
      3          6           0       -0.783021    0.761381    1.097048
      4          7           0       -1.897304    0.944788    0.174726
      5          6           0       -2.181912   -0.253944   -0.467732
      6          8           0       -2.769440   -0.402113   -1.520236
      7          7           0       -1.653707   -1.274451    0.342968
      8          7           0       -0.861327   -0.688921    1.390567
      9          6           0        1.096463    0.259509   -0.592543
     10          6           0        2.361736    0.797646   -1.292157
     11          6           0        1.405283   -1.146285   -0.104237
     12          8           0        0.959672   -2.172404   -0.579637
     13          8           0        2.341211   -1.155615    0.873188
     14          1           0       -0.004956    2.808526   -0.794844
     15          1           0        1.561792    3.063570   -0.024035
     16          1           0        0.083285    3.267021    0.916226
     17          1           0        1.298241    1.077432    1.384405
     18          1           0       -0.955287    1.316190    2.026707
     19          1           0       -1.997056    1.785137   -0.376494
     20          1           0       -1.107990   -1.953445   -0.186838
     21          1           0       -1.400561   -0.813908    2.244826
     22          1           0        0.311119    0.148661   -1.347206
     23          1           0        3.158499    0.991465   -0.567426
     24          1           0        2.732483    0.069856   -2.021040
     25          1           0        2.143220    1.723543   -1.830097
     26          1           0        2.479407   -2.093784    1.101151
 ---------------------------------------------------------------------

 SCF Done:  E(UB3LYP) =  -664.750863552     A.U. after   33 cycles
 SCF Done:  E(UB3LYP) =  -664.750863552     a.u. after    1 cycles

 The electronic state is 2-A.
 Alpha  occ. eigenvalues --  -19.07256 -19.01962 -18.99600 -14.24982 -14.24810
 Alpha  occ. eigenvalues --  -14.23780 -10.21117 -10.19900 -10.14717 -10.09865
 Alpha  occ. eigenvalues --  -10.08738 -10.07601 -10.06670  -1.01484  -0.96891
 Alpha  occ. eigenvalues --   -0.92516  -0.90830  -0.80955  -0.74035  -0.71039
 Alpha  occ. eigenvalues --   -0.65138  -0.58759  -0.56372  -0.52553  -0.51874
 Alpha  occ. eigenvalues --   -0.48438  -0.44064  -0.41832  -0.40186  -0.39930
 Alpha  occ. eigenvalues --   -0.37800  -0.37418  -0.35658  -0.35040  -0.33440
 Alpha  occ. eigenvalues --   -0.32580  -0.32539  -0.30962  -0.29447  -0.29072
 Alpha  occ. eigenvalues --   -0.27829  -0.27067  -0.26066  -0.23953  -0.23304
 Alpha  occ. eigenvalues --   -0.21764  -0.18636  -0.18151  -0.16509  -0.14434
 Alpha  occ. eigenvalues --    0.04070
 Alpha virt. eigenvalues --    0.06609   0.06736   0.08563   0.08742   0.09024
 Alpha virt. eigenvalues --    0.10080   0.11047   0.11091   0.11544   0.12565
 Alpha virt. eigenvalues --    0.12732   0.13879   0.14268   0.14568   0.15377

  Beta  occ. eigenvalues --  -19.07216 -19.01944 -18.99596 -14.24977 -14.24793
  Beta  occ. eigenvalues --  -14.23764 -10.21097 -10.19899 -10.14690 -10.09858
  Beta  occ. eigenvalues --  -10.08725 -10.07570 -10.06614  -1.01423  -0.96878
  Beta  occ. eigenvalues --   -0.92465  -0.90812  -0.80924  -0.73996  -0.71004
  Beta  occ. eigenvalues --   -0.65081  -0.58679  -0.56296  -0.52519  -0.51789
  Beta  occ. eigenvalues --   -0.48377  -0.43995  -0.41797  -0.40153  -0.39888
  Beta  occ. eigenvalues --   -0.37765  -0.37375  -0.35590  -0.34985  -0.33422
  Beta  occ. eigenvalues --   -0.32542  -0.32495  -0.30926  -0.29394  -0.29019
  Beta  occ. eigenvalues --   -0.27784  -0.27016  -0.26020  -0.23909  -0.23246
  Beta  occ. eigenvalues --   -0.21731  -0.18596  -0.18132  -0.16492  -0.14416
  Beta virt. eigenvalues --    0.06644   0.07631   0.07809   0.09096   0.09296
  Beta virt. eigenvalues --    0.09433   0.10825   0.11460   0.11597   0.11790
  Beta virt. eigenvalues --    0.12818   0.13151   0.14097   0.14575   0.14953

 Mulliken charges and spin densities:
               1          2
     1  C    2.161429  -2.971153
     2  C   -1.556708   2.050830
     3  C    0.529789  -1.140901
     4  N   -0.090350  -0.053618
     5  C    0.064018  -0.118692
     6  O   -0.353544   0.016495
     7  N   -0.264139   0.122893
     8  N   -0.081722  -0.207755
     9  C    0.054087   0.161105
    10  C    0.937762  -1.645396
    11  C   -0.233048  -0.125752
    12  O   -0.293443   0.028386
    13  O   -0.171012   0.078180
    14  H   -0.045583   0.198702
    15  H   -0.458018   0.613068
    16  H   -0.539327   0.708848
    17  H   -0.041497   0.322450
    18  H   -1.053527   1.323423
    19  H    0.110187   0.199364
    20  H    0.346289   0.011141
    21  H    0.037816   0.279091
    22  H    0.316959  -0.012103
    23  H   -0.039940   0.223020
    24  H    0.071866   0.086684
    25  H   -0.239729   0.397353
    26  H   -0.168612   0.454337
 Sum of Mulliken charges =  -1.00000   1.00000

 Dipole moment (field-independent basis, Debye):
    X=              0.3820    Y=             -2.9959    Z=             -2.2825  Tot=              3.7857
 Quadrupole moment (field-independent basis, Debye-Ang):
   XX=           -125.2595   YY=           -128.7718   ZZ=           -118.9911
   XY=             -3.1742   XZ=             -5.8222   YZ=             -8.0307

 Summary of Natural Population Analysis:

                                       Natural Population
                Natural  -----------------------------------------------
    Atom  No    Charge         Core      Valence    Rydberg      Total
 -----------------------------------------------------------------------
      C    1   -0.29155      0.99965     2.28501    0.00690     3.29155
      C    2   -0.11789      0.99956     2.10517    0.01316     3.11789
      C    3    0.08950      0.99959     1.89414    0.01676     2.91050
      N    4   -0.34210      0.99967     2.83204    0.01040     3.84210
      C    5    0.39918      0.99970     1.57709    0.02403     2.60082
      O    6   -0.32249      0.99987     3.31730    0.00532     4.32249
      N    7   -0.25862      0.99969     2.74701    0.01192     3.75862
      N    8   -0.24644      0.99974     2.73275    0.01396     3.74644
      C    9   -0.15710      0.99952     2.14617    0.01140     3.15710
      C   10   -0.28038      0.99965     2.27494    0.00579     3.28038
      C   11    0.42467      0.99967     1.54732    0.02835     2.57533
      O   12   -0.32352      0.99986     3.31729    0.00637     4.32352
      O   13   -0.34363      0.99987     3.33676    0.00700     4.34363
      H   14    0.09509      0.00000     0.40344    0.00146     0.40491
      H   15    0.10778      0.00000     0.39076    0.00146     0.39222
      H   16    0.10813      0.00000     0.38914    0.00272     0.39187
      H   17    0.11115      0.00000     0.38550    0.00335     0.38885
      H   18    0.10115      0.00000     0.39481    0.00404     0.39885
      H   19    0.20166      0.00000     0.29614    0.00219     0.29834
      H   20    0.20348      0.00000     0.29417    0.00235     0.29652
      H   21    0.17936      0.00000     0.31783    0.00282     0.32064
      H   22    0.10928      0.00000     0.38869    0.00203     0.39072
      H   23    0.10535      0.00000     0.39347    0.00118     0.39465
      H   24    0.10141      0.00000     0.39777    0.00082     0.39859
      H   25    0.10474      0.00000     0.39440    0.00086     0.39526
      H   26    0.24180      0.00000     0.25205    0.00615     0.25820
 =======================================================================
   * Total *   -0.00000     12.99603    36.81116    0.19281    50.00000

 Normal termination of Gaussian 16 at Sun Dec 13 16:19:56 2020.
