 Gaussian 16, Revision A.03,

 -----------------------------------------------------------
 # opt freq B3LYP/6-31G(d) empiricaldispersion=gd3bj scf=xqc
 -----------------------------------------------------------

 -------------------------------
 CID_115303296_JID_1042_neutraal
 -------------------------------
 Symbolic Z-matrix:
 Charge =  0 Multiplicity = 1

 SCF Done:  E(RB3LYP) =  -499.244922722     A.U. after   15 cycles
 SCF Done:  E(RB3LYP) =  -499.248691640     A.U. after   13 cycles
 SCF Done:  E(RB3LYP) =  -499.248979627     A.U. after   13 cycles
 SCF Done:  E(RB3LYP) =  -499.249574584     A.U. after   13 cycles
 SCF Done:  E(RB3LYP) =  -499.251172075     A.U. after   13 cycles
 SCF Done:  E(RB3LYP) =  -499.251341601     A.U. after   12 cycles
 SCF Done:  E(RB3LYP) =  -499.251454582     A.U. after   12 cycles
 SCF Done:  E(RB3LYP) =  -499.251474321     A.U. after   11 cycles
 SCF Done:  E(RB3LYP) =  -499.251492254     A.U. after   10 cycles
 SCF Done:  E(RB3LYP) =  -499.251500721     A.U. after    9 cycles
 SCF Done:  E(RB3LYP) =  -499.251509046     A.U. after   10 cycles
 SCF Done:  E(RB3LYP) =  -499.251510125     A.U. after    8 cycles
 SCF Done:  E(RB3LYP) =  -499.251510282     A.U. after    8 cycles
 Optimization completed.
    -- Stationary point found.
 Normal termination of Gaussian 16 at Tue Dec  8 19:12:19 2020.

 --------------------------------------------------------------------
 #N Geom=AllCheck Guess=TCheck SCRF=Check GenChk RB3LYP/6-31G(d) Freq
 --------------------------------------------------------------------

 Structure from the checkpoint file:  "JID_1042.chk"
 -------------------------------
 CID_115303296_JID_1042_neutraal
 -------------------------------
 Charge =  0 Multiplicity = 1

 SCF Done:  E(RB3LYP) =  -499.251510282     A.U. after    1 cycles

  Exact polarizability: 116.791   0.121 114.320   0.733  -2.493  76.079
 Approx polarizability: 147.060  11.536 176.276   1.008  -5.961 111.890

                      1                      2                      3
                      A                      A                      A
 Frequencies --     58.4073                80.0231                92.9614
 Red. masses --      3.6050                 3.9825                 3.2220
 Frc consts  --      0.0072                 0.0150                 0.0164
 IR Inten    --      1.8747                 0.9639                 2.3525

                      4                      5                      6
                      A                      A                      A
 Frequencies --    132.1751               148.3472               200.7991
 Red. masses --      1.8733                 2.2257                 2.3407
 Frc consts  --      0.0193                 0.0289                 0.0556
 IR Inten    --      1.9066                 1.1451                 0.0514

                      7                      8                      9
                      A                      A                      A
 Frequencies --    231.4231               233.5774               245.4397
 Red. masses --      1.9341                 1.0553                 2.1403
 Frc consts  --      0.0610                 0.0339                 0.0760
 IR Inten    --      5.3905                 1.3294                 1.0439

                     10                     11                     12
                      A                      A                      A
 Frequencies --    260.1396               290.0257               311.6131
 Red. masses --      3.5079                 1.2307                 2.0147
 Frc consts  --      0.1399                 0.0610                 0.1153
 IR Inten    --      1.3869                 1.3266                15.3867

                     13                     14                     15
                      A                      A                      A
 Frequencies --    337.0439               377.4085               392.9868
 Red. masses --      1.6271                 1.9616                 2.9150
 Frc consts  --      0.1089                 0.1646                 0.2652
 IR Inten    --     24.9381                22.7643                 8.0300

                     16                     17                     18
                      A                      A                      A
 Frequencies --    431.5534               455.9126               490.9608
 Red. masses --      2.1277                 2.3733                 3.0465
 Frc consts  --      0.2335                 0.2906                 0.4327
 IR Inten    --      1.3057                 5.1391                 7.0133

                     19                     20                     21
                      A                      A                      A
 Frequencies --    549.2958               624.4532               660.8659
 Red. masses --      3.5609                 1.8100                 2.5447
 Frc consts  --      0.6330                 0.4158                 0.6548
 IR Inten    --     14.8957                67.0138                 1.3685

                     22                     23                     24
                      A                      A                      A
 Frequencies --    743.9648               770.8686               838.5552
 Red. masses --      2.1008                 3.8332                 2.1549
 Frc consts  --      0.6851                 1.3420                 0.8928
 IR Inten    --     64.0328                 3.9547                25.7663

                     25                     26                     27
                      A                      A                      A
 Frequencies --    874.7417               913.9080               923.7877
 Red. masses --      2.4812                 1.8627                 1.9278
 Frc consts  --      1.1186                 0.9167                 0.9693
 IR Inten    --      8.5819                 3.1208                43.6070

                     28                     29                     30
                      A                      A                      A
 Frequencies --    948.7212               970.7954               979.1995
 Red. masses --      1.5243                 1.3864                 1.8038
 Frc consts  --      0.8084                 0.7699                 1.0190
 IR Inten    --     15.4815                44.5902                 9.5159

                     31                     32                     33
                      A                      A                      A
 Frequencies --   1001.7323              1037.7960              1043.1589
 Red. masses --      1.6086                 1.2490                 1.2834
 Frc consts  --      0.9510                 0.7925                 0.8228
 IR Inten    --      8.3736                10.0014                25.1873

                     34                     35                     36
                      A                      A                      A
 Frequencies --   1104.5004              1113.6750              1138.6032
 Red. masses --      1.5594                 1.6610                 2.0037
 Frc consts  --      1.1208                 1.2138                 1.5305
 IR Inten    --     24.1567                 8.6655                 6.1738

                     37                     38                     39
                      A                      A                      A
 Frequencies --   1154.0798              1218.3429              1279.6338
 Red. masses --      2.0540                 2.2515                 2.8358
 Frc consts  --      1.6119                 1.9691                 2.7359
 IR Inten    --      7.0700                99.4191                17.3101

                     40                     41                     42
                      A                      A                      A
 Frequencies --   1319.3112              1322.2429              1341.7902
 Red. masses --      1.6710                 1.2795                 1.5380
 Frc consts  --      1.7137                 1.3180                 1.6315
 IR Inten    --     45.0198                 0.9702                35.0526

                     43                     44                     45
                      A                      A                      A
 Frequencies --   1377.7741              1392.1606              1420.3331
 Red. masses --      1.5430                 1.7088                 1.4114
 Frc consts  --      1.7257                 1.9513                 1.6775
 IR Inten    --     32.7061                96.1627                46.8814

                     46                     47                     48
                      A                      A                      A
 Frequencies --   1430.8514              1439.0813              1446.0695
 Red. masses --      1.4897                 1.2578                 1.2424
 Frc consts  --      1.7970                 1.5347                 1.5306
 IR Inten    --     12.9269                 4.0771                 3.4613

                     49                     50                     51
                      A                      A                      A
 Frequencies --   1491.5352              1507.8248              1511.9817
 Red. masses --      1.5937                 1.0464                 1.0602
 Frc consts  --      2.0889                 1.4017                 1.4280
 IR Inten    --     53.9151                 6.4111                 0.3936

                     52                     53                     54
                      A                      A                      A
 Frequencies --   1516.1081              1519.7973              1524.1946
 Red. masses --      1.0615                 1.0750                 1.0711
 Frc consts  --      1.4375                 1.4630                 1.4660
 IR Inten    --      7.7313                 1.6390                 1.2297

                     55                     56                     57
                      A                      A                      A
 Frequencies --   1533.5691              1541.5528              1679.3217
 Red. masses --      1.0659                 1.0619                 1.0992
 Frc consts  --      1.4769                 1.4868                 1.8264
 IR Inten    --      2.9826                 7.8088                44.6246

                     58                     59                     60
                      A                      A                      A
 Frequencies --   1720.1512              1767.7289              3031.4152
 Red. masses --      5.6633                 6.6092                 1.0687
 Frc consts  --      9.8731                12.1683                 5.7863
 IR Inten    --     58.9947               341.7498                34.9987

                     61                     62                     63
                      A                      A                      A
 Frequencies --   3034.4374              3037.9549              3049.8807
 Red. masses --      1.0373                 1.0380                 1.0372
 Frc consts  --      5.6275                 5.6443                 5.6844
 IR Inten    --     26.9083                26.4037                29.7338

                     64                     65                     66
                      A                      A                      A
 Frequencies --   3081.6438              3103.9961              3109.3992
 Red. masses --      1.0994                 1.1021                 1.1022
 Frc consts  --      6.1515                 6.2562                 6.2785
 IR Inten    --     19.2184                11.0580                32.9270

                     67                     68                     69
                      A                      A                      A
 Frequencies --   3113.3991              3121.2459              3131.0078
 Red. masses --      1.1011                 1.1008                 1.1026
 Frc consts  --      6.2883                 6.3184                 6.3688
 IR Inten    --     47.9418                34.0858                23.5046

                     70                     71                     72
                      A                      A                      A
 Frequencies --   3154.6381              3163.2236              3180.8761
 Red. masses --      1.0945                 1.0912                 1.0875
 Frc consts  --      6.4176                 6.4328                 6.4830
 IR Inten    --     11.2999                11.1678                 6.4001

                     73                     74                     75
                      A                      A                      A
 Frequencies --   3453.3965              3537.7588              3575.1977
 Red. masses --      1.0493                 1.0920                 1.0748
 Frc consts  --      7.3728                 8.0528                 8.0941
 IR Inten    --      1.5816                 0.1666                14.8692

 - Thermochemistry -
 -------------------
 Temperature   298.150 Kelvin.  Pressure   1.00000 Atm.
 Atom     1 has atomic number  6 and mass  12.00000

 Molecular mass:   156.12626 amu.
 Principal axes and moments of inertia in atomic units:
                           1         2         3
     Eigenvalues --  1299.495592533.570013410.09752
           X            0.99868  -0.05127  -0.00065
           Y            0.05127   0.99868   0.00350
           Z            0.00047  -0.00353   0.99999
 This molecule is an asymmetric top.
 Rotational symmetry number  1.
 Warning -- assumption of classical behavior for rotation
           may cause significant error
 Rotational temperatures (Kelvin)      0.06665     0.03419     0.02540
 Rotational constants (GHZ):           1.38880     0.71233     0.52923
 Zero-point vibrational energy     630099.0 (Joules/Mol)
                                  150.59728 (Kcal/Mol)
 Warning -- explicit consideration of  19 degrees of freedom as
           vibrations may cause significant error
 Vibrational temperatures:     84.04   115.14   133.75   190.17   213.44
          (Kelvin)            288.91   332.97   336.07   353.13   374.28
                              417.28   448.34   484.93   543.01   565.42
                              620.91   655.96   706.38   790.31   898.45
                              950.84  1070.40  1109.11  1206.49  1258.56
                             1314.91  1329.12  1365.00  1396.76  1408.85
                             1441.27  1493.16  1500.87  1589.13  1602.33
                             1638.20  1660.46  1752.92  1841.11  1898.19
                             1902.41  1930.54  1982.31  2003.01  2043.54
                             2058.68  2070.52  2080.57  2145.99  2169.42
                             2175.40  2181.34  2186.65  2192.98  2206.46
                             2217.95  2416.17  2474.91  2543.37  4361.53
                             4365.88  4370.94  4388.10  4433.80  4465.96
                             4473.73  4479.49  4490.78  4504.82  4538.82
                             4551.17  4576.57  4968.67  5090.05  5143.91

 Zero-point correction=                           0.239992 (Hartree/Particle)
 Thermal correction to Energy=                    0.253000
 Thermal correction to Enthalpy=                  0.253944
 Thermal correction to Gibbs Free Energy=         0.201369
 Sum of electronic and zero-point Energies=           -499.011518
 Sum of electronic and thermal Energies=              -498.998510
 Sum of electronic and thermal Enthalpies=            -498.997566
 Sum of electronic and thermal Free Energies=         -499.050141

                     E (Thermal)             CV                S
                      KCal/Mol        Cal/Mol-Kelvin    Cal/Mol-Kelvin
 Total                  158.760             48.479            110.654
 Electronic               0.000              0.000              0.000
 Translational            0.889              2.981             41.046
 Rotational               0.889              2.981             30.796
 Vibrational            156.982             42.517             38.811
 Vibration     1          0.596              1.974              4.510
 Vibration     2          0.600              1.963              3.890
 Vibration     3          0.602              1.954              3.597
 Vibration     4          0.612              1.921              2.914
 Vibration     5          0.618              1.904              2.693
 Vibration     6          0.638              1.839              2.126
 Vibration     7          0.653              1.793              1.868
 Vibration     8          0.654              1.790              1.851
 Vibration     9          0.660              1.770              1.763
 Vibration    10          0.668              1.746              1.661
 Vibration    11          0.686              1.692              1.474
 Vibration    12          0.700              1.652              1.354
 Vibration    13          0.718              1.602              1.226
 Vibration    14          0.748              1.518              1.050
 Vibration    15          0.760              1.485              0.989
 Vibration    16          0.793              1.402              0.854
 Vibration    17          0.814              1.348              0.778
 Vibration    18          0.847              1.270              0.681
 Vibration    19          0.905              1.141              0.546

 Optimization completed.
    -- Stationary point found.
 Normal termination of Gaussian 16 at Tue Dec  8 19:17:38 2020.

 ----------------------------------------------------------------------
 # B3LYP/6-311++G(d,p) empiricaldispersion=gd3bj scf=xqc pop=npa geom=c
 heck
 ----------------------------------------------------------------------

 ---------------------------------------
 CID_115303296_JID_1042_Energie_neutraal
 ---------------------------------------
 Structure from the checkpoint file:  "JID_1042.chk"
 Charge =  0 Multiplicity = 1

 SCF Done:  E(RB3LYP) =  -499.407743000     A.U. after   14 cycles
 Normal termination of Gaussian 16 at Tue Dec  8 19:19:33 2020.

 ----------------------------------------------------------------------
 # B3LYP/6-311++G(d,p) empiricaldispersion=gd3bj scf=xqc pop=npa geom=c
 heck
 ----------------------------------------------------------------------

 -------------------------------------
 CID_115303296_JID_1042_Energie_kation
 -------------------------------------
 Structure from the checkpoint file:  "JID_1042.chk"
 Charge =  1 Multiplicity = 2

 SCF Done:  E(UB3LYP) =  -499.092502891     A.U. after   26 cycles
 Normal termination of Gaussian 16 at Tue Dec  8 19:24:17 2020.
 Gaussian 16:  ES64L-G16RevA.03 25-Dec-2016

 ----------------------------------------------------------------------
 # B3LYP/6-311++G(d,p) empiricaldispersion=gd3bj scf=xqc pop=npa geom=c
 heck
 ----------------------------------------------------------------------

 ------------------------------------
 CID_115303296_JID_1042_Energie_anion
 ------------------------------------
 Structure from the checkpoint file:  "JID_1042.chk"
 Charge = -1 Multiplicity = 2

                         Standard orientation:
 ---------------------------------------------------------------------
 Center     Atomic      Atomic             Coordinates (Angstroms)
 Number     Number       Type             X           Y           Z
 ---------------------------------------------------------------------
      1          6           0        2.904927   -2.220241    0.057375
      2          6           0        1.941715   -1.074937    0.145888
      3          6           0        2.236620    0.174417   -0.238186
      4          6           0        1.401145    1.394311   -0.064560
      5          8           0        1.938076    2.470912    0.183128
      6          7           0        0.021187    1.318215   -0.142952
      7          6           0       -0.787982    0.341354   -0.860886
      8          6           0       -1.897967   -0.281694    0.013093
      9          6           0       -2.928001    0.792801    0.410872
     10          6           0       -2.580770   -1.395707   -0.786878
     11          7           0       -1.242292   -0.889342    1.183675
     12          1           0        3.859865   -1.919287   -0.385329
     13          1           0        2.485199   -3.037096   -0.544812
     14          1           0        3.103150   -2.639551    1.052820
     15          1           0        0.962427   -1.300051    0.568677
     16          1           0        3.232802    0.410985   -0.606549
     17          1           0       -0.379479    2.244598   -0.047346
     18          1           0       -1.252613    0.817768   -1.735487
     19          1           0       -0.128918   -0.445783   -1.225994
     20          1           0       -3.403842    1.246306   -0.467536
     21          1           0       -3.719457    0.353391    1.029529
     22          1           0       -2.456124    1.591517    0.995202
     23          1           0       -1.859745   -2.178703   -1.041822
     24          1           0       -3.388033   -1.853789   -0.202895
     25          1           0       -3.020307   -1.004714   -1.711306
     26          1           0       -0.780410   -0.148427    1.711818
     27          1           0       -1.949509   -1.288390    1.800643
 ---------------------------------------------------------------------

 SCF Done:  E(UB3LYP) =  -499.398003127     A.U. after   33 cycles
 SCF Done:  E(UB3LYP) =  -499.398003127     a.u. after    1 cycles

 The electronic state is 2-A.
 Alpha  occ. eigenvalues --  -18.96939 -14.22065 -14.18279 -10.15511 -10.10229
 Alpha  occ. eigenvalues --  -10.09475 -10.07122 -10.06625 -10.06028 -10.05105
 Alpha  occ. eigenvalues --  -10.05079  -0.92124  -0.81538  -0.77724  -0.69205
 Alpha  occ. eigenvalues --   -0.65793  -0.60473  -0.58565  -0.58125  -0.49299
 Alpha  occ. eigenvalues --   -0.45712  -0.45032  -0.39541  -0.38727  -0.37534
 Alpha  occ. eigenvalues --   -0.35227  -0.33009  -0.31970  -0.31566  -0.31343
 Alpha  occ. eigenvalues --   -0.30415  -0.29260  -0.28232  -0.27845  -0.27126
 Alpha  occ. eigenvalues --   -0.26191  -0.24564  -0.23726  -0.23506  -0.16044
 Alpha  occ. eigenvalues --   -0.15134  -0.14324  -0.13317   0.04523
 Alpha virt. eigenvalues --    0.06885   0.07167   0.08111   0.08670   0.09884
 Alpha virt. eigenvalues --    0.09938   0.10440   0.11073   0.11654   0.12101
 Alpha virt. eigenvalues --    0.12424   0.13460   0.14308   0.14955   0.15375

  Beta  occ. eigenvalues --  -18.96857 -14.22065 -14.18239 -10.15442 -10.10229
  Beta  occ. eigenvalues --  -10.09453 -10.07120 -10.06481 -10.06021 -10.05064
  Beta  occ. eigenvalues --  -10.05029  -0.91980  -0.81491  -0.77662  -0.69013
  Beta  occ. eigenvalues --   -0.65727  -0.60375  -0.58489  -0.58057  -0.49098
  Beta  occ. eigenvalues --   -0.45606  -0.44942  -0.39476  -0.38678  -0.37450
  Beta  occ. eigenvalues --   -0.35171  -0.32889  -0.31814  -0.31485  -0.31285
  Beta  occ. eigenvalues --   -0.30331  -0.29109  -0.28157  -0.27725  -0.27070
  Beta  occ. eigenvalues --   -0.26123  -0.24489  -0.23646  -0.23434  -0.15720
  Beta  occ. eigenvalues --   -0.14977  -0.14179  -0.13159
  Beta virt. eigenvalues --    0.06953   0.07586   0.08095   0.09070   0.09181
  Beta virt. eigenvalues --    0.10116   0.10344   0.10833   0.11541   0.12089
  Beta virt. eigenvalues --    0.12320   0.12825   0.13680   0.14486   0.15160

 Mulliken charges and spin densities:
               1          2
     1  C   -0.137562  -0.569617
     2  C    0.067093   0.118011
     3  C   -0.005673   0.058934
     4  C   -0.321433   0.131785
     5  O   -0.375245   0.035379
     6  N   -0.335355   0.153768
     7  C    1.384216  -1.739725
     8  C   -2.423098   2.312089
     9  C    1.123601  -1.669989
    10  C    1.101939  -1.517755
    11  N   -0.210347  -0.051914
    12  H    0.099153   0.036565
    13  H   -0.137686   0.290619
    14  H    0.053899   0.081590
    15  H    0.415464  -0.152728
    16  H    0.156951   0.028481
    17  H    0.162545   0.136530
    18  H   -0.336305   0.535866
    19  H    0.246606  -0.100382
    20  H   -0.209134   0.364158
    21  H   -0.506253   0.655618
    22  H   -0.048041   0.168533
    23  H   -0.125876   0.270162
    24  H   -0.453478   0.600840
    25  H   -0.154321   0.295399
    26  H   -0.006904   0.236970
    27  H   -0.024757   0.290812
 Sum of Mulliken charges =  -1.00000   1.00000

 Dipole moment (field-independent basis, Debye):
    X=              4.1035    Y=             -0.5651    Z=             -0.4174  Tot=              4.1632
 Quadrupole moment (field-independent basis, Debye-Ang):
   XX=           -129.4959   YY=           -111.6343   ZZ=            -98.5409
   XY=            -10.4014   XZ=              0.0786   YZ=             -0.6898

 Summary of Natural Population Analysis:

                                       Natural Population
                Natural  -----------------------------------------------
    Atom  No    Charge         Core      Valence    Rydberg      Total
 -----------------------------------------------------------------------
      C    1   -0.30119      0.99965     2.29667    0.00487     3.30119
      C    2   -0.04656      0.99954     2.03935    0.00768     3.04656
      C    3   -0.15438      0.99947     2.14542    0.00949     3.15438
      C    4    0.33785      0.99964     1.64085    0.02166     2.66215
      O    5   -0.32101      0.99988     3.31535    0.00578     4.32101
      N    6   -0.32787      0.99967     2.81853    0.00966     3.82787
      C    7   -0.08990      0.99954     2.07810    0.01226     3.08990
      C    8    0.04356      0.99959     1.94271    0.01414     2.95644
      C    9   -0.29558      0.99962     2.28829    0.00768     3.29558
      C   10   -0.28720      0.99961     2.27991    0.00767     3.28720
      N   11   -0.43045      0.99975     2.91890    0.01180     3.93045
      H   12    0.09576      0.00000     0.40316    0.00108     0.40424
      H   13    0.10500      0.00000     0.39331    0.00169     0.39500
      H   14    0.10173      0.00000     0.39701    0.00126     0.39827
      H   15    0.11072      0.00000     0.38701    0.00227     0.38928
      H   16    0.09809      0.00000     0.40076    0.00114     0.40191
      H   17    0.19162      0.00000     0.30582    0.00256     0.30838
      H   18    0.09537      0.00000     0.40326    0.00137     0.40463
      H   19    0.10798      0.00000     0.39013    0.00189     0.39202
      H   20    0.10115      0.00000     0.39728    0.00158     0.39885
      H   21    0.10292      0.00000     0.39507    0.00200     0.39708
      H   22    0.09802      0.00000     0.40031    0.00166     0.40198
      H   23    0.10256      0.00000     0.39598    0.00146     0.39744
      H   24    0.10204      0.00000     0.39652    0.00144     0.39796
      H   25    0.10206      0.00000     0.39641    0.00153     0.39794
      H   26    0.17945      0.00000     0.31836    0.00219     0.32055
      H   27    0.17825      0.00000     0.31937    0.00238     0.32175
 =======================================================================
   * Total *   -0.00000     10.99598    31.86382    0.14020    43.00000

 Normal termination of Gaussian 16 at Tue Dec  8 19:30:22 2020.
