 Gaussian 16, Revision A.03,

 -----------------------------------------------------------
 # opt freq B3LYP/6-31G(d) empiricaldispersion=gd3bj scf=xqc
 -----------------------------------------------------------

 ------------------------------
 CID_11052175_JID_3733_neutraal
 ------------------------------
 Symbolic Z-matrix:
 Charge =  0 Multiplicity = 1

 SCF Done:  E(RB3LYP) =  -522.290006919     A.U. after   14 cycles
 SCF Done:  E(RB3LYP) =  -522.292926181     A.U. after   11 cycles
 SCF Done:  E(RB3LYP) =  -522.293413901     A.U. after   11 cycles
 SCF Done:  E(RB3LYP) =  -522.293494376     A.U. after   10 cycles
 SCF Done:  E(RB3LYP) =  -522.293518705     A.U. after   10 cycles
 SCF Done:  E(RB3LYP) =  -522.293535561     A.U. after    9 cycles
 SCF Done:  E(RB3LYP) =  -522.293548650     A.U. after    9 cycles
 SCF Done:  E(RB3LYP) =  -522.293554261     A.U. after    8 cycles
 SCF Done:  E(RB3LYP) =  -522.293555028     A.U. after    7 cycles
 SCF Done:  E(RB3LYP) =  -522.293555275     A.U. after    6 cycles
 SCF Done:  E(RB3LYP) =  -522.293555342     A.U. after    6 cycles
 Optimization completed.
    -- Stationary point found.
 Normal termination of Gaussian 16 at Mon Dec 14 18:42:53 2020.

 --------------------------------------------------------------------
 #N Geom=AllCheck Guess=TCheck SCRF=Check GenChk RB3LYP/6-31G(d) Freq
 --------------------------------------------------------------------

 Structure from the checkpoint file:  "JID_3733.chk"
 ------------------------------
 CID_11052175_JID_3733_neutraal
 ------------------------------
 Charge =  0 Multiplicity = 1

 SCF Done:  E(RB3LYP) =  -522.293555342     A.U. after    1 cycles

  Exact polarizability: 156.055  -3.948 129.368   3.838  -4.136  86.290
 Approx polarizability: 206.467  -9.770 206.301   6.626  -8.748 134.494

                      1                      2                      3
                      A                      A                      A
 Frequencies --     43.3886                68.3192               128.2083
 Red. masses --      2.8108                 3.5326                 3.1504
 Frc consts  --      0.0031                 0.0097                 0.0305
 IR Inten    --      0.0912                 0.1101                 0.5455

                      4                      5                      6
                      A                      A                      A
 Frequencies --    162.0460               177.5095               200.4830
 Red. masses --      2.8818                 1.9077                 1.3492
 Frc consts  --      0.0446                 0.0354                 0.0320
 IR Inten    --      0.0684                 0.6382                 0.8087

                      7                      8                      9
                      A                      A                      A
 Frequencies --    233.1581               250.4786               264.2426
 Red. masses --      1.4416                 1.8502                 1.1183
 Frc consts  --      0.0462                 0.0684                 0.0460
 IR Inten    --      0.6405                 0.2485                 0.2250

                     10                     11                     12
                      A                      A                      A
 Frequencies --    289.3079               316.4189               342.1182
 Red. masses --      2.1176                 2.5330                 3.5023
 Frc consts  --      0.1044                 0.1494                 0.2415
 IR Inten    --      0.2115                 0.7695                 0.2837

                     13                     14                     15
                      A                      A                      A
 Frequencies --    357.8685               401.1272               457.9881
 Red. masses --      2.6384                 3.5687                 3.2187
 Frc consts  --      0.1991                 0.3383                 0.3978
 IR Inten    --      0.2732                 1.1330                 5.2677

                     16                     17                     18
                      A                      A                      A
 Frequencies --    526.3904               552.2632               572.1591
 Red. masses --      2.5564                 3.1055                 2.8730
 Frc consts  --      0.4173                 0.5581                 0.5541
 IR Inten    --      3.1212                 3.2916                 1.6356

                     19                     20                     21
                      A                      A                      A
 Frequencies --    615.7660               640.4665               686.0057
 Red. masses --      4.3353                 1.8611                 1.2306
 Frc consts  --      0.9685                 0.4498                 0.3412
 IR Inten    --      0.7075                 0.3746                32.4627

                     22                     23                     24
                      A                      A                      A
 Frequencies --    706.3818               722.8439               768.6121
 Red. masses --      3.1764                 1.8443                 2.1864
 Frc consts  --      0.9338                 0.5678                 0.7610
 IR Inten    --     11.5947                 0.6253                 8.7575

                     25                     26                     27
                      A                      A                      A
 Frequencies --    770.5737               788.3752               841.2019
 Red. masses --      1.9305                 1.8214                 1.2442
 Frc consts  --      0.6754                 0.6670                 0.5187
 IR Inten    --     11.1346                 0.5633                 0.5143

                     28                     29                     30
                      A                      A                      A
 Frequencies --    918.1430               921.6200               924.4953
 Red. masses --      3.4216                 1.9835                 1.6728
 Frc consts  --      1.6994                 0.9926                 0.8424
 IR Inten    --      3.5422                13.0539                21.5048

                     31                     32                     33
                      A                      A                      A
 Frequencies --    953.5110               965.7043               997.9710
 Red. masses --      1.7727                 1.8928                 2.2919
 Frc consts  --      0.9496                 1.0400                 1.3449
 IR Inten    --      1.7485                 3.7593                 2.7688

                     34                     35                     36
                      A                      A                      A
 Frequencies --   1010.4625              1031.4360              1038.9075
 Red. masses --      1.4084                 1.5030                 1.4327
 Frc consts  --      0.8472                 0.9421                 0.9111
 IR Inten    --      0.1281                 0.9576                 3.7969

                     37                     38                     39
                      A                      A                      A
 Frequencies --   1051.1664              1082.9939              1089.6691
 Red. masses --      1.4133                 1.5482                 1.7825
 Frc consts  --      0.9201                 1.0699                 1.2470
 IR Inten    --      1.3416                 1.6229                 2.9775

                     40                     41                     42
                      A                      A                      A
 Frequencies --   1099.7007              1131.8364              1174.1510
 Red. masses --      1.8795                 2.4221                 2.0258
 Frc consts  --      1.3392                 1.8281                 1.6455
 IR Inten    --     12.1286                 0.8395                 4.4774

                     43                     44                     45
                      A                      A                      A
 Frequencies --   1190.3090              1238.1083              1258.4518
 Red. masses --      1.8463                 1.6694                 1.8610
 Frc consts  --      1.5413                 1.5078                 1.7364
 IR Inten    --     12.7915                 0.3254                11.5447

                     46                     47                     48
                      A                      A                      A
 Frequencies --   1270.8873              1279.7281              1320.2186
 Red. masses --      1.7227                 2.0473                 1.7871
 Frc consts  --      1.6394                 1.9755                 1.8353
 IR Inten    --      3.9663                11.3531                18.7577

                     49                     50                     51
                      A                      A                      A
 Frequencies --   1338.5065              1351.2319              1414.8591
 Red. masses --      1.3980                 2.9544                 1.8002
 Frc consts  --      1.4757                 3.1782                 2.1232
 IR Inten    --      0.5287                31.4378                 3.0271

                     52                     53                     54
                      A                      A                      A
 Frequencies --   1429.1140              1439.6798              1447.6738
 Red. masses --      1.2316                 1.2819                 3.9002
 Frc consts  --      1.4820                 1.5654                 4.8160
 IR Inten    --      6.7371                 6.1499                 4.3894

                     55                     56                     57
                      A                      A                      A
 Frequencies --   1451.7072              1466.4712              1478.1000
 Red. masses --      1.2595                 4.1851                 1.2513
 Frc consts  --      1.5639                 5.3027                 1.6107
 IR Inten    --      4.5538                 0.7416                 2.1639

                     58                     59                     60
                      A                      A                      A
 Frequencies --   1508.7397              1511.4505              1514.1722
 Red. masses --      1.0564                 1.1435                 1.9570
 Frc consts  --      1.4168                 1.5392                 2.6435
 IR Inten    --      0.4257                 6.1431                33.1187

                     61                     62                     63
                      A                      A                      A
 Frequencies --   1516.5579              1525.6176              1534.1971
 Red. masses --      1.0636                 1.0561                 1.1158
 Frc consts  --      1.4413                 1.4483                 1.5473
 IR Inten    --      1.6781                16.0712                 4.1553

                     64                     65                     66
                      A                      A                      A
 Frequencies --   1539.4342              1553.1955              1601.0994
 Red. masses --      1.0627                 1.2360                 5.3001
 Frc consts  --      1.4838                 1.7568                 8.0052
 IR Inten    --      7.6198                 2.1528                 1.5662

                     67                     68                     69
                      A                      A                      A
 Frequencies --   1732.0511              3020.1796              3044.2819
 Red. masses --      4.7109                 1.0826                 1.0380
 Frc consts  --      8.3267                 5.8182                 5.6678
 IR Inten    --     17.1857                13.9537                13.6110

                     70                     71                     72
                      A                      A                      A
 Frequencies --   3051.4875              3056.6549              3057.8604
 Red. masses --      1.0353                 1.0388                 1.0587
 Frc consts  --      5.6799                 5.7185                 5.8325
 IR Inten    --     18.9964                43.0004                39.1762

                     73                     74                     75
                      A                      A                      A
 Frequencies --   3096.3457              3109.4379              3117.0502
 Red. masses --      1.0990                 1.1028                 1.1018
 Frc consts  --      6.2081                 6.2821                 6.3070
 IR Inten    --     18.6700                26.8157                14.9129

                     76                     77                     78
                      A                      A                      A
 Frequencies --   3122.3720              3127.7751              3129.2841
 Red. masses --      1.1023                 1.1027                 1.1014
 Frc consts  --      6.3317                 6.3558                 6.3546
 IR Inten    --     39.1323                24.1002                49.5023

                     79                     80                     81
                      A                      A                      A
 Frequencies --   3136.3387              3171.9327              3245.8407
 Red. masses --      1.1006                 1.0620                 1.0895
 Frc consts  --      6.3788                 6.2956                 6.7630
 IR Inten    --     24.6220                11.3932                 6.9743

                     82                     83                     84
                      A                      A                      A
 Frequencies --   3248.7366              3260.3071              3278.8260
 Red. masses --      1.1131                 1.0966                 1.1018
 Frc consts  --      6.9218                 6.8675                 6.9786
 IR Inten    --     19.3781                 8.6015                 6.5031

 - Thermochemistry -
 -------------------
 Temperature   298.150 Kelvin.  Pressure   1.00000 Atm.
 Atom     1 has atomic number  6 and mass  12.00000

 Molecular mass:   175.13610 amu.
 Principal axes and moments of inertia in atomic units:
                           1         2         3
     Eigenvalues --  1162.670512984.056243601.86347
           X            0.99999   0.00447  -0.00165
           Y           -0.00449   0.99993  -0.01134
           Z            0.00160   0.01134   0.99993
 This molecule is an asymmetric top.
 Rotational symmetry number  1.
 Warning -- assumption of classical behavior for rotation
           may cause significant error
 Rotational temperatures (Kelvin)      0.07450     0.02903     0.02405
 Rotational constants (GHZ):           1.55224     0.60479     0.50106
 Zero-point vibrational energy     696595.9 (Joules/Mol)
                                  166.49042 (Kcal/Mol)
 Warning -- explicit consideration of  19 degrees of freedom as
           vibrations may cause significant error
 Vibrational temperatures:     62.43    98.30   184.46   233.15   255.40
          (Kelvin)            288.45   335.46   360.38   380.19   416.25
                              455.26   492.23   514.89   577.13   658.94
                              757.36   794.58   823.21   885.95   921.49
                              987.01  1016.33  1040.01  1105.86  1108.68
                             1134.30  1210.30  1321.00  1326.01  1330.14
                             1371.89  1389.43  1435.86  1453.83  1484.01
                             1494.76  1512.39  1558.19  1567.79  1582.22
                             1628.46  1689.34  1712.59  1781.36  1810.63
                             1828.52  1841.24  1899.50  1925.81  1944.12
                             2035.67  2056.18  2071.38  2082.88  2088.68
                             2109.92  2126.66  2170.74  2174.64  2178.56
                             2181.99  2195.02  2207.37  2214.90  2234.70
                             2303.62  2492.04  4345.36  4380.04  4390.41
                             4397.84  4399.58  4454.95  4473.79  4484.74
                             4492.40  4500.17  4502.34  4512.49  4563.70
                             4670.04  4674.21  4690.85  4717.50

 Zero-point correction=                           0.265319 (Hartree/Particle)
 Thermal correction to Energy=                    0.278064
 Thermal correction to Enthalpy=                  0.279008
 Thermal correction to Gibbs Free Energy=         0.226920
 Sum of electronic and zero-point Energies=           -522.028236
 Sum of electronic and thermal Energies=              -522.015491
 Sum of electronic and thermal Enthalpies=            -522.014547
 Sum of electronic and thermal Free Energies=         -522.066635

                     E (Thermal)             CV                S
                      KCal/Mol        Cal/Mol-Kelvin    Cal/Mol-Kelvin
 Total                  174.488             50.402            109.628
 Electronic               0.000              0.000              0.000
 Translational            0.889              2.981             41.388
 Rotational               0.889              2.981             30.903
 Vibrational            172.710             44.440             37.337
 Vibration     1          0.595              1.980              5.098
 Vibration     2          0.598              1.969              4.201
 Vibration     3          0.611              1.925              2.973
 Vibration     4          0.622              1.889              2.526
 Vibration     5          0.628              1.870              2.354
 Vibration     6          0.638              1.839              2.129
 Vibration     7          0.654              1.790              1.854
 Vibration     8          0.663              1.762              1.727
 Vibration     9          0.671              1.738              1.634
 Vibration    10          0.686              1.694              1.478
 Vibration    11          0.703              1.642              1.329
 Vibration    12          0.721              1.591              1.202
 Vibration    13          0.733              1.559              1.131
 Vibration    14          0.767              1.468              0.959
 Vibration    15          0.816              1.343              0.772
 Vibration    16          0.881              1.192              0.595
 Vibration    17          0.908              1.135              0.540
 Vibration    18          0.928              1.091              0.500
 Vibration    19          0.975              0.999              0.423

                           ! Non-Optimized Parameters !
 Normal termination of Gaussian 16 at Mon Dec 14 18:51:46 2020.

 ----------------------------------------------------------------------
 # B3LYP/6-311++G(d,p) empiricaldispersion=gd3bj scf=xqc pop=npa geom=c
 heck
 ----------------------------------------------------------------------

 --------------------------------------
 CID_11052175_JID_3733_Energie_neutraal
 --------------------------------------
 Structure from the checkpoint file:  "JID_3733.chk"
 Charge =  0 Multiplicity = 1

 SCF Done:  E(RB3LYP) =  -522.432229913     A.U. after   14 cycles
 Normal termination of Gaussian 16 at Mon Dec 14 18:55:47 2020.

 ----------------------------------------------------------------------
 # B3LYP/6-311++G(d,p) empiricaldispersion=gd3bj scf=xqc pop=npa geom=c
 heck
 ----------------------------------------------------------------------

 ------------------------------------
 CID_11052175_JID_3733_Energie_kation
 ------------------------------------
 Structure from the checkpoint file:  "JID_3733.chk"
 Charge =  1 Multiplicity = 2

 SCF Done:  E(UB3LYP) =  -522.156051740     A.U. after   22 cycles
 Normal termination of Gaussian 16 at Mon Dec 14 19:04:36 2020.
 Gaussian 16:  ES64L-G16RevA.03 25-Dec-2016

 ----------------------------------------------------------------------
 # B3LYP/6-311++G(d,p) empiricaldispersion=gd3bj scf=xqc pop=npa geom=c
 heck
 ----------------------------------------------------------------------

 -----------------------------------
 CID_11052175_JID_3733_Energie_anion
 -----------------------------------
 Structure from the checkpoint file:  "JID_3733.chk"
 Charge = -1 Multiplicity = 2

                         Standard orientation:
 ---------------------------------------------------------------------
 Center     Atomic      Atomic             Coordinates (Angstroms)
 Number     Number       Type             X           Y           Z
 ---------------------------------------------------------------------
      1          6           0        3.279974    0.439952   -0.663825
      2          6           0        2.302887   -0.575062   -0.119434
      3          6           0        2.739419   -1.596512    0.625103
      4          6           0        0.853284   -0.369073   -0.499438
      5          6           0       -0.096383   -1.556056   -0.208022
      6          7           0       -1.392321   -0.904172   -0.197342
      7          6           0       -2.702057   -1.313833   -0.223458
      8          6           0       -3.479396   -0.183401   -0.040339
      9          6           0       -2.604070    0.936195    0.115844
     10          6           0       -1.316721    0.447927    0.017355
     11          6           0        0.120571    0.891997    0.129738
     12          6           0        0.509591    1.086964    1.607902
     13          6           0        0.356945    2.187095   -0.659975
     14          1           0        4.313702    0.119987   -0.504224
     15          1           0        3.156117    1.416588   -0.181460
     16          1           0        3.129316    0.599325   -1.739054
     17          1           0        2.084154   -2.355720    1.037765
     18          1           0        3.796515   -1.708508    0.851231
     19          1           0        0.821070   -0.209440   -1.586847
     20          1           0       -0.036501   -2.333520   -0.975285
     21          1           0        0.098353   -2.018705    0.766272
     22          1           0       -2.971148   -2.347181   -0.386685
     23          1           0       -4.561108   -0.158195   -0.037364
     24          1           0       -2.894168    1.966351    0.271685
     25          1           0        1.563951    1.366679    1.709741
     26          1           0       -0.103321    1.876484    2.054816
     27          1           0        0.347771    0.170853    2.184944
     28          1           0        0.124159    2.046632   -1.720789
     29          1           0       -0.295625    2.980294   -0.277990
     30          1           0        1.388729    2.540130   -0.574066
 ---------------------------------------------------------------------

 SCF Done:  E(UB3LYP) =  -522.416300786     A.U. after   33 cycles
 SCF Done:  E(UB3LYP) =  -522.416300786     a.u. after    1 cycles

 The electronic state is 2-A.
 Alpha  occ. eigenvalues --  -14.25432 -10.11179 -10.09932 -10.08903 -10.08825
 Alpha  occ. eigenvalues --  -10.08796 -10.08509 -10.06196 -10.06159 -10.06082
 Alpha  occ. eigenvalues --  -10.05922 -10.05699 -10.05517  -0.89478  -0.74839
 Alpha  occ. eigenvalues --   -0.70152  -0.69320  -0.61932  -0.60893  -0.59241
 Alpha  occ. eigenvalues --   -0.58214  -0.55328  -0.49852  -0.46898  -0.43638
 Alpha  occ. eigenvalues --   -0.42246  -0.40528  -0.38681  -0.35774  -0.34719
 Alpha  occ. eigenvalues --   -0.34253  -0.33310  -0.31440  -0.31068  -0.30623
 Alpha  occ. eigenvalues --   -0.30048  -0.29495  -0.28540  -0.27644  -0.27005
 Alpha  occ. eigenvalues --   -0.26233  -0.24918  -0.23424  -0.23148  -0.22798
 Alpha  occ. eigenvalues --   -0.15312  -0.13843  -0.11078   0.04592
 Alpha virt. eigenvalues --    0.06761   0.07163   0.07592   0.08363   0.08753
 Alpha virt. eigenvalues --    0.09759   0.09853   0.10085   0.10683   0.10835
 Alpha virt. eigenvalues --    0.11819   0.12419   0.12710   0.13348   0.13577

  Beta  occ. eigenvalues --  -14.25433 -10.11151 -10.09932 -10.08892 -10.08812
  Beta  occ. eigenvalues --  -10.08794 -10.08508 -10.06170 -10.06114 -10.06057
  Beta  occ. eigenvalues --  -10.05921 -10.05666 -10.05512  -0.89471  -0.74821
  Beta  occ. eigenvalues --   -0.70135  -0.69297  -0.61907  -0.60861  -0.59191
  Beta  occ. eigenvalues --   -0.58149  -0.55275  -0.49821  -0.46868  -0.43605
  Beta  occ. eigenvalues --   -0.42186  -0.40493  -0.38637  -0.35746  -0.34688
  Beta  occ. eigenvalues --   -0.34213  -0.33281  -0.31404  -0.31041  -0.30583
  Beta  occ. eigenvalues --   -0.30023  -0.29471  -0.28523  -0.27621  -0.26963
  Beta  occ. eigenvalues --   -0.26202  -0.24886  -0.23386  -0.23116  -0.22773
  Beta  occ. eigenvalues --   -0.15276  -0.13836  -0.11070
  Beta virt. eigenvalues --    0.06748   0.07576   0.07753   0.08197   0.08907
  Beta virt. eigenvalues --    0.09223   0.10146   0.10377   0.10396   0.11082
  Beta virt. eigenvalues --    0.11318   0.12202   0.12715   0.13100   0.13694

 Mulliken charges and spin densities:
               1          2
     1  C    1.416090  -2.163702
     2  C   -2.147020   2.903183
     3  C    0.698439  -1.293940
     4  C    0.741445  -0.893182
     5  C    0.590893  -1.194099
     6  N    0.174558   0.127235
     7  C   -0.547867   0.551511
     8  C    1.165675  -1.652912
     9  C   -1.196357   1.363312
    10  C    0.241677  -0.711265
    11  C    0.180383   0.347115
    12  C    0.569936  -1.273772
    13  C   -0.039474  -0.661900
    14  H   -0.406032   0.555448
    15  H   -0.173114   0.321870
    16  H   -0.427454   0.581281
    17  H   -0.321406   0.456269
    18  H   -0.466989   0.604374
    19  H    0.092903   0.173282
    20  H   -0.514251   0.714645
    21  H    0.279310  -0.105351
    22  H   -0.575555   0.729129
    23  H    0.075205   0.057792
    24  H   -0.129008   0.276540
    25  H   -0.099666   0.254400
    26  H    0.156880  -0.009872
    27  H   -0.109929   0.275762
    28  H   -0.061663   0.220981
    29  H   -0.156745   0.292944
    30  H   -0.010864   0.152922
 Sum of Mulliken charges =  -1.00000   1.00000

 Dipole moment (field-independent basis, Debye):
    X=             -4.6198    Y=              1.9106    Z=              1.7519  Tot=              5.2974
 Quadrupole moment (field-independent basis, Debye-Ang):
   XX=           -150.0882   YY=           -126.5015   ZZ=           -118.1564
   XY=             -1.3554   XZ=              1.6661   YZ=             -0.6458

 Summary of Natural Population Analysis:

                                       Natural Population
                Natural  -----------------------------------------------
    Atom  No    Charge         Core      Valence    Rydberg      Total
 -----------------------------------------------------------------------
      C    1   -0.29711      0.99961     2.29098    0.00651     3.29711
      C    2    0.00047      0.99951     1.98722    0.01280     2.99953
      C    3   -0.19199      0.99947     2.18466    0.00786     3.19199
      C    4   -0.11661      0.99953     2.10286    0.01422     3.11661
      C    5   -0.07221      0.99960     2.06172    0.01088     3.07221
      N    6   -0.20230      0.99960     2.69210    0.01060     3.70230
      C    7   -0.02605      0.99956     2.01386    0.01263     3.02605
      C    8   -0.14369      0.99958     2.13511    0.00900     3.14369
      C    9   -0.15134      0.99950     2.14374    0.00810     3.15134
      C   10    0.08704      0.99951     1.89853    0.01492     2.91296
      C   11   -0.04648      0.99953     2.03445    0.01249     3.04648
      C   12   -0.28188      0.99962     2.27513    0.00712     3.28188
      C   13   -0.27954      0.99962     2.27244    0.00747     3.27954
      H   14    0.10457      0.00000     0.39406    0.00137     0.39543
      H   15    0.10249      0.00000     0.39584    0.00167     0.39751
      H   16    0.10459      0.00000     0.39353    0.00188     0.39541
      H   17    0.09307      0.00000     0.40542    0.00150     0.40693
      H   18    0.09534      0.00000     0.40344    0.00122     0.40466
      H   19    0.10737      0.00000     0.39025    0.00238     0.39263
      H   20    0.10512      0.00000     0.39312    0.00175     0.39488
      H   21    0.09532      0.00000     0.40291    0.00177     0.40468
      H   22    0.10069      0.00000     0.39817    0.00114     0.39931
      H   23    0.10002      0.00000     0.39931    0.00066     0.39998
      H   24    0.10372      0.00000     0.39550    0.00078     0.39628
      H   25    0.10224      0.00000     0.39680    0.00096     0.39776
      H   26    0.10094      0.00000     0.39815    0.00091     0.39906
      H   27    0.10245      0.00000     0.39650    0.00104     0.39755
      H   28    0.10308      0.00000     0.39566    0.00126     0.39692
      H   29    0.09959      0.00000     0.39950    0.00091     0.40041
      H   30    0.10106      0.00000     0.39770    0.00124     0.39894
 =======================================================================
   * Total *   -0.00000     12.99426    34.84868    0.15707    48.00000

 Normal termination of Gaussian 16 at Mon Dec 14 19:17:16 2020.
