 Gaussian 16, Revision A.03,

 -----------------------------------------------------------
 # opt freq B3LYP/6-31G(d) empiricaldispersion=gd3bj scf=xqc
 -----------------------------------------------------------

 ------------------------------
 CID_84117351_JID_4712_neutraal
 ------------------------------
 Symbolic Z-matrix:
 Charge =  0 Multiplicity = 1

 SCF Done:  E(RB3LYP) =  -618.377435704     A.U. after   13 cycles
 SCF Done:  E(RB3LYP) =  -618.382311197     A.U. after   11 cycles
 SCF Done:  E(RB3LYP) =  -618.383169655     A.U. after   11 cycles
 SCF Done:  E(RB3LYP) =  -618.383681143     A.U. after   10 cycles
 SCF Done:  E(RB3LYP) =  -618.384190977     A.U. after   10 cycles
 SCF Done:  E(RB3LYP) =  -618.385077512     A.U. after   11 cycles
 SCF Done:  E(RB3LYP) =  -618.386451530     A.U. after   10 cycles
 SCF Done:  E(RB3LYP) =  -618.389708796     A.U. after   11 cycles
 SCF Done:  E(RB3LYP) =  -618.386231352     A.U. after   13 cycles
 SCF Done:  E(RB3LYP) =  -618.391250843     A.U. after   10 cycles
 SCF Done:  E(RB3LYP) =  -618.391699425     A.U. after    9 cycles
 SCF Done:  E(RB3LYP) =  -618.391732385     A.U. after   10 cycles
 SCF Done:  E(RB3LYP) =  -618.391739865     A.U. after    8 cycles
 SCF Done:  E(RB3LYP) =  -618.391742675     A.U. after    7 cycles
 SCF Done:  E(RB3LYP) =  -618.391742866     A.U. after    6 cycles
 SCF Done:  E(RB3LYP) =  -618.391742931     A.U. after    6 cycles
 Optimization completed.
    -- Stationary point found.
 Normal termination of Gaussian 16 at Thu Dec 10 10:32:01 2020.

 --------------------------------------------------------------------
 #N Geom=AllCheck Guess=TCheck SCRF=Check GenChk RB3LYP/6-31G(d) Freq
 --------------------------------------------------------------------

 Structure from the checkpoint file:  "JID_4712.chk"
 ------------------------------
 CID_84117351_JID_4712_neutraal
 ------------------------------
 Charge =  0 Multiplicity = 1

 SCF Done:  E(RB3LYP) =  -618.391742931     A.U. after    1 cycles

  Exact polarizability: 144.943  -0.027 138.969  -2.882   0.784 111.683
 Approx polarizability: 184.634   0.055 184.529  -2.907  -1.565 172.861

                      1                      2                      3
                      A                      A                      A
 Frequencies --     63.2574                71.2889                96.3267
 Red. masses --      2.7152                 3.1385                 2.9514
 Frc consts  --      0.0064                 0.0094                 0.0161
 IR Inten    --      0.0899                 0.4730                 0.2218

                      4                      5                      6
                      A                      A                      A
 Frequencies --    108.4067               136.0350               178.7114
 Red. masses --      3.0481                 3.2039                 2.7093
 Frc consts  --      0.0211                 0.0349                 0.0510
 IR Inten    --      0.3255                 2.9961                 3.0194

                      7                      8                      9
                      A                      A                      A
 Frequencies --    216.2909               232.9192               241.1693
 Red. masses --      1.4720                 1.9489                 1.8297
 Frc consts  --      0.0406                 0.0623                 0.0627
 IR Inten    --      1.4719                12.0816                 1.6416

                     10                     11                     12
                      A                      A                      A
 Frequencies --    253.9377               258.0824               266.9495
 Red. masses --      1.1353                 1.2876                 1.3481
 Frc consts  --      0.0431                 0.0505                 0.0566
 IR Inten    --     11.8940                61.8780                 0.4010

                     13                     14                     15
                      A                      A                      A
 Frequencies --    272.6823               276.7950               290.7477
 Red. masses --      1.4351                 1.8813                 2.1982
 Frc consts  --      0.0629                 0.0849                 0.1095
 IR Inten    --      1.5772                 8.6850                11.5405

                     16                     17                     18
                      A                      A                      A
 Frequencies --    312.1835               330.9808               382.2210
 Red. masses --      2.1566                 2.0083                 2.0530
 Frc consts  --      0.1238                 0.1296                 0.1767
 IR Inten    --      1.7476                 0.4409                 0.1686

                     19                     20                     21
                      A                      A                      A
 Frequencies --    389.1417               413.9383               429.3973
 Red. masses --      2.6244                 2.4740                 2.6304
 Frc consts  --      0.2342                 0.2498                 0.2858
 IR Inten    --      0.6078                 1.2130                 4.2005

                     22                     23                     24
                      A                      A                      A
 Frequencies --    474.2811               488.6228               508.8313
 Red. masses --      3.0247                 2.2806                 2.0073
 Frc consts  --      0.4009                 0.3208                 0.3062
 IR Inten    --      3.1159                 0.5967                 3.0337

                     25                     26                     27
                      A                      A                      A
 Frequencies --    561.4875               571.1747               616.3391
 Red. masses --      3.1350                 2.3607                 2.5321
 Frc consts  --      0.5823                 0.4538                 0.5667
 IR Inten    --      5.9514                 1.5998                26.4343

                     28                     29                     30
                      A                      A                      A
 Frequencies --    772.5248               805.4886               834.1569
 Red. masses --      2.7022                 2.9812                 2.5377
 Frc consts  --      0.9502                 1.1396                 1.0404
 IR Inten    --     14.5798                10.8821                28.4805

                     31                     32                     33
                      A                      A                      A
 Frequencies --    864.9401               895.0123               911.3847
 Red. masses --      1.6245                 2.5929                 2.1691
 Frc consts  --      0.7160                 1.2238                 1.0615
 IR Inten    --     20.7334                 5.0241                 7.4771

                     34                     35                     36
                      A                      A                      A
 Frequencies --    932.8660               939.9245               949.7849
 Red. masses --      1.4615                 1.5666                 1.6958
 Frc consts  --      0.7494                 0.8155                 0.9013
 IR Inten    --      0.6847                 0.1964                 5.4786

                     37                     38                     39
                      A                      A                      A
 Frequencies --    953.0055               962.0661               968.5027
 Red. masses --      1.7052                 1.4141                 1.5266
 Frc consts  --      0.9125                 0.7712                 0.8437
 IR Inten    --      7.4270                 0.8676                 0.9612

                     40                     41                     42
                      A                      A                      A
 Frequencies --   1017.1592              1045.7274              1063.0587
 Red. masses --      1.6041                 2.0115                 2.2551
 Frc consts  --      0.9778                 1.2960                 1.5016
 IR Inten    --      6.7107                22.6424                16.7084

                     43                     44                     45
                      A                      A                      A
 Frequencies --   1069.0280              1084.8182              1112.5514
 Red. masses --      2.8118                 2.0893                 2.0172
 Frc consts  --      1.8933                 1.4486                 1.4711
 IR Inten    --     75.1225                25.9928                10.2226

                     46                     47                     48
                      A                      A                      A
 Frequencies --   1123.6727              1146.2443              1155.4067
 Red. masses --      2.6601                 2.2629                 2.1477
 Frc consts  --      1.9789                 1.7517                 1.6893
 IR Inten    --      6.4966                19.0787                13.1308

                     49                     50                     51
                      A                      A                      A
 Frequencies --   1189.1792              1209.3873              1227.8671
 Red. masses --      2.3264                 2.0386                 2.1918
 Frc consts  --      1.9384                 1.7568                 1.9469
 IR Inten    --     42.3127                38.7726                 8.8528

                     52                     53                     54
                      A                      A                      A
 Frequencies --   1235.7411              1241.8227              1255.6565
 Red. masses --      2.3937                 1.7557                 1.6372
 Frc consts  --      2.1536                 1.5952                 1.5209
 IR Inten    --     21.6652                 5.1164                25.9501

                     55                     56                     57
                      A                      A                      A
 Frequencies --   1286.2068              1291.6578              1320.5928
 Red. masses --      1.6578                 1.6776                 1.3076
 Frc consts  --      1.6159                 1.6490                 1.3436
 IR Inten    --     19.7786                 6.8640                 8.0454

                     58                     59                     60
                      A                      A                      A
 Frequencies --   1332.5456              1354.1070              1371.5024
 Red. masses --      1.3000                 1.2404                 1.3225
 Frc consts  --      1.3601                 1.3400                 1.4657
 IR Inten    --      4.4517                 4.3570                 9.3326

                     61                     62                     63
                      A                      A                      A
 Frequencies --   1379.5310              1403.4237              1410.0153
 Red. masses --      1.3195                 1.2967                 1.2694
 Frc consts  --      1.4795                 1.5047                 1.4870
 IR Inten    --      9.5688                45.9000                15.8744

                     64                     65                     66
                      A                      A                      A
 Frequencies --   1415.6036              1421.1294              1423.7257
 Red. masses --      1.2506                 1.2953                 1.2591
 Frc consts  --      1.4766                 1.5413                 1.5037
 IR Inten    --      5.9531                 3.5383                13.4098

                     67                     68                     69
                      A                      A                      A
 Frequencies --   1435.6598              1441.3777              1446.7076
 Red. masses --      1.2798                 1.2757                 1.2778
 Frc consts  --      1.5542                 1.5615                 1.5757
 IR Inten    --     14.8438                 8.1509                11.3944

                     70                     71                     72
                      A                      A                      A
 Frequencies --   1461.8999              1473.3963              1505.2022
 Red. masses --      1.3350                 1.4829                 1.0713
 Frc consts  --      1.6810                 1.8967                 1.4301
 IR Inten    --      5.0150                 2.5535                 0.0379

                     73                     74                     75
                      A                      A                      A
 Frequencies --   1511.4740              1514.0260              1519.4339
 Red. masses --      1.0965                 1.0544                 1.0672
 Frc consts  --      1.4760                 1.4241                 1.4516
 IR Inten    --      1.7229                 2.5919                 0.7700

                     76                     77                     78
                      A                      A                      A
 Frequencies --   1520.2804              1525.2680              1527.4367
 Red. masses --      1.1173                 1.0567                 1.1345
 Frc consts  --      1.5214                 1.4485                 1.5595
 IR Inten    --      3.7508                 0.9995                 5.3110

                     79                     80                     81
                      A                      A                      A
 Frequencies --   1529.4717              1532.7285              1537.2259
 Red. masses --      1.0730                 1.0746                 1.0626
 Frc consts  --      1.4789                 1.4874                 1.4795
 IR Inten    --      7.1710                 1.6446                 9.9659

                     82                     83                     84
                      A                      A                      A
 Frequencies --   1539.4007              1542.5504              1546.4422
 Red. masses --      1.0783                 1.0932                 1.0650
 Frc consts  --      1.5056                 1.5326                 1.5006
 IR Inten    --     13.5003                 4.3030                 7.1109

                     85                     86                     87
                      A                      A                      A
 Frequencies --   2927.6547              2943.8032              2985.4666
 Red. masses --      1.0722                 1.0803                 1.0679
 Frc consts  --      5.4146                 5.5161                 5.6080
 IR Inten    --     30.0335                60.6704                44.5354

                     88                     89                     90
                      A                      A                      A
 Frequencies --   2999.6530              3002.0881              3034.0757
 Red. masses --      1.0693                 1.0560                 1.0849
 Frc consts  --      5.6688                 5.6072                 5.8841
 IR Inten    --     40.8212                57.8142                21.7952

                     91                     92                     93
                      A                      A                      A
 Frequencies --   3034.8620              3040.5527              3041.2906
 Red. masses --      1.0357                 1.0372                 1.1068
 Frc consts  --      5.6205                 5.6496                 6.0319
 IR Inten    --     22.5571                30.5023                45.6918

                     94                     95                     96
                      A                      A                      A
 Frequencies --   3048.4437              3055.2520              3064.7410
 Red. masses --      1.0351                 1.0367                 1.0944
 Frc consts  --      5.6674                 5.7017                 6.0562
 IR Inten    --     26.1597                14.7984                44.5675

                     97                     98                     99
                      A                      A                      A
 Frequencies --   3072.4325              3089.7925              3095.7149
 Red. masses --      1.0887                 1.0925                 1.1017
 Frc consts  --      6.0552                 6.1450                 6.2209
 IR Inten    --     54.6181                18.9407                 0.4762

                    100                    101                    102
                      A                      A                      A
 Frequencies --   3101.4039              3112.4361              3116.8713
 Red. masses --      1.1007                 1.1020                 1.1019
 Frc consts  --      6.2381                 6.2895                 6.3068
 IR Inten    --     90.1320                 3.8157                24.4061

                    103                    104                    105
                      A                      A                      A
 Frequencies --   3119.2850              3121.1448              3122.6220
 Red. masses --      1.1020                 1.1010                 1.1000
 Frc consts  --      6.3172                 6.3190                 6.3198
 IR Inten    --     45.1998                80.3067                15.9247

                    106                    107                    108
                      A                      A                      A
 Frequencies --   3135.3311              3518.2064              3765.6963
 Red. masses --      1.1022                 1.0741                 1.0666
 Frc consts  --      6.3840                 7.8331                 8.9116
 IR Inten    --     32.8120                 9.1157                19.6465

 - Thermochemistry -
 -------------------
 Temperature   298.150 Kelvin.  Pressure   1.00000 Atm.
 Atom     1 has atomic number  6 and mass  12.00000

 Molecular mass:   200.18886 amu.
 Principal axes and moments of inertia in atomic units:
                           1         2         3
     Eigenvalues --  2222.547673516.666784951.01414
           X            0.99998   0.00433  -0.00555
           Y           -0.00429   0.99996   0.00741
           Z            0.00559  -0.00738   0.99996
 This molecule is an asymmetric top.
 Rotational symmetry number  1.
 Warning -- assumption of classical behavior for rotation
           may cause significant error
 Rotational temperatures (Kelvin)      0.03897     0.02463     0.01749
 Rotational constants (GHZ):           0.81201     0.51320     0.36452
 Zero-point vibrational energy     923983.7 (Joules/Mol)
                                  220.83742 (Kcal/Mol)
 Warning -- explicit consideration of  27 degrees of freedom as
           vibrations may cause significant error
 Vibrational temperatures:     91.01   102.57   138.59   155.97   195.72
          (Kelvin)            257.13   311.19   335.12   346.99   365.36
                              371.32   384.08   392.33   398.25   418.32
                              449.16   476.21   549.93   559.89   595.56
                              617.81   682.38   703.02   732.09   807.86
                              821.79   886.77  1111.49  1158.92  1200.17
                             1244.46  1287.72  1311.28  1342.19  1352.34
                             1366.53  1371.16  1384.20  1393.46  1463.47
                             1504.57  1529.50  1538.09  1560.81  1600.71
                             1616.71  1649.19  1662.37  1710.96  1740.04
                             1766.63  1777.96  1786.71  1806.61  1850.56
                             1858.41  1900.04  1917.24  1948.26  1973.29
                             1984.84  2019.21  2028.70  2036.74  2044.69
                             2048.42  2065.59  2073.82  2081.49  2103.35
                             2119.89  2165.65  2174.67  2178.35  2186.13
                             2187.34  2194.52  2197.64  2200.57  2205.25
                             2211.73  2214.85  2219.39  2224.99  4212.24
                             4235.48  4295.42  4315.83  4319.34  4365.36
                             4366.49  4374.68  4375.74  4386.03  4395.83
                             4409.48  4420.55  4445.52  4454.04  4462.23
                             4478.10  4484.48  4487.96  4490.63  4492.76
                             4511.04  5061.91  5418.00

 Zero-point correction=                           0.351927 (Hartree/Particle)
 Thermal correction to Energy=                    0.367786
 Thermal correction to Enthalpy=                  0.368731
 Thermal correction to Gibbs Free Energy=         0.310544
 Sum of electronic and zero-point Energies=           -618.039816
 Sum of electronic and thermal Energies=              -618.023956
 Sum of electronic and thermal Enthalpies=            -618.023012
 Sum of electronic and thermal Free Energies=         -618.081199

                     E (Thermal)             CV                S
                      KCal/Mol        Cal/Mol-Kelvin    Cal/Mol-Kelvin
 Total                  230.790             62.058            122.464
 Electronic               0.000              0.000              0.000
 Translational            0.889              2.981             41.787
 Rotational               0.889              2.981             32.026
 Vibrational            229.012             56.096             48.651
 Vibration     1          0.597              1.972              4.353
 Vibration     2          0.598              1.968              4.117
 Vibration     3          0.603              1.952              3.527
 Vibration     4          0.606              1.942              3.297
 Vibration     5          0.614              1.917              2.859
 Vibration     6          0.629              1.868              2.342
 Vibration     7          0.645              1.816              1.990
 Vibration     8          0.654              1.791              1.856
 Vibration     9          0.658              1.777              1.794
 Vibration    10          0.665              1.756              1.703
 Vibration    11          0.667              1.749              1.675
 Vibration    12          0.672              1.734              1.616
 Vibration    13          0.676              1.724              1.579
 Vibration    14          0.678              1.716              1.553
 Vibration    15          0.687              1.691              1.470
 Vibration    16          0.701              1.650              1.351
 Vibration    17          0.713              1.614              1.255
 Vibration    18          0.752              1.508              1.030
 Vibration    19          0.757              1.493              1.003
 Vibration    20          0.778              1.440              0.913
 Vibration    21          0.791              1.406              0.861
 Vibration    22          0.831              1.307              0.726
 Vibration    23          0.845              1.275              0.687
 Vibration    24          0.864              1.230              0.636
 Vibration    25          0.917              1.115              0.521
 Vibration    26          0.927              1.094              0.502
 Vibration    27          0.976              0.997              0.422

 Optimization completed.
    -- Stationary point found.
 Normal termination of Gaussian 16 at Thu Dec 10 10:45:41 2020.

 ----------------------------------------------------------------------
 # B3LYP/6-311++G(d,p) empiricaldispersion=gd3bj scf=xqc pop=npa geom=c
 heck
 ----------------------------------------------------------------------

 --------------------------------------
 CID_84117351_JID_4712_Energie_neutraal
 --------------------------------------
 Structure from the checkpoint file:  "JID_4712.chk"
 Charge =  0 Multiplicity = 1

 SCF Done:  E(RB3LYP) =  -618.579216041     A.U. after   14 cycles
 Normal termination of Gaussian 16 at Thu Dec 10 10:51:20 2020.

 ----------------------------------------------------------------------
 # B3LYP/6-311++G(d,p) empiricaldispersion=gd3bj scf=xqc pop=npa geom=c
 heck
 ----------------------------------------------------------------------

 ------------------------------------
 CID_84117351_JID_4712_Energie_kation
 ------------------------------------
 Structure from the checkpoint file:  "JID_4712.chk"
 Charge =  1 Multiplicity = 2

 SCF Done:  E(UB3LYP) =  -618.300243674     A.U. after   23 cycles
 Normal termination of Gaussian 16 at Thu Dec 10 11:05:19 2020.
 Gaussian 16:  ES64L-G16RevA.03 25-Dec-2016

 ----------------------------------------------------------------------
 # B3LYP/6-311++G(d,p) empiricaldispersion=gd3bj scf=xqc pop=npa geom=c
 heck
 ----------------------------------------------------------------------

 -----------------------------------
 CID_84117351_JID_4712_Energie_anion
 -----------------------------------
 Structure from the checkpoint file:  "JID_4712.chk"
 Charge = -1 Multiplicity = 2

                         Standard orientation:
 ---------------------------------------------------------------------
 Center     Atomic      Atomic             Coordinates (Angstroms)
 Number     Number       Type             X           Y           Z
 ---------------------------------------------------------------------
      1          6           0       -3.090723   -1.006515    1.044083
      2          6           0       -1.922398   -1.644821    0.288903
      3          6           0       -2.383166   -2.253554   -1.048466
      4          7           0       -0.786791   -0.708939    0.175745
      5          6           0        0.466304   -1.382303   -0.157722
      6          6           0        1.712090   -0.634604    0.331957
      7          7           0        1.751459    0.753539   -0.125138
      8          6           0        0.825625    1.625658    0.600776
      9          6           0       -0.532405    1.796541   -0.111515
     10          6           0       -1.016648    0.449157   -0.696662
     11          6           0       -0.382145    2.781839   -1.279781
     12          6           0       -1.545289    2.328972    0.910269
     13          6           0        2.964260   -1.342771   -0.170024
     14          8           0        4.095190   -0.669869    0.383512
     15          1           0       -3.540778   -0.180672    0.482538
     16          1           0       -2.752101   -0.616420    2.008441
     17          1           0       -3.876479   -1.749395    1.221710
     18          1           0       -1.552666   -2.466662    0.915756
     19          1           0       -2.803454   -1.488163   -1.710648
     20          1           0       -1.551355   -2.734345   -1.574605
     21          1           0       -3.158172   -3.010416   -0.882082
     22          1           0        0.464573   -2.368984    0.320451
     23          1           0        0.560673   -1.546097   -1.248551
     24          1           0        1.715278   -0.685365    1.437333
     25          1           0        2.705130    1.075090    0.019450
     26          1           0        1.285625    2.616332    0.702889
     27          1           0        0.648820    1.247506    1.620898
     28          1           0       -0.521855    0.290582   -1.667001
     29          1           0       -2.086313    0.544252   -0.908618
     30          1           0       -1.299742    2.833483   -1.879599
     31          1           0       -0.163992    3.793537   -0.916775
     32          1           0        0.438308    2.466425   -1.933794
     33          1           0       -1.723648    1.587962    1.696512
     34          1           0       -1.179525    3.247427    1.386325
     35          1           0       -2.505753    2.560658    0.433798
     36          1           0        2.943827   -2.399629    0.137671
     37          1           0        2.981131   -1.301653   -1.269289
     38          1           0        4.885235   -0.974291   -0.086060
 ---------------------------------------------------------------------

 SCF Done:  E(UB3LYP) =  -618.565749773     A.U. after   29 cycles

 The electronic state is 2-A.
 Alpha  occ. eigenvalues --  -19.02141 -14.20295 -14.19292 -10.11164 -10.10362
 Alpha  occ. eigenvalues --  -10.09400 -10.09068 -10.08924 -10.08843 -10.08169
 Alpha  occ. eigenvalues --  -10.06414 -10.06315 -10.06234 -10.06017  -0.92193
 Alpha  occ. eigenvalues --   -0.83465  -0.79848  -0.72130  -0.68089  -0.64488
 Alpha  occ. eigenvalues --   -0.59653  -0.59521  -0.58770  -0.55916  -0.54719
 Alpha  occ. eigenvalues --   -0.48075  -0.46793  -0.43510  -0.42096  -0.40251
 Alpha  occ. eigenvalues --   -0.39351  -0.36777  -0.36524  -0.35454  -0.35113
 Alpha  occ. eigenvalues --   -0.33374  -0.33231  -0.32043  -0.31250  -0.29756
 Alpha  occ. eigenvalues --   -0.29367  -0.29001  -0.28626  -0.28178  -0.27231
 Alpha  occ. eigenvalues --   -0.25961  -0.25392  -0.24476  -0.24107  -0.23578
 Alpha  occ. eigenvalues --   -0.22790  -0.22187  -0.21846  -0.17909  -0.13114
 Alpha  occ. eigenvalues --   -0.11693   0.04282
 Alpha virt. eigenvalues --    0.05791   0.06597   0.07658   0.08062   0.08654
 Alpha virt. eigenvalues --    0.09049   0.09556   0.09938   0.10584   0.11093
 Alpha virt. eigenvalues --    0.11578   0.11793   0.12326   0.12608   0.12840

  Beta  occ. eigenvalues --  -19.02091 -14.20294 -14.19279 -10.11135 -10.10351
  Beta  occ. eigenvalues --  -10.09398 -10.09058 -10.08918 -10.08832 -10.08167
  Beta  occ. eigenvalues --  -10.06405 -10.06305 -10.06213 -10.05990  -0.92087
  Beta  occ. eigenvalues --   -0.83451  -0.79830  -0.72117  -0.68061  -0.64450
  Beta  occ. eigenvalues --   -0.59615  -0.59500  -0.58729  -0.55886  -0.54657
  Beta  occ. eigenvalues --   -0.48031  -0.46757  -0.43477  -0.41997  -0.40217
  Beta  occ. eigenvalues --   -0.39319  -0.36739  -0.36500  -0.35434  -0.35095
  Beta  occ. eigenvalues --   -0.33347  -0.33207  -0.32022  -0.31224  -0.29734
  Beta  occ. eigenvalues --   -0.29332  -0.28975  -0.28600  -0.28154  -0.27206
  Beta  occ. eigenvalues --   -0.25928  -0.25369  -0.24444  -0.24088  -0.23554
  Beta  occ. eigenvalues --   -0.22758  -0.22172  -0.21814  -0.17857  -0.13081
  Beta  occ. eigenvalues --   -0.11677
  Beta virt. eigenvalues --    0.06166   0.07090   0.07454   0.07868   0.08603
  Beta virt. eigenvalues --    0.09082   0.09185   0.09706   0.10118   0.10926
  Beta virt. eigenvalues --    0.11419   0.11791   0.12094   0.12428   0.12784

 Mulliken charges and spin densities:
               1          2
     1  C    0.362813  -0.845099
     2  C   -1.147823   1.224342
     3  C    0.985359  -1.501441
     4  N    0.423839  -0.040263
     5  C   -0.912083   0.348705
     6  C   -0.405961   0.349168
     7  N   -0.187302   0.105342
     8  C   -0.613018  -0.020683
     9  C    0.309353   0.737661
    10  C   -0.454264  -0.573244
    11  C   -0.071693  -0.533125
    12  C    0.079282  -0.576958
    13  C    1.699165  -2.240656
    14  O   -0.376121   0.094970
    15  H   -0.170634   0.293364
    16  H    0.127404   0.022509
    17  H   -0.350091   0.504054
    18  H   -0.342488   0.486269
    19  H   -0.164826   0.300875
    20  H   -0.229548   0.374014
    21  H   -0.314232   0.478411
    22  H    0.107354   0.033921
    23  H    0.411107  -0.279911
    24  H    0.213460  -0.036055
    25  H    0.276936  -0.009308
    26  H    0.002241   0.153856
    27  H    0.044290   0.069858
    28  H    0.108595   0.040111
    29  H    0.401710  -0.229908
    30  H   -0.077648   0.204671
    31  H    0.106065   0.032277
    32  H    0.079943   0.079025
    33  H    0.153255  -0.030735
    34  H    0.062559   0.081764
    35  H    0.000019   0.148872
    36  H   -0.407108   0.566457
    37  H   -0.384026   0.572321
    38  H   -0.345883   0.614569
 Sum of Mulliken charges =  -1.00000   1.00000

 Dipole moment (field-independent basis, Debye):
    X=             -3.6283    Y=              5.1630    Z=              1.0921  Tot=              6.4042
 Quadrupole moment (field-independent basis, Debye-Ang):
   XX=           -185.4034   YY=           -140.1528   ZZ=           -121.6546
   XY=              1.2693   XZ=              3.0454   YZ=             -0.4892

 Summary of Natural Population Analysis:

                                       Natural Population
                Natural  -----------------------------------------------
    Atom  No    Charge         Core      Valence    Rydberg      Total
 -----------------------------------------------------------------------
      C    1   -0.28748      0.99964     2.28173    0.00611     3.28748
      C    2   -0.00168      0.99960     1.98911    0.01297     3.00168
      C    3   -0.29754      0.99964     2.29214    0.00576     3.29754
      N    4   -0.29052      0.99970     2.77839    0.01244     3.79052
      C    5   -0.08147      0.99957     2.07038    0.01152     3.08147
      C    6   -0.01816      0.99958     2.00520    0.01338     3.01816
      N    7   -0.34784      0.99971     2.83775    0.01038     3.84784
      C    8   -0.08151      0.99957     2.07133    0.01061     3.08151
      C    9   -0.05638      0.99957     2.04494    0.01188     3.05638
      C   10   -0.08545      0.99956     2.07321    0.01268     3.08545
      C   11   -0.28509      0.99963     2.27965    0.00581     3.28509
      C   12   -0.28430      0.99963     2.27891    0.00577     3.28430
      C   13   -0.00874      0.99955     1.99646    0.01273     3.00874
      O   14   -0.37628      0.99989     3.36952    0.00687     4.37628
      H   15    0.09595      0.00000     0.40306    0.00099     0.40405
      H   16    0.10136      0.00000     0.39743    0.00121     0.39864
      H   17    0.10094      0.00000     0.39815    0.00091     0.39906
      H   18    0.09314      0.00000     0.40536    0.00150     0.40686
      H   19    0.09671      0.00000     0.40234    0.00095     0.40329
      H   20    0.10116      0.00000     0.39792    0.00093     0.39884
      H   21    0.10179      0.00000     0.39694    0.00127     0.39821
      H   22    0.09767      0.00000     0.40068    0.00166     0.40233
      H   23    0.08226      0.00000     0.41609    0.00165     0.41774
      H   24    0.08066      0.00000     0.41700    0.00234     0.41934
      H   25    0.18596      0.00000     0.31102    0.00303     0.31404
      H   26    0.09194      0.00000     0.40715    0.00091     0.40806
      H   27    0.08692      0.00000     0.41146    0.00162     0.41308
      H   28    0.09344      0.00000     0.40486    0.00170     0.40656
      H   29    0.09675      0.00000     0.40191    0.00134     0.40325
      H   30    0.09650      0.00000     0.40266    0.00084     0.40350
      H   31    0.09595      0.00000     0.40323    0.00082     0.40405
      H   32    0.10642      0.00000     0.39248    0.00110     0.39358
      H   33    0.10374      0.00000     0.39505    0.00121     0.39626
      H   34    0.09597      0.00000     0.40325    0.00079     0.40403
      H   35    0.09718      0.00000     0.40197    0.00085     0.40282
      H   36    0.08025      0.00000     0.41808    0.00166     0.41975
      H   37    0.08179      0.00000     0.41608    0.00213     0.41821
      H   38    0.23800      0.00000     0.24672    0.01529     0.26200
 =======================================================================
   * Total *   -0.00000     13.99482    41.81956    0.18561    56.00000

 Normal termination of Gaussian 16 at Thu Dec 10 11:20:45 2020.
