 Gaussian 16, Revision A.03,

 -----------------------------------------------------------
 # opt freq B3LYP/6-31G(d) empiricaldispersion=gd3bj scf=xqc
 -----------------------------------------------------------

 ------------------------------
 CID_148857047_JID_529_neutraal
 ------------------------------
 Symbolic Z-matrix:
 Charge =  0 Multiplicity = 1

 SCF Done:  E(RB3LYP) =  -803.990826610     A.U. after   15 cycles
 SCF Done:  E(RB3LYP) =  -803.994246681     A.U. after   12 cycles
 SCF Done:  E(RB3LYP) =  -803.994575757     A.U. after   12 cycles
 SCF Done:  E(RB3LYP) =  -803.993874987     A.U. after   12 cycles
 SCF Done:  E(RB3LYP) =  -803.994712217     A.U. after   10 cycles
 SCF Done:  E(RB3LYP) =  -803.994784277     A.U. after   11 cycles
 SCF Done:  E(RB3LYP) =  -803.994803298     A.U. after   10 cycles
 SCF Done:  E(RB3LYP) =  -803.994811021     A.U. after    9 cycles
 SCF Done:  E(RB3LYP) =  -803.994813231     A.U. after    9 cycles
 SCF Done:  E(RB3LYP) =  -803.994813761     A.U. after    8 cycles
 SCF Done:  E(RB3LYP) =  -803.994814132     A.U. after    8 cycles
 SCF Done:  E(RB3LYP) =  -803.994814335     A.U. after    7 cycles
 SCF Done:  E(RB3LYP) =  -803.994814561     A.U. after    7 cycles
 Optimization completed.
    -- Stationary point found.
 Normal termination of Gaussian 16 at Tue Dec  8 12:17:23 2020.

 --------------------------------------------------------------------
 #N Geom=AllCheck Guess=TCheck SCRF=Check GenChk RB3LYP/6-31G(d) Freq
 --------------------------------------------------------------------

 Structure from the checkpoint file:  "JID_529.chk"
 ------------------------------
 CID_148857047_JID_529_neutraal
 ------------------------------
 Charge =  0 Multiplicity = 1

 SCF Done:  E(RB3LYP) =  -803.994814561     A.U. after    1 cycles

  Exact polarizability: 107.583  -2.740  99.680  -1.274   1.601  90.750
 Approx polarizability: 163.276  -8.623 134.449  -6.104   4.196 137.749

                      1                      2                      3
                      A                      A                      A
 Frequencies --     54.2318                62.6753                94.9031
 Red. masses --      3.8238                 3.1210                 3.5989
 Frc consts  --      0.0066                 0.0072                 0.0191
 IR Inten    --      3.0897                 1.7058                 2.7189

                      4                      5                      6
                      A                      A                      A
 Frequencies --    131.1611               160.5021               204.7218
 Red. masses --      2.8018                 3.6346                 2.0659
 Frc consts  --      0.0284                 0.0552                 0.0510
 IR Inten    --      1.9030                 1.2470                 0.9607

                      7                      8                      9
                      A                      A                      A
 Frequencies --    212.3309               226.4668               230.1249
 Red. masses --      1.3239                 1.0408                 1.1611
 Frc consts  --      0.0352                 0.0315                 0.0362
 IR Inten    --      0.1697                 0.1416                 0.9800

                     10                     11                     12
                      A                      A                      A
 Frequencies --    271.7067               279.0171               315.1197
 Red. masses --      2.6780                 2.7578                 2.5166
 Frc consts  --      0.1165                 0.1265                 0.1472
 IR Inten    --      3.6105                 1.5697                 1.9779

                     13                     14                     15
                      A                      A                      A
 Frequencies --    342.6169               391.3216               420.3306
 Red. masses --      1.2900                 2.9795                 3.2455
 Frc consts  --      0.0892                 0.2688                 0.3378
 IR Inten    --      1.5222                 3.7650                 5.4887

                     16                     17                     18
                      A                      A                      A
 Frequencies --    452.6569               538.4247               605.7816
 Red. masses --      3.9079                 3.3105                 3.2956
 Frc consts  --      0.4718                 0.5655                 0.7126
 IR Inten    --      0.7090                 7.7145                 9.7195

                     19                     20                     21
                      A                      A                      A
 Frequencies --    623.1852               628.1952               717.3900
 Red. masses --      3.7206                 3.2439                 3.1080
 Frc consts  --      0.8513                 0.7542                 0.9424
 IR Inten    --     38.7581                 1.0162                 5.6972

                     22                     23                     24
                      A                      A                      A
 Frequencies --    727.1824               789.9019               926.7006
 Red. masses --      5.6137                 1.1777                 2.4535
 Frc consts  --      1.7490                 0.4329                 1.2414
 IR Inten    --      4.9581                14.5983                 3.7399

                     25                     26                     27
                      A                      A                      A
 Frequencies --    979.4535               990.9348               996.4414
 Red. masses --      1.2914                 1.2830                 1.8789
 Frc consts  --      0.7299                 0.7423                 1.0992
 IR Inten    --      7.1850                 5.0482                 8.2950

                     28                     29                     30
                      A                      A                      A
 Frequencies --   1018.3646              1048.3624              1065.8225
 Red. masses --      1.6116                 1.6308                 1.6927
 Frc consts  --      0.9848                 1.0560                 1.1329
 IR Inten    --     23.9452                 8.3322                 4.6709

                     31                     32                     33
                      A                      A                      A
 Frequencies --   1089.6440              1121.5201              1140.2353
 Red. masses --      2.4992                 1.7850                 1.7435
 Frc consts  --      1.7483                 1.3228                 1.3355
 IR Inten    --     15.6132                23.1973                19.2539

                     34                     35                     36
                      A                      A                      A
 Frequencies --   1178.8002              1251.1089              1298.3147
 Red. masses --      2.5302                 2.7687                 1.3783
 Frc consts  --      2.0715                 2.5534                 1.3688
 IR Inten    --     14.7201                43.2879                93.4159

                     37                     38                     39
                      A                      A                      A
 Frequencies --   1337.5665              1376.5804              1385.4463
 Red. masses --      1.5856                 1.3331                 1.1839
 Frc consts  --      1.6714                 1.4884                 1.3389
 IR Inten    --     91.5170                31.3174                11.4064

                     40                     41                     42
                      A                      A                      A
 Frequencies --   1403.6265              1419.9033              1430.7063
 Red. masses --      1.2636                 1.2624                 1.2999
 Frc consts  --      1.4668                 1.4996                 1.5676
 IR Inten    --     18.6947                18.3895                36.7482

                     43                     44                     45
                      A                      A                      A
 Frequencies --   1439.8718              1474.1684              1496.8529
 Red. masses --      1.2269                 1.3966                 1.0642
 Frc consts  --      1.4987                 1.7882                 1.4049
 IR Inten    --     14.1192                65.1531                13.4564

                     46                     47                     48
                      A                      A                      A
 Frequencies --   1504.1379              1511.3908              1515.8466
 Red. masses --      1.0530                 1.0492                 1.1191
 Frc consts  --      1.4037                 1.4121                 1.5151
 IR Inten    --      3.8221                 2.9310                13.0126

                     49                     50                     51
                      A                      A                      A
 Frequencies --   1517.4645              1524.5509              1536.1844
 Red. masses --      1.1226                 1.0430                 1.0500
 Frc consts  --      1.5230                 1.4283                 1.4599
 IR Inten    --     20.7421                 3.8381                19.5486

                     52                     53                     54
                      A                      A                      A
 Frequencies --   1543.4307              1546.6479              1745.4999
 Red. masses --      1.0531                 1.0684                 8.9765
 Frc consts  --      1.4780                 1.5057                16.1138
 IR Inten    --      6.5987                 1.3620               267.0623

                     55                     56                     57
                      A                      A                      A
 Frequencies --   3061.3109              3062.6461              3068.1114
 Red. masses --      1.0306                 1.0385                 1.0434
 Frc consts  --      5.6907                 5.7394                 5.7867
 IR Inten    --     22.0281                25.8619                15.8954

                     58                     59                     60
                      A                      A                      A
 Frequencies --   3076.2556              3086.3849              3088.0676
 Red. masses --      1.0762                 1.0648                 1.0417
 Frc consts  --      6.0004                 5.9759                 5.8526
 IR Inten    --      1.4815                32.7573                12.0230

                     61                     62                     63
                      A                      A                      A
 Frequencies --   3128.6969              3136.8540              3140.5514
 Red. masses --      1.1015                 1.0989                 1.0989
 Frc consts  --      6.3527                 6.3707                 6.3857
 IR Inten    --     13.4723                20.7768                15.1008

                     64                     65                     66
                      A                      A                      A
 Frequencies --   3143.8396              3155.3552              3160.0619
 Red. masses --      1.1073                 1.1034                 1.0991
 Frc consts  --      6.4483                 6.4726                 6.4666
 IR Inten    --      9.9864                 8.1679                 4.3004

                     67                     68                     69
                      A                      A                      A
 Frequencies --   3162.5235              3174.9744              3184.7867
 Red. masses --      1.1050                 1.1011                 1.1013
 Frc consts  --      6.5114                 6.5400                 6.5812
 IR Inten    --     16.1771                19.6984                 9.6941

 - Thermochemistry -
 -------------------
 Temperature   298.150 Kelvin.  Pressure   1.00000 Atm.
 Atom     1 has atomic number  6 and mass  12.00000

 Molecular mass:   161.08744 amu.
 Principal axes and moments of inertia in atomic units:
                           1         2         3
     Eigenvalues --  1370.919621886.092102355.87778
           X            0.99529   0.09651   0.00945
           Y           -0.09649   0.99533  -0.00248
           Z           -0.00965   0.00155   0.99995
 This molecule is an asymmetric top.
 Rotational symmetry number  1.
 Warning -- assumption of classical behavior for rotation
           may cause significant error
 Rotational temperatures (Kelvin)      0.06318     0.04592     0.03677
 Rotational constants (GHZ):           1.31645     0.95687     0.76606
 Zero-point vibrational energy     574960.8 (Joules/Mol)
                                  137.41894 (Kcal/Mol)
 Warning -- explicit consideration of  18 degrees of freedom as
           vibrations may cause significant error
 Vibrational temperatures:     78.03    90.18   136.54   188.71   230.93
          (Kelvin)            294.55   305.50   325.84   331.10   390.93
                              401.44   453.39   492.95   563.02   604.76
                              651.27   774.67   871.58   896.62   903.83
                             1032.16  1046.25  1136.49  1333.32  1409.22
                             1425.73  1433.66  1465.20  1508.36  1533.48
                             1567.75  1613.62  1640.54  1696.03  1800.07
                             1867.99  1924.46  1980.59  1993.35  2019.51
                             2042.92  2058.47  2071.65  2121.00  2153.64
                             2164.12  2174.55  2180.97  2183.29  2193.49
                             2210.23  2220.65  2225.28  2511.38  4404.54
                             4406.46  4414.33  4426.05  4440.62  4443.04
                             4501.50  4513.23  4518.55  4523.28  4539.85
                             4546.62  4550.17  4568.08  4582.20

 Zero-point correction=                           0.218991 (Hartree/Particle)
 Thermal correction to Energy=                    0.231587
 Thermal correction to Enthalpy=                  0.232531
 Thermal correction to Gibbs Free Energy=         0.180554
 Sum of electronic and zero-point Energies=           -803.775824
 Sum of electronic and thermal Energies=              -803.763228
 Sum of electronic and thermal Enthalpies=            -803.762283
 Sum of electronic and thermal Free Energies=         -803.814261

                     E (Thermal)             CV                S
                      KCal/Mol        Cal/Mol-Kelvin    Cal/Mol-Kelvin
 Total                  145.323             45.707            109.396
 Electronic               0.000              0.000              0.000
 Translational            0.889              2.981             41.139
 Rotational               0.889              2.981             30.189
 Vibrational            143.546             39.746             38.068
 Vibration     1          0.596              1.976              4.657
 Vibration     2          0.597              1.972              4.371
 Vibration     3          0.603              1.953              3.556
 Vibration     4          0.612              1.922              2.929
 Vibration     5          0.622              1.891              2.544
 Vibration     6          0.640              1.833              2.090
 Vibration     7          0.643              1.822              2.024
 Vibration     8          0.650              1.801              1.907
 Vibration     9          0.652              1.795              1.878
 Vibration    10          0.675              1.725              1.585
 Vibration    11          0.679              1.712              1.540
 Vibration    12          0.702              1.645              1.335
 Vibration    13          0.722              1.590              1.200
 Vibration    14          0.759              1.489              0.995
 Vibration    15          0.783              1.426              0.891
 Vibration    16          0.811              1.355              0.788
 Vibration    17          0.893              1.165              0.569
 Vibration    18          0.964              1.020              0.440

 Optimization completed.
    -- Stationary point found.
 Normal termination of Gaussian 16 at Tue Dec  8 12:24:50 2020.

 ----------------------------------------------------------------------
 # B3LYP/6-311++G(d,p) empiricaldispersion=gd3bj scf=xqc pop=npa geom=c
 heck
 ----------------------------------------------------------------------

 --------------------------------------
 CID_148857047_JID_529_Energie_neutraal
 --------------------------------------
 Structure from the checkpoint file:  "JID_529.chk"
 Charge =  0 Multiplicity = 1

 SCF Done:  E(RB3LYP) =  -804.141582970     A.U. after   14 cycles
 Normal termination of Gaussian 16 at Tue Dec  8 12:27:56 2020.

 ----------------------------------------------------------------------
 # B3LYP/6-311++G(d,p) empiricaldispersion=gd3bj scf=xqc pop=npa geom=c
 heck
 ----------------------------------------------------------------------

 ------------------------------------
 CID_148857047_JID_529_Energie_kation
 ------------------------------------
 Structure from the checkpoint file:  "JID_529.chk"
 Charge =  1 Multiplicity = 2

 SCF Done:  E(UB3LYP) =  -803.834630115     A.U. after   25 cycles
 Normal termination of Gaussian 16 at Tue Dec  8 12:40:20 2020.
 Gaussian 16:  ES64L-G16RevA.03 25-Dec-2016

 ----------------------------------------------------------------------
 # B3LYP/6-311++G(d,p) empiricaldispersion=gd3bj scf=xqc pop=npa geom=c
 heck
 ----------------------------------------------------------------------

 -----------------------------------
 CID_148857047_JID_529_Energie_anion
 -----------------------------------
 Structure from the checkpoint file:  "JID_529.chk"
 Charge = -1 Multiplicity = 2

                         Standard orientation:
 ---------------------------------------------------------------------
 Center     Atomic      Atomic             Coordinates (Angstroms)
 Number     Number       Type             X           Y           Z
 ---------------------------------------------------------------------
      1          6           0       -1.264549   -2.310960    0.229101
      2          6           0       -1.221617   -1.311775   -0.927186
      3          7           0       -0.618320   -0.009752   -0.571411
      4          6           0        0.762080    0.183121   -0.986623
      5          6           0        1.229491    1.612433   -1.267153
      6         16           0        2.005211   -0.750669    0.061904
      7          6           0        1.610397   -0.135718    1.730002
      8          6           0       -1.429448    0.811288    0.194632
      9          8           0       -2.577555    0.461427    0.454284
     10          6           0       -0.933596    2.152677    0.711782
     11          1           0       -0.256479   -2.537378    0.586876
     12          1           0       -1.730529   -3.244601   -0.106584
     13          1           0       -1.862921   -1.908216    1.049561
     14          1           0       -0.639969   -1.720282   -1.758358
     15          1           0       -2.235177   -1.114667   -1.282482
     16          1           0        0.857801   -0.358545   -1.931632
     17          1           0        1.427787    2.192275   -0.366196
     18          1           0        2.165005    1.551806   -1.828574
     19          1           0        0.492546    2.145553   -1.877858
     20          1           0        1.873986    0.917906    1.856866
     21          1           0        0.552073   -0.290500    1.957048
     22          1           0        2.206737   -0.729159    2.427492
     23          1           0        0.020661    2.084139    1.236430
     24          1           0       -0.825839    2.880398   -0.097105
     25          1           0       -1.696929    2.512427    1.402337
 ---------------------------------------------------------------------

 SCF Done:  E(UB3LYP) =  -804.127110859     A.U. after   32 cycles

 The electronic state is 2-A.
 Alpha  occ. eigenvalues --  -88.73373 -18.98485 -14.24633 -10.17311 -10.14466
 Alpha  occ. eigenvalues --  -10.10308 -10.08691 -10.06625 -10.06443 -10.05769
 Alpha  occ. eigenvalues --   -7.82007  -5.78406  -5.78038  -5.77365  -0.93927
 Alpha  occ. eigenvalues --   -0.83809  -0.69900  -0.66427  -0.64180  -0.62360
 Alpha  occ. eigenvalues --   -0.56195  -0.53356  -0.50891  -0.42416  -0.39709
 Alpha  occ. eigenvalues --   -0.38465  -0.37418  -0.33818  -0.33155  -0.32430
 Alpha  occ. eigenvalues --   -0.31555  -0.31250  -0.31045  -0.30298  -0.29713
 Alpha  occ. eigenvalues --   -0.27212  -0.26561  -0.26058  -0.25009  -0.23931
 Alpha  occ. eigenvalues --   -0.22104  -0.15628  -0.14651  -0.12381   0.04714
 Alpha virt. eigenvalues --    0.06844   0.07416   0.08429   0.09534   0.09653
 Alpha virt. eigenvalues --    0.10253   0.10698   0.10911   0.11570   0.12837
 Alpha virt. eigenvalues --    0.12892   0.13545   0.13895   0.14339   0.14723

  Beta  occ. eigenvalues --  -88.73367 -18.98476 -14.24631 -10.17306 -10.14455
  Beta  occ. eigenvalues --  -10.10295 -10.08623 -10.06586 -10.06387 -10.05756
  Beta  occ. eigenvalues --   -7.82001  -5.78395  -5.78028  -5.77361  -0.93911
  Beta  occ. eigenvalues --   -0.83795  -0.69854  -0.66389  -0.64116  -0.62309
  Beta  occ. eigenvalues --   -0.56109  -0.53306  -0.50831  -0.42366  -0.39668
  Beta  occ. eigenvalues --   -0.38422  -0.37373  -0.33790  -0.33101  -0.32377
  Beta  occ. eigenvalues --   -0.31508  -0.31215  -0.30995  -0.30246  -0.29672
  Beta  occ. eigenvalues --   -0.27149  -0.26530  -0.26028  -0.24965  -0.23888
  Beta  occ. eigenvalues --   -0.22050  -0.15610  -0.14631  -0.12357
  Beta virt. eigenvalues --    0.07123   0.07769   0.08209   0.08972   0.10046
  Beta virt. eigenvalues --    0.10398   0.10665   0.11003   0.11244   0.11855
  Beta virt. eigenvalues --    0.13132   0.13287   0.14069   0.14207   0.14698

 Mulliken charges and spin densities:
               1          2
     1  C    0.145075  -0.610758
     2  C   -0.489731   0.357692
     3  N    0.185302  -0.033979
     4  C   -1.805542   1.772777
     5  C    2.655474  -3.374330
     6  S   -0.177695   0.352434
     7  C    0.681129  -1.415832
     8  C   -1.030062   1.001468
     9  O   -0.344396   0.026845
    10  C    1.705945  -2.130630
    11  H    0.100286   0.012128
    12  H   -0.064022   0.185666
    13  H    0.067097   0.113913
    14  H   -0.208732   0.332937
    15  H    0.002105   0.185134
    16  H   -0.238395   0.476642
    17  H   -0.394704   0.580207
    18  H   -0.291489   0.447444
    19  H   -0.386740   0.545681
    20  H   -0.367363   0.554264
    21  H    0.009932   0.181384
    22  H   -0.514554   0.704925
    23  H    0.076742   0.053776
    24  H   -0.337916   0.511588
    25  H    0.022256   0.168625
 Sum of Mulliken charges =  -1.00000   1.00000

 Dipole moment (field-independent basis, Debye):
    X=             -1.9984    Y=             -4.0995    Z=             -0.6368  Tot=              4.6049
 Quadrupole moment (field-independent basis, Debye-Ang):
   XX=           -119.7937   YY=           -116.4142   ZZ=           -112.4997
   XY=             -3.8439   XZ=             -2.9545   YZ=              4.2267

 Summary of Natural Population Analysis:

                                       Natural Population
                Natural  -----------------------------------------------
    Atom  No    Charge         Core      Valence    Rydberg      Total
 -----------------------------------------------------------------------
      C    1   -0.29450      0.99965     2.29035    0.00450     3.29450
      C    2   -0.08217      0.99961     2.07169    0.01087     3.08217
      N    3   -0.26895      0.99962     2.75430    0.01503     3.76895
      C    4   -0.05290      0.99955     2.03675    0.01660     3.05290
      C    5   -0.29525      0.99962     2.28793    0.00771     3.29525
      S    6    0.07805      4.99962     2.90559    0.01674     7.92195
      C    7   -0.35420      0.99962     2.34723    0.00736     3.35420
      C    8    0.34825      0.99966     1.62924    0.02285     2.65175
      O    9   -0.32686      0.99988     3.32135    0.00563     4.32686
      C   10   -0.33086      0.99962     2.32553    0.00571     3.33086
      H   11    0.10355      0.00000     0.39488    0.00157     0.39645
      H   12    0.09532      0.00000     0.40377    0.00091     0.40468
      H   13    0.10643      0.00000     0.39242    0.00115     0.39357
      H   14    0.09244      0.00000     0.40615    0.00141     0.40756
      H   15    0.10498      0.00000     0.39391    0.00111     0.39502
      H   16    0.10240      0.00000     0.39587    0.00173     0.39760
      H   17    0.10573      0.00000     0.39185    0.00242     0.39427
      H   18    0.10865      0.00000     0.38961    0.00174     0.39135
      H   19    0.10561      0.00000     0.39140    0.00298     0.39439
      H   20    0.10454      0.00000     0.39285    0.00260     0.39546
      H   21    0.10235      0.00000     0.39579    0.00186     0.39765
      H   22    0.11119      0.00000     0.38711    0.00170     0.38881
      H   23    0.11031      0.00000     0.38779    0.00190     0.38969
      H   24    0.11366      0.00000     0.38491    0.00143     0.38634
      H   25    0.11222      0.00000     0.38686    0.00092     0.38778
 =======================================================================
   * Total *    0.00000     13.99647    29.86514    0.13840    44.00000

 Normal termination of Gaussian 16 at Tue Dec  8 12:50:34 2020.
