 Gaussian 16, Revision A.03,

 -----------------------------------------------------------
 # opt freq B3LYP/6-31G(d) empiricaldispersion=gd3bj scf=xqc
 -----------------------------------------------------------

 ------------------------------
 CID_151667887_JID_586_neutraal
 ------------------------------
 Symbolic Z-matrix:
 Charge =  0 Multiplicity = 1

 SCF Done:  E(RB3LYP) =  -489.374965370     A.U. after   16 cycles
 SCF Done:  E(RB3LYP) =  -489.379393407     A.U. after   15 cycles
 SCF Done:  E(RB3LYP) =  -489.381746212     A.U. after   14 cycles
 SCF Done:  E(RB3LYP) =  -489.382869686     A.U. after   14 cycles
 SCF Done:  E(RB3LYP) =  -489.384115962     A.U. after   16 cycles
 SCF Done:  E(RB3LYP) =  -489.384698973     A.U. after   13 cycles
 SCF Done:  E(RB3LYP) =  -489.385302971     A.U. after   16 cycles
 SCF Done:  E(RB3LYP) =  -489.385414420     A.U. after   13 cycles
 SCF Done:  E(RB3LYP) =  -489.385456449     A.U. after   13 cycles
 SCF Done:  E(RB3LYP) =  -489.385498421     A.U. after   14 cycles
 SCF Done:  E(RB3LYP) =  -489.388277695     A.U. after    8 cycles
 SCF Done:  E(RB3LYP) =  -489.388277732     A.U. after    8 cycles
 SCF Done:  E(RB3LYP) =  -489.388277773     A.U. after    8 cycles
 SCF Done:  E(RB3LYP) =  -489.388277799     A.U. after    8 cycles
 SCF Done:  E(RB3LYP) =  -489.388277812     A.U. after    7 cycles
 Optimization completed.
    -- Stationary point found.
 Normal termination of Gaussian 16 at Tue Dec  8 12:18:01 2020.

 --------------------------------------------------------------------
 #N Geom=AllCheck Guess=TCheck SCRF=Check GenChk RB3LYP/6-31G(d) Freq
 --------------------------------------------------------------------

 Structure from the checkpoint file:  "JID_586.chk"
 ------------------------------
 CID_151667887_JID_586_neutraal
 ------------------------------
 Charge =  0 Multiplicity = 1

 SCF Done:  E(RB3LYP) =  -489.388277812     A.U. after    1 cycles

  Exact polarizability: 110.468 -10.409  80.308  -3.660   6.714  62.105
 Approx polarizability: 148.106 -27.093 130.464 -10.205  27.657 110.140

                      1                      2                      3
                      A                      A                      A
 Frequencies --     22.6152                39.6000                54.0433
 Red. masses --      4.9878                 3.6888                 2.7461
 Frc consts  --      0.0015                 0.0034                 0.0047
 IR Inten    --      0.5215                 0.3840                 0.9700

                      4                      5                      6
                      A                      A                      A
 Frequencies --     89.5479               138.6356               177.0093
 Red. masses --      1.2583                 5.2746                 3.6432
 Frc consts  --      0.0059                 0.0597                 0.0673
 IR Inten    --      1.4953                 1.1183                 1.3884

                      7                      8                      9
                      A                      A                      A
 Frequencies --    229.5275               267.0380               365.5012
 Red. masses --      7.6631                 3.2107                 5.7207
 Frc consts  --      0.2379                 0.1349                 0.4503
 IR Inten    --      5.7159                 0.6560                 1.6555

                     10                     11                     12
                      A                      A                      A
 Frequencies --    393.0749               464.9244               536.3628
 Red. masses --      4.9646                 4.7021                11.5226
 Frc consts  --      0.4519                 0.5988                 1.9531
 IR Inten    --      0.7905                 2.7199                10.2093

                     13                     14                     15
                      A                      A                      A
 Frequencies --    548.7822               577.7229               713.2024
 Red. masses --      3.7183                 3.0046                 6.1986
 Frc consts  --      0.6598                 0.5908                 1.8577
 IR Inten    --      2.8853                 5.0571                 1.0224

                     16                     17                     18
                      A                      A                      A
 Frequencies --    790.8913               829.6711               838.1403
 Red. masses --      1.3747                 1.7738                 1.4692
 Frc consts  --      0.5066                 0.7194                 0.6081
 IR Inten    --      0.3189                 8.5133                 3.3660

                     19                     20                     21
                      A                      A                      A
 Frequencies --    864.5074               913.5357               925.5976
 Red. masses --      8.1117                 3.3438                 7.3955
 Frc consts  --      3.5719                 1.6442                 3.7331
 IR Inten    --    136.7565                 5.7248                18.4223

                     22                     23                     24
                      A                      A                      A
 Frequencies --    937.2776              1042.6150              1061.9139
 Red. masses --      3.8477                 1.6065                 1.5388
 Frc consts  --      1.9916                 1.0289                 1.0224
 IR Inten    --     24.4393                 1.0885                 5.8007

                     25                     26                     27
                      A                      A                      A
 Frequencies --   1070.5551              1094.8091              1123.5295
 Red. masses --      1.3428                 1.3369                 1.6288
 Frc consts  --      0.9067                 0.9441                 1.2114
 IR Inten    --      4.7773                 3.4812                 7.1342

                     28                     29                     30
                      A                      A                      A
 Frequencies --   1133.0236              1142.5565              1216.4524
 Red. masses --      1.1252                11.6288                 1.3754
 Frc consts  --      0.8511                 8.9442                 1.1991
 IR Inten    --      1.2067                48.1790                 0.9209

                     31                     32                     33
                      A                      A                      A
 Frequencies --   1226.2843              1271.9004              1430.3344
 Red. masses --      2.8550                 1.7538                 1.2223
 Frc consts  --      2.5295                 1.6717                 1.4734
 IR Inten    --      2.3417                31.1746                11.2862

                     34                     35                     36
                      A                      A                      A
 Frequencies --   1435.6342              1489.2428              1505.6187
 Red. masses --      2.0208                 1.0882                 1.0466
 Frc consts  --      2.4539                 1.4220                 1.3979
 IR Inten    --     11.2852                 2.4557                 7.0259

                     37                     38                     39
                      A                      A                      A
 Frequencies --   1513.3639              1526.5314              1708.4019
 Red. masses --      1.0967                 1.3605                 8.9480
 Frc consts  --      1.4799                 1.8680                15.3871
 IR Inten    --     12.0158                 1.0177                15.3461

                     40                     41                     42
                      A                      A                      A
 Frequencies --   2195.5521              3062.0112              3120.1343
 Red. masses --     14.0009                 1.0362                 1.0998
 Frc consts  --     39.7642                 5.7239                 6.3085
 IR Inten    --    293.6103                 6.7851                 5.2150

                     43                     44                     45
                      A                      A                      A
 Frequencies --   3153.2655              3153.7884              3163.3624
 Red. masses --      1.0594                 1.0961                 1.0600
 Frc consts  --      6.2060                 6.4233                 6.2498
 IR Inten    --     19.9704                 6.4196                11.7928

                     46                     47                     48
                      A                      A                      A
 Frequencies --   3169.6474              3237.4831              3255.0482
 Red. masses --      1.0860                 1.1197                 1.1161
 Frc consts  --      6.4285                 6.9144                 6.9676
 IR Inten    --     16.4597                 4.0526                 7.8162

 - Thermochemistry -
 -------------------
 Temperature   298.150 Kelvin.  Pressure   1.00000 Atm.
 Atom     1 has atomic number  6 and mass  12.00000

 Molecular mass:   140.06981 amu.
 Principal axes and moments of inertia in atomic units:
                           1         2         3
     Eigenvalues --   769.503362368.080792848.04509
           X            0.99994   0.01091   0.00003
           Y           -0.01090   0.99961  -0.02558
           Z           -0.00031   0.02558   0.99967
 This molecule is an asymmetric top.
 Rotational symmetry number  1.
 Warning -- assumption of classical behavior for rotation
           may cause significant error
 Rotational temperatures (Kelvin)      0.11256     0.03658     0.03041
 Rotational constants (GHZ):           2.34533     0.76211     0.63368
 Zero-point vibrational energy     360197.2 (Joules/Mol)
                                   86.08920 (Kcal/Mol)
 Warning -- explicit consideration of  14 degrees of freedom as
           vibrations may cause significant error
 Vibrational temperatures:     32.54    56.98    77.76   128.84   199.47
          (Kelvin)            254.68   330.24   384.21   525.87   565.55
                              668.92   771.71   789.58   831.21  1026.14
                             1137.92  1193.71  1205.90  1243.83  1314.37
                             1331.73  1348.53  1500.09  1527.86  1540.29
                             1575.19  1616.51  1630.17  1643.88  1750.20
                             1764.35  1829.98  2057.93  2065.56  2142.69
                             2166.25  2177.39  2196.34  2458.01  3158.91
                             4405.55  4489.18  4536.85  4537.60  4551.37
                             4560.42  4658.02  4683.29

 Zero-point correction=                           0.137192 (Hartree/Particle)
 Thermal correction to Energy=                    0.147862
 Thermal correction to Enthalpy=                  0.148806
 Thermal correction to Gibbs Free Energy=         0.098476
 Sum of electronic and zero-point Energies=           -489.251086
 Sum of electronic and thermal Energies=              -489.240416
 Sum of electronic and thermal Enthalpies=            -489.239471
 Sum of electronic and thermal Free Energies=         -489.289802

                     E (Thermal)             CV                S
                      KCal/Mol        Cal/Mol-Kelvin    Cal/Mol-Kelvin
 Total                   92.785             36.599            105.929
 Electronic               0.000              0.000              0.000
 Translational            0.889              2.981             40.722
 Rotational               0.889              2.981             30.030
 Vibrational             91.008             30.637             35.177
 Vibration     1          0.593              1.985              6.390
 Vibration     2          0.594              1.981              5.279
 Vibration     3          0.596              1.976              4.664
 Vibration     4          0.602              1.957              3.670
 Vibration     5          0.614              1.915              2.823
 Vibration     6          0.628              1.871              2.360
 Vibration     7          0.652              1.796              1.883
 Vibration     8          0.672              1.734              1.615
 Vibration     9          0.739              1.543              1.099
 Vibration    10          0.760              1.485              0.988
 Vibration    11          0.822              1.328              0.752
 Vibration    12          0.891              1.170              0.573
 Vibration    13          0.904              1.142              0.547
 Vibration    14          0.934              1.079              0.490

 Optimization completed.
    -- Stationary point found.
 Normal termination of Gaussian 16 at Tue Dec  8 12:22:13 2020.

 ----------------------------------------------------------------------
 # B3LYP/6-311++G(d,p) empiricaldispersion=gd3bj scf=xqc pop=npa geom=c
 heck
 ----------------------------------------------------------------------

 --------------------------------------
 CID_151667887_JID_586_Energie_neutraal
 --------------------------------------
 Structure from the checkpoint file:  "JID_586.chk"
 Charge =  0 Multiplicity = 1

 SCF Done:  E(RB3LYP) =  -489.525100787     A.U. after   15 cycles
 Normal termination of Gaussian 16 at Tue Dec  8 12:23:36 2020.

 ----------------------------------------------------------------------
 # B3LYP/6-311++G(d,p) empiricaldispersion=gd3bj scf=xqc pop=npa geom=c
 heck
 ----------------------------------------------------------------------

 ------------------------------------
 CID_151667887_JID_586_Energie_kation
 ------------------------------------
 Structure from the checkpoint file:  "JID_586.chk"
 Charge =  1 Multiplicity = 2

 SCF Done:  E(UB3LYP) =  -489.198986346     A.U. after   25 cycles
 Normal termination of Gaussian 16 at Tue Dec  8 12:26:57 2020.
 Gaussian 16:  ES64L-G16RevA.03 25-Dec-2016

 ----------------------------------------------------------------------
 # B3LYP/6-311++G(d,p) empiricaldispersion=gd3bj scf=xqc pop=npa geom=c
 heck
 ----------------------------------------------------------------------

 -----------------------------------
 CID_151667887_JID_586_Energie_anion
 -----------------------------------
 Structure from the checkpoint file:  "JID_586.chk"
 Charge = -1 Multiplicity = 2

                         Standard orientation:
 ---------------------------------------------------------------------
 Center     Atomic      Atomic             Coordinates (Angstroms)
 Number     Number       Type             X           Y           Z
 ---------------------------------------------------------------------
      1          6           0       -0.993452    2.139909   -0.428617
      2          6           0       -0.907318    0.647653   -0.240636
      3          7           0        0.155648    0.031312    0.129173
      4          8           0        1.214506    0.970674    0.334095
      5          7           0        2.351077    0.271968    0.851130
      6          7           0        2.777477   -0.518346   -0.033169
      7          7           0        3.263939   -1.295541   -0.709282
      8          6           0       -2.130301   -0.174038   -0.438784
      9          6           0       -2.116098   -1.667920   -0.240129
     10          6           0       -2.797134   -0.804246    0.780746
     11          1           0       -0.285367    2.471560   -1.196146
     12          1           0       -0.716805    2.655072    0.497677
     13          1           0       -2.002678    2.441948   -0.716846
     14          1           0       -2.804478    0.222389   -1.194077
     15          1           0       -2.732998   -2.260920   -0.908624
     16          1           0       -1.165243   -2.115801    0.026376
     17          1           0       -2.297224   -0.660037    1.733728
     18          1           0       -3.882427   -0.793499    0.824706
 ---------------------------------------------------------------------

 SCF Done:  E(UB3LYP) =  -489.532086211     A.U. after   33 cycles
 SCF Done:  E(UB3LYP) =  -489.532086211     a.u. after    1 cycles

 The electronic state is 2-A.
 Alpha  occ. eigenvalues --  -19.03944 -14.27020 -14.22304 -14.22005 -14.19134
 Alpha  occ. eigenvalues --  -10.09266 -10.07799 -10.07169 -10.06691 -10.05851
 Alpha  occ. eigenvalues --   -0.98729  -0.92584  -0.80094  -0.75688  -0.70118
 Alpha  occ. eigenvalues --   -0.61363  -0.52740  -0.49822  -0.44888  -0.38915
 Alpha  occ. eigenvalues --   -0.38549  -0.37520  -0.34903  -0.33131  -0.31617
 Alpha  occ. eigenvalues --   -0.30625  -0.29285  -0.28067  -0.26541  -0.26071
 Alpha  occ. eigenvalues --   -0.24687  -0.20944  -0.20004  -0.18029  -0.16052
 Alpha  occ. eigenvalues --   -0.11875  -0.08081   0.04792
 Alpha virt. eigenvalues --    0.06448   0.08274   0.09195   0.10205   0.11193
 Alpha virt. eigenvalues --    0.12041   0.12340   0.13048   0.14516   0.15401
 Alpha virt. eigenvalues --    0.16318   0.17306   0.17571   0.18269   0.18506

  Beta  occ. eigenvalues --  -19.03624 -14.26592 -14.22281 -14.22012 -14.18344
  Beta  occ. eigenvalues --  -10.09265 -10.07787 -10.07153 -10.06687 -10.05821
  Beta  occ. eigenvalues --   -0.98009  -0.91727  -0.79775  -0.75499  -0.69661
  Beta  occ. eigenvalues --   -0.61260  -0.52616  -0.49791  -0.44562  -0.38856
  Beta  occ. eigenvalues --   -0.38305  -0.37234  -0.33852  -0.32446  -0.31309
  Beta  occ. eigenvalues --   -0.30166  -0.28831  -0.26812  -0.26466  -0.25964
  Beta  occ. eigenvalues --   -0.23779  -0.20535  -0.19972  -0.17155  -0.15778
  Beta  occ. eigenvalues --   -0.11645  -0.07791
  Beta virt. eigenvalues --    0.07229   0.08632   0.09366   0.10303   0.11230
  Beta virt. eigenvalues --    0.12189   0.12621   0.12766   0.13123   0.14480
  Beta virt. eigenvalues --    0.15427   0.16417   0.17204   0.17766   0.18312

 Mulliken charges and spin densities:
               1          2
     1  C    0.353847  -1.129163
     2  C   -0.442823   0.502042
     3  N   -0.416020   0.119899
     4  O    0.267421  -0.013442
     5  N   -0.191697  -0.153920
     6  N    0.133180   0.180576
     7  N   -0.467566   0.575505
     8  C    0.083057   0.240067
     9  C   -0.216423  -0.251608
    10  C    0.432129  -0.897533
    11  H    0.088298   0.082717
    12  H    0.013844   0.167689
    13  H   -0.299122   0.440238
    14  H   -0.395451   0.618500
    15  H    0.038949   0.095448
    16  H    0.158922   0.002959
    17  H    0.086913   0.068923
    18  H   -0.227459   0.351102
 Sum of Mulliken charges =  -1.00000   1.00000

 Dipole moment (field-independent basis, Debye):
    X=             -3.1179    Y=              0.2488    Z=              0.2106  Tot=              3.1349
 Quadrupole moment (field-independent basis, Debye-Ang):
   XX=           -115.7855   YY=            -79.4586   ZZ=            -73.9834
   XY=              8.2662   XZ=             -1.1063   YZ=             -1.3232

 Summary of Natural Population Analysis:

                                       Natural Population
                Natural  -----------------------------------------------
    Atom  No    Charge         Core      Valence    Rydberg      Total
 -----------------------------------------------------------------------
      C    1   -0.31603      0.99962     2.30987    0.00654     3.31603
      C    2    0.10566      0.99960     1.87784    0.01690     2.89434
      N    3   -0.08468      0.99960     2.57276    0.01232     3.58468
      O    4   -0.13254      0.99991     3.12122    0.01140     4.13254
      N    5   -0.09303      0.99974     2.57595    0.01734     3.59303
      N    6    0.12414      0.99972     2.35950    0.01665     3.37586
      N    7    0.06418      0.99982     2.42236    0.01364     3.43582
      C    8   -0.13016      0.99956     2.11839    0.01221     3.13016
      C    9   -0.19552      0.99962     2.18759    0.00831     3.19552
      C   10   -0.19069      0.99962     2.18327    0.00780     3.19069
      H   11    0.11178      0.00000     0.38681    0.00141     0.38822
      H   12    0.11211      0.00000     0.38630    0.00159     0.38789
      H   13    0.10088      0.00000     0.39775    0.00136     0.39912
      H   14    0.10558      0.00000     0.39316    0.00125     0.39442
      H   15    0.09884      0.00000     0.40042    0.00074     0.40116
      H   16    0.11578      0.00000     0.38312    0.00110     0.38422
      H   17    0.10421      0.00000     0.39474    0.00105     0.39579
      H   18    0.09947      0.00000     0.39910    0.00143     0.40053
 =======================================================================
   * Total *   -0.00000      9.99681    26.87015    0.13305    37.00000

 Normal termination of Gaussian 16 at Tue Dec  8 12:31:00 2020.
