 Gaussian 16, Revision A.03,

 -----------------------------------------------------------
 # opt freq B3LYP/6-31G(d) empiricaldispersion=gd3bj scf=xqc
 -----------------------------------------------------------

 ------------------------------
 CID_23077762_JID_1681_neutraal
 ------------------------------
 Symbolic Z-matrix:
 Charge =  0 Multiplicity = 1

 SCF Done:  E(RB3LYP) =  -496.822425148     A.U. after   14 cycles
 SCF Done:  E(RB3LYP) =  -496.826835584     A.U. after   12 cycles
 SCF Done:  E(RB3LYP) =  -496.827474889     A.U. after   12 cycles
 SCF Done:  E(RB3LYP) =  -496.827579361     A.U. after   11 cycles
 SCF Done:  E(RB3LYP) =  -496.827603939     A.U. after   10 cycles
 SCF Done:  E(RB3LYP) =  -496.827608702     A.U. after    9 cycles
 SCF Done:  E(RB3LYP) =  -496.827609494     A.U. after    8 cycles
 SCF Done:  E(RB3LYP) =  -496.827609679     A.U. after    7 cycles
 SCF Done:  E(RB3LYP) =  -496.827609719     A.U. after    6 cycles
 Optimization completed.
    -- Stationary point found.
 Normal termination of Gaussian 16 at Tue Dec  8 20:10:25 2020.

 --------------------------------------------------------------------
 #N Geom=AllCheck Guess=TCheck SCRF=Check GenChk RB3LYP/6-31G(d) Freq
 --------------------------------------------------------------------

 Structure from the checkpoint file:  "JID_1681.chk"
 ------------------------------
 CID_23077762_JID_1681_neutraal
 ------------------------------
 Charge =  0 Multiplicity = 1

 SCF Done:  E(RB3LYP) =  -496.827609719     A.U. after    1 cycles

  Exact polarizability: 109.542   5.293 116.520   9.984  -0.808  64.986
 Approx polarizability: 162.418   9.860 181.510  24.673  -0.897  96.261

                      1                      2                      3
                      A                      A                      A
 Frequencies --     49.2155                86.2791               114.2367
 Red. masses --      3.0066                 3.5276                 3.4314
 Frc consts  --      0.0043                 0.0155                 0.0264
 IR Inten    --      0.2408                 0.0944                 6.8155

                      4                      5                      6
                      A                      A                      A
 Frequencies --    144.5848               170.5018               202.1553
 Red. masses --      2.0532                 1.5124                 1.8859
 Frc consts  --      0.0253                 0.0259                 0.0454
 IR Inten    --      0.7342                 0.1835                 1.4812

                      7                      8                      9
                      A                      A                      A
 Frequencies --    220.2948               277.0915               306.5450
 Red. masses --      1.5273                 2.3483                 3.6185
 Frc consts  --      0.0437                 0.1062                 0.2003
 IR Inten    --      2.3533                 5.7243                 4.0931

                     10                     11                     12
                      A                      A                      A
 Frequencies --    349.7646               418.9470               476.3893
 Red. masses --      2.4279                 2.9270                 4.5916
 Frc consts  --      0.1750                 0.3027                 0.6140
 IR Inten    --      1.4783                 3.4029                 1.3210

                     13                     14                     15
                      A                      A                      A
 Frequencies --    511.2116               557.6285               607.5120
 Red. masses --      4.0966                 3.4756                 4.8506
 Frc consts  --      0.6308                 0.6368                 1.0548
 IR Inten    --      3.0721                 1.9787                 3.8118

                     16                     17                     18
                      A                      A                      A
 Frequencies --    639.4217               761.8533               779.5153
 Red. masses --      5.2160                 4.4954                 3.1469
 Frc consts  --      1.2565                 1.5373                 1.1267
 IR Inten    --      0.6946                24.7308                52.5615

                     19                     20                     21
                      A                      A                      A
 Frequencies --    806.0954               826.3444               880.9983
 Red. masses --      1.2453                 2.3601                 4.9092
 Frc consts  --      0.4768                 0.9495                 2.2450
 IR Inten    --     31.4147                79.4441                41.1130

                     22                     23                     24
                      A                      A                      A
 Frequencies --    932.3595               962.8664               974.7451
 Red. masses --      1.9031                 1.4652                 1.3475
 Frc consts  --      0.9747                 0.8003                 0.7544
 IR Inten    --      1.2152                 0.6967                 2.1976

                     25                     26                     27
                      A                      A                      A
 Frequencies --    994.2127              1059.3423              1097.4352
 Red. masses --      1.4896                 7.2938                 2.4449
 Frc consts  --      0.8675                 4.8226                 1.7349
 IR Inten    --     11.4133                55.2217                 1.5626

                     28                     29                     30
                      A                      A                      A
 Frequencies --   1125.7208              1150.7743              1170.5674
 Red. masses --      1.8398                 2.3621                 1.3316
 Frc consts  --      1.3737                 1.8430                 1.0750
 IR Inten    --     44.2259                18.9765                21.7964

                     31                     32                     33
                      A                      A                      A
 Frequencies --   1185.7790              1187.8924              1208.5439
 Red. masses --      1.3215                 1.6325                 1.8931
 Frc consts  --      1.0948                 1.3573                 1.6291
 IR Inten    --      4.5944                11.4396                 1.4667

                     34                     35                     36
                      A                      A                      A
 Frequencies --   1218.4767              1300.9660              1314.1406
 Red. masses --      1.7763                 1.8187                 3.2035
 Frc consts  --      1.5538                 1.8136                 3.2596
 IR Inten    --     14.5512                52.7779                67.4581

                     37                     38                     39
                      A                      A                      A
 Frequencies --   1336.3375              1368.4800              1385.2421
 Red. masses --      1.4816                 3.3981                 1.3133
 Frc consts  --      1.5589                 3.7494                 1.4848
 IR Inten    --      7.4523                71.6671                10.9651

                     40                     41                     42
                      A                      A                      A
 Frequencies --   1463.3747              1480.5310              1495.4004
 Red. masses --      1.7351                 1.1664                 1.3628
 Frc consts  --      2.1893                 1.5064                 1.7956
 IR Inten    --    126.1816                 2.7904                 5.9133

                     43                     44                     45
                      A                      A                      A
 Frequencies --   1501.4980              1508.6158              1514.1677
 Red. masses --      1.5561                 1.0495                 1.1905
 Frc consts  --      2.0670                 1.4073                 1.6082
 IR Inten    --      9.5549                 4.2284                23.6490

                     46                     47                     48
                      A                      A                      A
 Frequencies --   1521.8504              1523.2282              1529.6237
 Red. masses --      1.1600                 1.3366                 1.1424
 Frc consts  --      1.5829                 1.8271                 1.5748
 IR Inten    --     30.1169                60.3653                 0.0301

                     49                     50                     51
                      A                      A                      A
 Frequencies --   1550.2592              1638.6503              1652.6326
 Red. masses --      1.0536                 6.8378                 5.7465
 Frc consts  --      1.4919                10.8178                 9.2471
 IR Inten    --     11.7035                39.4372                62.4714

                     52                     53                     54
                      A                      A                      A
 Frequencies --   2976.6315              3046.2014              3067.1360
 Red. masses --      1.0562                 1.0605                 1.0308
 Frc consts  --      5.5137                 5.7978                 5.7131
 IR Inten    --     63.5943                38.7581                60.7001

                     55                     56                     57
                      A                      A                      A
 Frequencies --   3068.4728              3092.9965              3117.5043
 Red. masses --      1.0773                 1.1043                 1.1010
 Frc consts  --      5.9760                 6.2244                 6.3044
 IR Inten    --     39.6297                19.1338                32.8911

                     58                     59                     60
                      A                      A                      A
 Frequencies --   3138.6924              3169.6421              3178.3740
 Red. masses --      1.1070                 1.1069                 1.0883
 Frc consts  --      6.4255                 6.5520                 6.4778
 IR Inten    --     25.0361                25.2401                12.3676

                     61                     62                     63
                      A                      A                      A
 Frequencies --   3183.1529              3218.5394              3515.5131
 Red. masses --      1.0906                 1.0958                 1.0735
 Frc consts  --      6.5105                 6.6878                 7.8170
 IR Inten    --     22.0418                21.3339                 1.6685

 - Thermochemistry -
 -------------------
 Temperature   298.150 Kelvin.  Pressure   1.00000 Atm.
 Atom     1 has atomic number  6 and mass  12.00000

 Molecular mass:   152.09496 amu.
 Principal axes and moments of inertia in atomic units:
                           1         2         3
     Eigenvalues --  1309.803191736.465882658.53888
           X            0.99832  -0.05742  -0.00751
           Y            0.05741   0.99835  -0.00231
           Z            0.00763   0.00188   0.99997
 This molecule is an asymmetric top.
 Rotational symmetry number  1.
 Warning -- assumption of classical behavior for rotation
           may cause significant error
 Rotational temperatures (Kelvin)      0.06613     0.04988     0.03258
 Rotational constants (GHZ):           1.37787     1.03932     0.67885
 Zero-point vibrational energy     516267.3 (Joules/Mol)
                                  123.39085 (Kcal/Mol)
 Warning -- explicit consideration of  15 degrees of freedom as
           vibrations may cause significant error
 Vibrational temperatures:     70.81   124.14   164.36   208.03   245.31
          (Kelvin)            290.86   316.96   398.67   441.05   503.23
                              602.77   685.42   735.52   802.30   874.07
                              919.99  1096.14  1121.55  1159.79  1188.93
                             1267.56  1341.46  1385.35  1402.44  1430.45
                             1524.16  1578.96  1619.66  1655.71  1684.19
                             1706.07  1709.11  1738.83  1753.12  1871.80
                             1890.76  1922.69  1968.94  1993.05  2105.47
                             2130.15  2151.55  2160.32  2170.56  2178.55
                             2189.60  2191.59  2200.79  2230.48  2357.65
                             2377.77  4282.71  4382.80  4412.92  4414.85
                             4450.13  4485.39  4515.88  4560.41  4572.97
                             4579.85  4630.76  5058.04

 Zero-point correction=                           0.196636 (Hartree/Particle)
 Thermal correction to Energy=                    0.207408
 Thermal correction to Enthalpy=                  0.208352
 Thermal correction to Gibbs Free Energy=         0.159883
 Sum of electronic and zero-point Energies=           -496.630974
 Sum of electronic and thermal Energies=              -496.620202
 Sum of electronic and thermal Enthalpies=            -496.619258
 Sum of electronic and thermal Free Energies=         -496.667726

                     E (Thermal)             CV                S
                      KCal/Mol        Cal/Mol-Kelvin    Cal/Mol-Kelvin
 Total                  130.150             39.720            102.011
 Electronic               0.000              0.000              0.000
 Translational            0.889              2.981             40.968
 Rotational               0.889              2.981             30.182
 Vibrational            128.373             33.759             30.861
 Vibration     1          0.595              1.978              4.849
 Vibration     2          0.601              1.959              3.743
 Vibration     3          0.607              1.938              3.196
 Vibration     4          0.616              1.909              2.742
 Vibration     5          0.626              1.879              2.430
 Vibration     6          0.639              1.837              2.113
 Vibration     7          0.647              1.810              1.957
 Vibration     8          0.678              1.716              1.552
 Vibration     9          0.697              1.661              1.381
 Vibration    10          0.727              1.576              1.167
 Vibration    11          0.782              1.429              0.896
 Vibration    12          0.833              1.302              0.720
 Vibration    13          0.866              1.225              0.631
 Vibration    14          0.913              1.123              0.529
 Vibration    15          0.966              1.016              0.437

 Optimization completed.
    -- Stationary point found.
 Normal termination of Gaussian 16 at Tue Dec  8 20:15:25 2020.

 ----------------------------------------------------------------------
 # B3LYP/6-311++G(d,p) empiricaldispersion=gd3bj scf=xqc pop=npa geom=c
 heck
 ----------------------------------------------------------------------

 --------------------------------------
 CID_23077762_JID_1681_Energie_neutraal
 --------------------------------------
 Structure from the checkpoint file:  "JID_1681.chk"
 Charge =  0 Multiplicity = 1

 SCF Done:  E(RB3LYP) =  -496.967555147     A.U. after   15 cycles
 Normal termination of Gaussian 16 at Tue Dec  8 20:18:06 2020.

 ----------------------------------------------------------------------
 # B3LYP/6-311++G(d,p) empiricaldispersion=gd3bj scf=xqc pop=npa geom=c
 heck
 ----------------------------------------------------------------------

 ------------------------------------
 CID_23077762_JID_1681_Energie_kation
 ------------------------------------
 Structure from the checkpoint file:  "JID_1681.chk"
 Charge =  1 Multiplicity = 2

 SCF Done:  E(UB3LYP) =  -496.669115771     A.U. after   24 cycles
 Normal termination of Gaussian 16 at Tue Dec  8 20:24:51 2020.
 Gaussian 16:  ES64L-G16RevA.03 25-Dec-2016

 ----------------------------------------------------------------------
 # B3LYP/6-311++G(d,p) empiricaldispersion=gd3bj scf=xqc pop=npa geom=c
 heck
 ----------------------------------------------------------------------

 -----------------------------------
 CID_23077762_JID_1681_Energie_anion
 -----------------------------------
 Structure from the checkpoint file:  "JID_1681.chk"
 Charge = -1 Multiplicity = 2

                         Standard orientation:
 ---------------------------------------------------------------------
 Center     Atomic      Atomic             Coordinates (Angstroms)
 Number     Number       Type             X           Y           Z
 ---------------------------------------------------------------------
      1          6           0       -2.721131    0.430260    1.148320
      2          7           0       -2.505263   -0.375919   -0.047798
      3          6           0       -1.618223    0.252520   -1.028257
      4          6           0       -0.223456    0.585568   -0.534351
      5          6           0        0.670634   -0.438881   -0.145731
      6          7           0        1.896982   -0.239912    0.313234
      7          6           0        2.320301    1.031687    0.425608
      8          6           0        1.538390    2.126055    0.088943
      9          6           0        0.245767    1.884189   -0.396058
     10          8           0        0.209493   -1.711780   -0.262613
     11          6           0        1.108167   -2.761195    0.105857
     12          1           0       -3.226613    1.362338    0.866584
     13          1           0       -1.803162    0.703112    1.697666
     14          1           0       -3.382067   -0.112551    1.831734
     15          1           0       -2.098047   -1.271232    0.212850
     16          1           0       -1.549335   -0.425368   -1.886553
     17          1           0       -2.098073    1.174987   -1.379205
     18          1           0        3.331889    1.160995    0.804678
     19          1           0        1.920088    3.135549    0.200027
     20          1           0       -0.401780    2.713017   -0.673037
     21          1           0        0.555704   -3.686049   -0.067367
     22          1           0        2.013003   -2.733814   -0.507828
     23          1           0        1.397715   -2.677147    1.157323
 ---------------------------------------------------------------------

 SCF Done:  E(UB3LYP) =  -496.950981375     A.U. after   33 cycles
 SCF Done:  E(UB3LYP) =  -496.950981375     a.u. after    1 cycles

 The electronic state is 2-A.
 Alpha  occ. eigenvalues --  -19.05537 -14.20032 -14.19240 -10.15679 -10.11471
 Alpha  occ. eigenvalues --  -10.09830 -10.09323 -10.08131 -10.07843 -10.07473
 Alpha  occ. eigenvalues --  -10.06740  -0.97680  -0.83334  -0.80040  -0.70341
 Alpha  occ. eigenvalues --   -0.66578  -0.60931  -0.59324  -0.54100  -0.50970
 Alpha  occ. eigenvalues --   -0.49879  -0.43214  -0.40484  -0.38902  -0.37404
 Alpha  occ. eigenvalues --   -0.36833  -0.34300  -0.33955  -0.33181  -0.29706
 Alpha  occ. eigenvalues --   -0.29507  -0.29197  -0.28099  -0.26632  -0.25625
 Alpha  occ. eigenvalues --   -0.24806  -0.22782  -0.17998  -0.16658  -0.13210
 Alpha  occ. eigenvalues --   -0.12285   0.04732
 Alpha virt. eigenvalues --    0.06619   0.07252   0.07505   0.08396   0.09273
 Alpha virt. eigenvalues --    0.09448   0.09816   0.10753   0.10917   0.11653
 Alpha virt. eigenvalues --    0.11956   0.13110   0.13765   0.14919   0.16063

  Beta  occ. eigenvalues --  -19.05534 -14.19983 -14.19232 -10.15685 -10.11434
  Beta  occ. eigenvalues --  -10.09775 -10.09315 -10.08107 -10.07780 -10.07437
  Beta  occ. eigenvalues --  -10.06739  -0.97669  -0.83250  -0.80014  -0.70240
  Beta  occ. eigenvalues --   -0.66509  -0.60881  -0.59250  -0.54021  -0.50869
  Beta  occ. eigenvalues --   -0.49833  -0.43157  -0.40422  -0.38863  -0.37350
  Beta  occ. eigenvalues --   -0.36787  -0.34243  -0.33905  -0.33127  -0.29640
  Beta  occ. eigenvalues --   -0.29429  -0.29109  -0.28044  -0.26589  -0.25587
  Beta  occ. eigenvalues --   -0.24763  -0.22704  -0.17711  -0.16594  -0.13096
  Beta  occ. eigenvalues --   -0.12236
  Beta virt. eigenvalues --    0.07018   0.07726   0.07859   0.08165   0.09005
  Beta virt. eigenvalues --    0.09495   0.10035   0.10171   0.11214   0.11384
  Beta virt. eigenvalues --    0.11927   0.12612   0.13279   0.14068   0.14911

 Mulliken charges and spin densities:
               1          2
     1  C    0.187337  -0.625536
     2  N   -0.265166   0.163228
     3  C    1.649007  -2.238008
     4  C   -0.097878   1.964626
     5  C   -3.159751   1.561536
     6  N   -0.184461   0.160699
     7  C    0.506092  -0.676950
     8  C    1.536243  -1.572307
     9  C    0.756033  -1.248770
    10  O   -0.184642   0.033077
    11  C    1.087648  -1.387788
    12  H   -0.106711   0.253196
    13  H    0.071827   0.060998
    14  H   -0.175478   0.305428
    15  H    0.201292   0.049161
    16  H   -0.011726   0.206418
    17  H   -0.088677   0.250945
    18  H   -0.292948   0.464329
    19  H   -0.898406   1.081398
    20  H   -0.641174   0.797616
    21  H   -0.498503   0.644788
    22  H   -0.184532   0.361414
    23  H   -0.205427   0.390501
 Sum of Mulliken charges =  -1.00000   1.00000

 Dipole moment (field-independent basis, Debye):
    X=             -0.9174    Y=             -1.3043    Z=             -0.3680  Tot=              1.6366
 Quadrupole moment (field-independent basis, Debye-Ang):
   XX=           -115.9986   YY=           -128.7610   ZZ=            -93.5612
   XY=             -3.2226   XZ=             -3.1723   YZ=              2.0268

 Summary of Natural Population Analysis:

                                       Natural Population
                Natural  -----------------------------------------------
    Atom  No    Charge         Core      Valence    Rydberg      Total
 -----------------------------------------------------------------------
      C    1   -0.18027      0.99966     2.17352    0.00709     3.18027
      N    2   -0.33787      0.99976     2.82550    0.01261     3.83787
      C    3   -0.09319      0.99959     2.08173    0.01187     3.09319
      C    4   -0.05771      0.99946     2.04665    0.01159     3.05771
      C    5    0.27324      0.99940     1.71187    0.01549     2.72676
      N    6   -0.26137      0.99966     2.75035    0.01136     3.76137
      C    7    0.03860      0.99958     1.94758    0.01424     2.96140
      C    8   -0.13708      0.99956     2.12723    0.01030     3.13708
      C    9   -0.06765      0.99952     2.05679    0.01135     3.06765
      O   10   -0.28169      0.99986     3.27157    0.01026     4.28169
      C   11   -0.10114      0.99959     2.09208    0.00947     3.10114
      H   12    0.08879      0.00000     0.40964    0.00157     0.41121
      H   13    0.08269      0.00000     0.41549    0.00182     0.41731
      H   14    0.09240      0.00000     0.40647    0.00113     0.40760
      H   15    0.17739      0.00000     0.31900    0.00361     0.32261
      H   16    0.10223      0.00000     0.39614    0.00163     0.39777
      H   17    0.09353      0.00000     0.40500    0.00147     0.40647
      H   18    0.08946      0.00000     0.40928    0.00126     0.41054
      H   19    0.10620      0.00000     0.39120    0.00260     0.39380
      H   20    0.10226      0.00000     0.39563    0.00212     0.39774
      H   21    0.09040      0.00000     0.40792    0.00168     0.40960
      H   22    0.09010      0.00000     0.40827    0.00163     0.40990
      H   23    0.09069      0.00000     0.40750    0.00181     0.40931
 =======================================================================
   * Total *   -0.00000     10.99564    29.85643    0.14793    41.00000

 Normal termination of Gaussian 16 at Tue Dec  8 20:45:30 2020.
