 Gaussian 16, Revision A.03,

 -----------------------------------------------------------
 # opt freq B3LYP/6-31G(d) empiricaldispersion=gd3bj scf=xqc
 -----------------------------------------------------------

 -------------------------------
 CID_116660670_JID_4024_neutraal
 -------------------------------
 Symbolic Z-matrix:
 Charge =  0 Multiplicity = 1

 SCF Done:  E(RB3LYP) =  -594.864531520     A.U. after   14 cycles
 SCF Done:  E(RB3LYP) =  -594.867175036     A.U. after   12 cycles
 SCF Done:  E(RB3LYP) =  -594.867158726     A.U. after   12 cycles
 SCF Done:  E(RB3LYP) =  -594.867968829     A.U. after   11 cycles
 SCF Done:  E(RB3LYP) =  -594.868277524     A.U. after   11 cycles
 SCF Done:  E(RB3LYP) =  -594.868563366     A.U. after   11 cycles
 SCF Done:  E(RB3LYP) =  -594.868727887     A.U. after   14 cycles
 SCF Done:  E(RB3LYP) =  -594.869629104     A.U. after   11 cycles
 SCF Done:  E(RB3LYP) =  -594.870918432     A.U. after   12 cycles
 SCF Done:  E(RB3LYP) =  -594.869306324     A.U. after   14 cycles
 SCF Done:  E(RB3LYP) =  -594.873328499     A.U. after    9 cycles
 SCF Done:  E(RB3LYP) =  -594.873329906     A.U. after    9 cycles
 SCF Done:  E(RB3LYP) =  -594.873330354     A.U. after    8 cycles
 SCF Done:  E(RB3LYP) =  -594.873330519     A.U. after    7 cycles
 SCF Done:  E(RB3LYP) =  -594.873330530     A.U. after    6 cycles
 Optimization completed.
    -- Stationary point found.
 Normal termination of Gaussian 16 at Thu Dec 10 09:24:58 2020.

 --------------------------------------------------------------------
 #N Geom=AllCheck Guess=TCheck SCRF=Check GenChk RB3LYP/6-31G(d) Freq
 --------------------------------------------------------------------

 Structure from the checkpoint file:  "JID_4024.chk"
 -------------------------------
 CID_116660670_JID_4024_neutraal
 -------------------------------
 Charge =  0 Multiplicity = 1

 SCF Done:  E(RB3LYP) =  -594.873330530     A.U. after    1 cycles

  Exact polarizability: 145.900   6.562 134.933   5.172   9.579 108.289
 Approx polarizability: 209.711  10.322 199.672   4.828  24.215 159.609

                      1                      2                      3
                      A                      A                      A
 Frequencies --     38.1725                58.5795                66.7706
 Red. masses --      3.5410                 3.4382                 3.5025
 Frc consts  --      0.0030                 0.0070                 0.0092
 IR Inten    --      0.2341                 0.4572                 0.2973

                      4                      5                      6
                      A                      A                      A
 Frequencies --     75.7712                92.0198               108.5219
 Red. masses --      2.7724                 3.2227                 2.6362
 Frc consts  --      0.0094                 0.0161                 0.0183
 IR Inten    --      0.8614                 0.3765                 0.7631

                      7                      8                      9
                      A                      A                      A
 Frequencies --    133.8947               168.3098               180.2006
 Red. masses --      1.8351                 1.7455                 2.9030
 Frc consts  --      0.0194                 0.0291                 0.0555
 IR Inten    --      0.8017                 0.7321                 0.1777

                     10                     11                     12
                      A                      A                      A
 Frequencies --    228.9536               241.3242               249.0974
 Red. masses --      1.4736                 2.2991                 1.6113
 Frc consts  --      0.0455                 0.0789                 0.0589
 IR Inten    --      1.0847                 0.8623                 0.6581

                     13                     14                     15
                      A                      A                      A
 Frequencies --    290.8669               324.9227               353.1038
 Red. masses --      3.0229                 3.0776                 3.6824
 Frc consts  --      0.1507                 0.1914                 0.2705
 IR Inten    --      4.0313                 1.5893                 1.5984

                     16                     17                     18
                      A                      A                      A
 Frequencies --    365.1844               432.3888               457.4082
 Red. masses --      2.2294                 2.0949                 2.6202
 Frc consts  --      0.1752                 0.2308                 0.3230
 IR Inten    --      4.2287                 0.9138                 2.9708

                     19                     20                     21
                      A                      A                      A
 Frequencies --    478.2678               519.1676               665.4391
 Red. masses --      2.2177                 2.2627                 3.4982
 Frc consts  --      0.2989                 0.3593                 0.9127
 IR Inten    --      2.5489                 2.4509                 3.0661

                     22                     23                     24
                      A                      A                      A
 Frequencies --    672.3330               684.7192               704.7701
 Red. masses --      6.5868                 2.5929                 2.0756
 Frc consts  --      1.7543                 0.7162                 0.6074
 IR Inten    --      1.8383                 2.0384                15.9014

                     25                     26                     27
                      A                      A                      A
 Frequencies --    754.7108               787.9863               817.6616
 Red. masses --      1.9747                 1.3655                 1.5179
 Frc consts  --      0.6627                 0.4995                 0.5979
 IR Inten    --     22.2804                39.6399                 3.2556

                     28                     29                     30
                      A                      A                      A
 Frequencies --    850.6794               872.6249               879.8662
 Red. masses --      2.4448                 1.3089                 2.1807
 Frc consts  --      1.0424                 0.5873                 0.9947
 IR Inten    --     58.4450                 2.1838                 2.4178

                     31                     32                     33
                      A                      A                      A
 Frequencies --    891.3627               921.5535               932.7595
 Red. masses --      1.9057                 1.3800                 1.5341
 Frc consts  --      0.8921                 0.6905                 0.7864
 IR Inten    --     40.5081                 4.6922                 2.0233

                     34                     35                     36
                      A                      A                      A
 Frequencies --    944.1954               954.3523               997.3088
 Red. masses --      1.3525                 5.0580                 2.6675
 Frc consts  --      0.7104                 2.7142                 1.5632
 IR Inten    --     33.7472                13.6030                28.8164

                     37                     38                     39
                      A                      A                      A
 Frequencies --   1023.1859              1046.6922              1052.2008
 Red. masses --      1.5703                 1.4293                 1.4851
 Frc consts  --      0.9686                 0.9226                 0.9687
 IR Inten    --      5.2415                17.1467                 6.3787

                     40                     41                     42
                      A                      A                      A
 Frequencies --   1067.9908              1089.4519              1119.3047
 Red. masses --      1.6848                 1.5885                 1.9776
 Frc consts  --      1.1322                 1.1109                 1.4598
 IR Inten    --      4.4864                 3.9384                 6.9044

                     43                     44                     45
                      A                      A                      A
 Frequencies --   1123.7773              1150.7655              1175.3002
 Red. masses --      2.1293                 1.9498                 1.4850
 Frc consts  --      1.5844                 1.5213                 1.2086
 IR Inten    --      5.3946                22.8954                15.9463

                     46                     47                     48
                      A                      A                      A
 Frequencies --   1193.0199              1204.9426              1236.8874
 Red. masses --      1.9136                 2.0878                 1.5624
 Frc consts  --      1.6047                 1.7860                 1.4083
 IR Inten    --     10.6013                 2.3772                 1.1927

                     49                     50                     51
                      A                      A                      A
 Frequencies --   1256.2609              1276.1206              1288.9626
 Red. masses --      2.6407                 1.4269                 1.5999
 Frc consts  --      2.4555                 1.3690                 1.5661
 IR Inten    --      6.4642                 3.9109                24.5494

                     52                     53                     54
                      A                      A                      A
 Frequencies --   1313.0865              1330.9525              1344.3786
 Red. masses --      1.2566                 1.2550                 1.6537
 Frc consts  --      1.2766                 1.3098                 1.7610
 IR Inten    --      1.3381                 1.1994                 8.8695

                     55                     56                     57
                      A                      A                      A
 Frequencies --   1362.7341              1376.5586              1395.4844
 Red. masses --      2.1601                 1.3860                 1.9005
 Frc consts  --      2.3634                 1.5475                 2.1805
 IR Inten    --     13.8184                 2.3839                30.0767

                     58                     59                     60
                      A                      A                      A
 Frequencies --   1411.2098              1418.0334              1447.7443
 Red. masses --      1.4242                 1.3519                 2.8026
 Frc consts  --      1.6711                 1.6016                 3.4609
 IR Inten    --      2.5107                21.0491                27.2289

                     61                     62                     63
                      A                      A                      A
 Frequencies --   1449.6454              1472.8737              1483.4179
 Red. masses --      1.2882                 1.1751                 1.1670
 Frc consts  --      1.5950                 1.5019                 1.5130
 IR Inten    --      4.6473                 2.0397                 4.3496

                     64                     65                     66
                      A                      A                      A
 Frequencies --   1500.7936              1510.5589              1512.3530
 Red. masses --      1.2069                 1.1142                 1.0906
 Frc consts  --      1.6017                 1.4980                 1.4697
 IR Inten    --      4.1986                11.6753                 1.6936

                     67                     68                     69
                      A                      A                      A
 Frequencies --   1523.4231              1525.8410              1527.5481
 Red. masses --      1.5018                 1.3034                 1.0876
 Frc consts  --      2.0535                 1.7879                 1.4952
 IR Inten    --     11.3637                11.8003                 1.4426

                     70                     71                     72
                      A                      A                      A
 Frequencies --   1529.5425              1532.5802              1549.4817
 Red. masses --      1.4336                 1.0977                 1.0626
 Frc consts  --      1.9761                 1.5191                 1.5031
 IR Inten    --     24.5167                 4.7802                12.9294

                     73                     74                     75
                      A                      A                      A
 Frequencies --   1571.8694              1725.5682              2973.7877
 Red. masses --      4.9223                 4.3772                 1.0583
 Frc consts  --      7.1655                 7.6792                 5.5142
 IR Inten    --      2.3987                 5.3457                80.3485

                     76                     77                     78
                      A                      A                      A
 Frequencies --   3042.4962              3043.1384              3054.7874
 Red. masses --      1.0781                 1.0635                 1.0367
 Frc consts  --      5.8797                 5.8028                 5.6996
 IR Inten    --      7.4282                33.2200                26.0824

                     79                     80                     81
                      A                      A                      A
 Frequencies --   3056.3827              3081.0006              3081.7317
 Red. masses --      1.0647                 1.0938                 1.0772
 Frc consts  --      5.8601                 6.1177                 6.0273
 IR Inten    --     39.6824                12.5783                39.7612

                     82                     83                     84
                      A                      A                      A
 Frequencies --   3094.0451              3109.0917              3119.9538
 Red. masses --      1.1038                 1.0674                 1.1007
 Frc consts  --      6.2258                 6.0790                 6.3125
 IR Inten    --     23.2363                23.6169                36.9041

                     85                     86                     87
                      A                      A                      A
 Frequencies --   3126.6237              3133.7162              3152.2030
 Red. masses --      1.1031                 1.1013                 1.0588
 Frc consts  --      6.3538                 6.3722                 6.1983
 IR Inten    --     25.4655                42.1940                13.3414

                     88                     89                     90
                      A                      A                      A
 Frequencies --   3165.0413              3173.4701              3235.1614
 Red. masses --      1.0917                 1.1035                 1.1152
 Frc consts  --      6.4432                 6.5476                 6.8772
 IR Inten    --      6.9800                 1.9968                16.7571

                     91                     92                     93
                      A                      A                      A
 Frequencies --   3249.0906              3266.9092              3486.8069
 Red. masses --      1.0911                 1.1019                 1.0732
 Frc consts  --      6.7865                 6.9289                 7.6873
 IR Inten    --     11.3655                 7.4924                 3.3175

 - Thermochemistry -
 -------------------
 Temperature   298.150 Kelvin.  Pressure   1.00000 Atm.
 Atom     1 has atomic number  6 and mass  12.00000

 Molecular mass:   193.15790 amu.
 Principal axes and moments of inertia in atomic units:
                           1         2         3
     Eigenvalues --  2212.125663227.918603663.49498
           X            0.99872  -0.04717   0.01799
           Y            0.04713   0.99888   0.00281
           Z           -0.01810  -0.00196   0.99983
 This molecule is an asymmetric top.
 Rotational symmetry number  1.
 Warning -- assumption of classical behavior for rotation
           may cause significant error
 Rotational temperatures (Kelvin)      0.03915     0.02683     0.02364
 Rotational constants (GHZ):           0.81584     0.55910     0.49263
 Zero-point vibrational energy     771359.4 (Joules/Mol)
                                  184.35933 (Kcal/Mol)
 Warning -- explicit consideration of  20 degrees of freedom as
           vibrations may cause significant error
 Vibrational temperatures:     54.92    84.28    96.07   109.02   132.40
          (Kelvin)            156.14   192.64   242.16   259.27   329.41
                              347.21   358.40   418.49   467.49   508.04
                              525.42   622.11   658.11   688.12   746.97
                              957.42   967.34   985.16  1014.01  1085.86
                             1133.74  1176.43  1223.94  1255.51  1265.93
                             1282.47  1325.91  1342.03  1358.49  1373.10
                             1434.90  1472.14  1505.96  1513.88  1536.60
                             1567.48  1610.43  1616.86  1655.69  1690.99
                             1716.49  1733.64  1779.61  1807.48  1836.05
                             1854.53  1889.24  1914.94  1934.26  1960.67
                             1980.56  2007.79  2030.42  2040.23  2082.98
                             2085.72  2119.14  2134.31  2159.31  2173.36
                             2175.94  2191.87  2195.34  2197.80  2200.67
                             2205.04  2229.36  2261.57  2482.71  4278.62
                             4377.47  4378.40  4395.16  4397.45  4432.87
                             4433.92  4451.64  4473.29  4488.92  4498.51
                             4508.72  4535.32  4553.79  4565.92  4654.68
                             4674.72  4700.35  5016.74

 Zero-point correction=                           0.293795 (Hartree/Particle)
 Thermal correction to Energy=                    0.308895
 Thermal correction to Enthalpy=                  0.309839
 Thermal correction to Gibbs Free Energy=         0.251080
 Sum of electronic and zero-point Energies=           -594.579535
 Sum of electronic and thermal Energies=              -594.564435
 Sum of electronic and thermal Enthalpies=            -594.563491
 Sum of electronic and thermal Free Energies=         -594.622250

                     E (Thermal)             CV                S
                      KCal/Mol        Cal/Mol-Kelvin    Cal/Mol-Kelvin
 Total                  193.835             55.912            123.669
 Electronic               0.000              0.000              0.000
 Translational            0.889              2.981             41.680
 Rotational               0.889              2.981             31.637
 Vibrational            192.057             49.951             50.351
 Vibration     1          0.594              1.982              5.352
 Vibration     2          0.596              1.974              4.504
 Vibration     3          0.598              1.970              4.246
 Vibration     4          0.599              1.965              3.998
 Vibration     5          0.602              1.955              3.617
 Vibration     6          0.606              1.942              3.295
 Vibration     7          0.613              1.919              2.889
 Vibration     8          0.625              1.881              2.454
 Vibration     9          0.629              1.867              2.326
 Vibration    10          0.652              1.797              1.887
 Vibration    11          0.658              1.777              1.793
 Vibration    12          0.662              1.764              1.737
 Vibration    13          0.687              1.691              1.469
 Vibration    14          0.709              1.626              1.285
 Vibration    15          0.729              1.569              1.152
 Vibration    16          0.738              1.544              1.100
 Vibration    17          0.793              1.400              0.851
 Vibration    18          0.816              1.345              0.774
 Vibration    19          0.835              1.298              0.715
 Vibration    20          0.874              1.208              0.612

 Optimization completed.
    -- Stationary point found.
 Normal termination of Gaussian 16 at Thu Dec 10 09:35:55 2020.

 ----------------------------------------------------------------------
 # B3LYP/6-311++G(d,p) empiricaldispersion=gd3bj scf=xqc pop=npa geom=c
 heck
 ----------------------------------------------------------------------

 ---------------------------------------
 CID_116660670_JID_4024_Energie_neutraal
 ---------------------------------------
 Structure from the checkpoint file:  "JID_4024.chk"
 Charge =  0 Multiplicity = 1

 SCF Done:  E(RB3LYP) =  -595.037882471     A.U. after   15 cycles
 Normal termination of Gaussian 16 at Thu Dec 10 09:41:05 2020.

 ----------------------------------------------------------------------
 # B3LYP/6-311++G(d,p) empiricaldispersion=gd3bj scf=xqc pop=npa geom=c
 heck
 ----------------------------------------------------------------------

 -------------------------------------
 CID_116660670_JID_4024_Energie_kation
 -------------------------------------
 Structure from the checkpoint file:  "JID_4024.chk"
 Charge =  1 Multiplicity = 2

 SCF Done:  E(UB3LYP) =  -594.740632670     A.U. after   28 cycles
 Normal termination of Gaussian 16 at Thu Dec 10 09:53:32 2020.
 Gaussian 16:  ES64L-G16RevA.03 25-Dec-2016

 ----------------------------------------------------------------------
 # B3LYP/6-311++G(d,p) empiricaldispersion=gd3bj scf=xqc pop=npa geom=c
 heck
 ----------------------------------------------------------------------

 ------------------------------------
 CID_116660670_JID_4024_Energie_anion
 ------------------------------------
 Structure from the checkpoint file:  "JID_4024.chk"
 Charge = -1 Multiplicity = 2

                         Standard orientation:
 ---------------------------------------------------------------------
 Center     Atomic      Atomic             Coordinates (Angstroms)
 Number     Number       Type             X           Y           Z
 ---------------------------------------------------------------------
      1          6           0       -2.159451    2.332946   -0.406651
      2          6           0       -1.093434    2.066527    0.657474
      3          6           0       -1.297224    0.753900    1.424745
      4          7           0       -1.333687   -0.421476    0.556214
      5          6           0       -0.323868   -1.166336    0.011347
      6          6           0       -0.943439   -2.108754   -0.801613
      7          6           0       -2.321296   -1.853290   -0.684216
      8          7           0       -2.559716   -0.831212    0.134721
      9          6           0        1.171524   -1.029468    0.220447
     10          6           0        1.878332   -0.735250   -1.141710
     11          6           0        1.447452    0.578965   -1.721631
     12          6           0        2.204867    1.678127   -1.752171
     13          7           0        1.549938   -0.084945    1.270641
     14          6           0        2.853395   -0.359392    1.867347
     15          1           0       -2.160704    1.547207   -1.168161
     16          1           0       -1.981737    3.293557   -0.902940
     17          1           0       -3.162274    2.354987    0.033924
     18          1           0       -0.103081    2.067310    0.186803
     19          1           0       -1.086855    2.878364    1.397375
     20          1           0       -0.503278    0.605621    2.155593
     21          1           0       -2.265283    0.761044    1.931051
     22          1           0       -0.454824   -2.883547   -1.375945
     23          1           0       -3.149876   -2.371740   -1.148952
     24          1           0        1.524486   -2.013590    0.553800
     25          1           0        2.962844   -0.740848   -0.980380
     26          1           0        1.648197   -1.549715   -1.838983
     27          1           0        0.423874    0.623312   -2.092467
     28          1           0        1.836663    2.617320   -2.155920
     29          1           0        3.232175    1.672334   -1.392227
     30          1           0        1.556800    0.853993    0.874897
     31          1           0        3.690927   -0.417182    1.150183
     32          1           0        3.084175    0.427684    2.591878
     33          1           0        2.810881   -1.310544    2.409234
 ---------------------------------------------------------------------

 SCF Done:  E(UB3LYP) =  -595.023379852     A.U. after   33 cycles
 SCF Done:  E(UB3LYP) =  -595.023379853     a.u. after    1 cycles

 The electronic state is 2-A.
 Alpha  occ. eigenvalues --  -14.28962 -14.22648 -14.20363 -10.12097 -10.11399
 Alpha  occ. eigenvalues --  -10.10806 -10.09146 -10.08518 -10.08209 -10.07785
 Alpha  occ. eigenvalues --  -10.07712 -10.07057 -10.06540 -10.06411  -0.94832
 Alpha  occ. eigenvalues --   -0.81887  -0.74776  -0.71327  -0.69191  -0.67013
 Alpha  occ. eigenvalues --   -0.62725  -0.59397  -0.57453  -0.53178  -0.51795
 Alpha  occ. eigenvalues --   -0.50160  -0.46700  -0.44551  -0.42398  -0.38248
 Alpha  occ. eigenvalues --   -0.38040  -0.37394  -0.36890  -0.35229  -0.34301
 Alpha  occ. eigenvalues --   -0.33181  -0.32353  -0.32004  -0.31207  -0.30327
 Alpha  occ. eigenvalues --   -0.29675  -0.28154  -0.27811  -0.26159  -0.25935
 Alpha  occ. eigenvalues --   -0.25716  -0.24853  -0.24542  -0.19537  -0.17487
 Alpha  occ. eigenvalues --   -0.15645  -0.14439  -0.13288   0.04441
 Alpha virt. eigenvalues --    0.06338   0.06830   0.07538   0.08154   0.08745
 Alpha virt. eigenvalues --    0.08891   0.09383   0.09840   0.10213   0.10782
 Alpha virt. eigenvalues --    0.11160   0.11753   0.11939   0.12231   0.12468

  Beta  occ. eigenvalues --  -14.28958 -14.22647 -14.20353 -10.12085 -10.11400
  Beta  occ. eigenvalues --  -10.10802 -10.09144 -10.08466 -10.08203 -10.07773
  Beta  occ. eigenvalues --  -10.07688 -10.07018 -10.06528 -10.06399  -0.94827
  Beta  occ. eigenvalues --   -0.81867  -0.74768  -0.71303  -0.69169  -0.66994
  Beta  occ. eigenvalues --   -0.62684  -0.59379  -0.57370  -0.53116  -0.51764
  Beta  occ. eigenvalues --   -0.50144  -0.46636  -0.44526  -0.42371  -0.38206
  Beta  occ. eigenvalues --   -0.38003  -0.37367  -0.36867  -0.35184  -0.34269
  Beta  occ. eigenvalues --   -0.33153  -0.32314  -0.31987  -0.31168  -0.30285
  Beta  occ. eigenvalues --   -0.29651  -0.28108  -0.27768  -0.26135  -0.25904
  Beta  occ. eigenvalues --   -0.25691  -0.24836  -0.24508  -0.19533  -0.17431
  Beta  occ. eigenvalues --   -0.15634  -0.14428  -0.13260
  Beta virt. eigenvalues --    0.06583   0.07133   0.07585   0.08119   0.08277
  Beta virt. eigenvalues --    0.09213   0.09352   0.09939   0.09948   0.10533
  Beta virt. eigenvalues --    0.11135   0.11589   0.12151   0.12218   0.12624

 Mulliken charges and spin densities:
               1          2
     1  C    0.089135  -0.704409
     2  C   -0.442294   0.455827
     3  C   -0.116597  -0.376575
     4  N    0.325904  -0.005429
     5  C   -0.660729   0.160966
     6  C    0.469962  -0.077939
     7  C    0.106796  -0.563247
     8  N   -0.250820   0.111292
     9  C   -0.064889  -0.068412
    10  C    1.200534  -1.944646
    11  C   -1.520587   1.818917
    12  C    0.918761  -1.522869
    13  N   -0.233047   0.131065
    14  C    1.555714  -1.862835
    15  H    0.104238   0.073340
    16  H   -0.150405   0.282748
    17  H    0.116044   0.016677
    18  H    0.226725  -0.078471
    19  H   -0.228077   0.390572
    20  H    0.116472   0.101307
    21  H    0.091504   0.094729
    22  H   -0.416800   0.589415
    23  H    0.056820   0.079295
    24  H   -0.250603   0.464325
    25  H   -0.250392   0.435048
    26  H   -0.057355   0.202826
    27  H   -0.040431   0.198971
    28  H   -0.248702   0.367734
    29  H   -0.312364   0.470299
    30  H    0.054651   0.140777
    31  H   -0.279536   0.415936
    32  H   -0.521773   0.661437
    33  H   -0.387858   0.541327
 Sum of Mulliken charges =  -1.00000   1.00000

 Dipole moment (field-independent basis, Debye):
    X=             -6.3556    Y=             -0.1619    Z=             -0.9497  Tot=              6.4282
 Quadrupole moment (field-independent basis, Debye-Ang):
   XX=           -156.9474   YY=           -136.7414   ZZ=           -130.7850
   XY=              2.4509   XZ=             -4.3956   YZ=              2.9168

 Summary of Natural Population Analysis:

                                       Natural Population
                Natural  -----------------------------------------------
    Atom  No    Charge         Core      Valence    Rydberg      Total
 -----------------------------------------------------------------------
      C    1   -0.28746      0.99967     2.28199    0.00581     3.28746
      C    2   -0.19686      0.99963     2.19015    0.00708     3.19686
      C    3   -0.08666      0.99959     2.07601    0.01105     3.08666
      N    4   -0.10971      0.99961     2.59618    0.01391     3.60971
      C    5    0.09034      0.99949     1.89634    0.01383     2.90966
      C    6   -0.16744      0.99950     2.15949    0.00845     3.16744
      C    7   -0.01659      0.99963     2.00289    0.01407     3.01659
      N    8   -0.16103      0.99974     2.65123    0.01006     3.66103
      C    9   -0.01865      0.99955     2.00529    0.01381     3.01865
      C   10   -0.21261      0.99959     2.20184    0.01117     3.21261
      C   11   -0.09144      0.99956     2.08092    0.01097     3.09144
      C   12   -0.18947      0.99955     2.18188    0.00804     3.18947
      N   13   -0.34720      0.99974     2.83526    0.01219     3.84720
      C   14   -0.17510      0.99965     2.16731    0.00815     3.17510
      H   15    0.10207      0.00000     0.39676    0.00118     0.39793
      H   16    0.09780      0.00000     0.40136    0.00084     0.40220
      H   17    0.09667      0.00000     0.40248    0.00085     0.40333
      H   18    0.09849      0.00000     0.39941    0.00210     0.40151
      H   19    0.09650      0.00000     0.40233    0.00116     0.40350
      H   20    0.11745      0.00000     0.38115    0.00140     0.38255
      H   21    0.10149      0.00000     0.39711    0.00140     0.39851
      H   22    0.10884      0.00000     0.39009    0.00107     0.39116
      H   23    0.09505      0.00000     0.40419    0.00076     0.40495
      H   24    0.10733      0.00000     0.39063    0.00205     0.39267
      H   25    0.10574      0.00000     0.39248    0.00178     0.39426
      H   26    0.10662      0.00000     0.39177    0.00161     0.39338
      H   27    0.09625      0.00000     0.40222    0.00153     0.40375
      H   28    0.09507      0.00000     0.40379    0.00114     0.40493
      H   29    0.09411      0.00000     0.40428    0.00161     0.40589
      H   30    0.17659      0.00000     0.31920    0.00420     0.32341
      H   31    0.08313      0.00000     0.41423    0.00264     0.41687
      H   32    0.09737      0.00000     0.40116    0.00147     0.40263
      H   33    0.09336      0.00000     0.40501    0.00164     0.40664
 =======================================================================
   * Total *    0.00002     13.99450    38.82642    0.17906    52.99998

 Normal termination of Gaussian 16 at Thu Dec 10 10:08:06 2020.
