 Gaussian 16, Revision A.03,

 -----------------------------------------------------------
 # opt freq B3LYP/6-31G(d) empiricaldispersion=gd3bj scf=xqc
 -----------------------------------------------------------

 -------------------------------
 CID_152457166_JID_7489_neutraal
 -------------------------------
 Symbolic Z-matrix:
 Charge =  0 Multiplicity = 1

 SCF Done:  E(RB3LYP) =  -775.864061925     A.U. after   16 cycles
 SCF Done:  E(RB3LYP) =  -775.871728902     A.U. after   15 cycles
 SCF Done:  E(RB3LYP) =  -775.873149120     A.U. after   15 cycles
 SCF Done:  E(RB3LYP) =  -775.873806707     A.U. after   14 cycles
 SCF Done:  E(RB3LYP) =  -775.874046473     A.U. after   12 cycles
 SCF Done:  E(RB3LYP) =  -775.874129963     A.U. after   14 cycles
 SCF Done:  E(RB3LYP) =  -775.874164397     A.U. after   13 cycles
 SCF Done:  E(RB3LYP) =  -775.874223537     A.U. after   14 cycles
 SCF Done:  E(RB3LYP) =  -775.874307829     A.U. after   17 cycles
 SCF Done:  E(RB3LYP) =  -775.874405992     A.U. after   11 cycles
 SCF Done:  E(RB3LYP) =  -775.874887543     A.U. after   13 cycles
 SCF Done:  E(RB3LYP) =  -775.874890509     A.U. after   11 cycles
 SCF Done:  E(RB3LYP) =  -775.874891797     A.U. after   10 cycles
 SCF Done:  E(RB3LYP) =  -775.874892468     A.U. after   10 cycles
 SCF Done:  E(RB3LYP) =  -775.874892778     A.U. after   10 cycles
 SCF Done:  E(RB3LYP) =  -775.874892952     A.U. after    9 cycles
 Optimization completed.
    -- Stationary point found.
 Normal termination of Gaussian 16 at Sun Dec 13 20:31:24 2020.

 --------------------------------------------------------------------
 #N Geom=AllCheck Guess=TCheck SCRF=Check GenChk RB3LYP/6-31G(d) Freq
 --------------------------------------------------------------------

 Structure from the checkpoint file:  "JID_7489.chk"
 -------------------------------
 CID_152457166_JID_7489_neutraal
 -------------------------------
 Charge =  0 Multiplicity = 1

 SCF Done:  E(RB3LYP) =  -775.874892952     A.U. after    1 cycles

  Exact polarizability: 190.895 -21.939 204.914   1.280  16.890  86.182
 Approx polarizability: 312.932 -52.231 337.689  -2.754  41.924 136.525

                      1                      2                      3
                      A                      A                      A
 Frequencies --     33.4186                41.6304                45.3593
 Red. masses --      6.5528                 8.7305                 3.6568
 Frc consts  --      0.0043                 0.0089                 0.0044
 IR Inten    --      0.1386                 0.6179                 0.0845

                      4                      5                      6
                      A                      A                      A
 Frequencies --     62.5359                89.8400               136.7872
 Red. masses --      3.6956                 2.6403                 3.3606
 Frc consts  --      0.0085                 0.0126                 0.0370
 IR Inten    --      0.0236                 0.6913                 1.0231

                      7                      8                      9
                      A                      A                      A
 Frequencies --    143.6681               178.3758               192.2565
 Red. masses --      3.1725                 5.0944                 2.2769
 Frc consts  --      0.0386                 0.0955                 0.0496
 IR Inten    --      1.2290                 1.0181                 0.7250

                     10                     11                     12
                      A                      A                      A
 Frequencies --    204.4930               241.3637               267.6767
 Red. masses --      1.3663                 1.7800                 3.1997
 Frc consts  --      0.0337                 0.0611                 0.1351
 IR Inten    --      0.2732                 0.0813                 1.5561

                     13                     14                     15
                      A                      A                      A
 Frequencies --    286.2113               320.0182               333.8630
 Red. masses --      7.7111                 3.4904                 3.1669
 Frc consts  --      0.3722                 0.2106                 0.2080
 IR Inten    --      3.7079                 1.3557                 0.3142

                     16                     17                     18
                      A                      A                      A
 Frequencies --    359.4574               378.1623               429.8062
 Red. masses --      4.3242                 2.5608                 3.0867
 Frc consts  --      0.3292                 0.2158                 0.3360
 IR Inten    --      0.1422                 0.9574                 1.7181

                     19                     20                     21
                      A                      A                      A
 Frequencies --    481.5709               487.0510               519.4438
 Red. masses --      5.4950                 6.2321                12.7620
 Frc consts  --      0.7508                 0.8710                 2.0288
 IR Inten    --      0.1118                 2.7646                 4.6963

                     22                     23                     24
                      A                      A                      A
 Frequencies --    563.7839               610.1941               627.1813
 Red. masses --      4.3353                 3.6913                 3.9388
 Frc consts  --      0.8119                 0.8098                 0.9129
 IR Inten    --      1.8927                 1.9011                 4.0972

                     25                     26                     27
                      A                      A                      A
 Frequencies --    655.4063               690.0697               696.4151
 Red. masses --      4.4740                11.1870                 4.2115
 Frc consts  --      1.1323                 3.1387                 1.2034
 IR Inten    --      1.8533                 1.5343                 2.3433

                     28                     29                     30
                      A                      A                      A
 Frequencies --    725.2780               734.4037               759.3725
 Red. masses --      1.2836                 2.1083                 3.8882
 Frc consts  --      0.3978                 0.6700                 1.3210
 IR Inten    --     45.8827                16.2172                 2.0010

                     31                     32                     33
                      A                      A                      A
 Frequencies --    781.5082               812.8152               838.3535
 Red. masses --      2.0962                 1.9907                 6.8539
 Frc consts  --      0.7543                 0.7749                 2.8382
 IR Inten    --      9.4888                16.9942                14.2370

                     34                     35                     36
                      A                      A                      A
 Frequencies --    868.7365               879.1289               880.4747
 Red. masses --      3.4960                 1.6711                 1.7489
 Frc consts  --      1.5545                 0.7610                 0.7988
 IR Inten    --      6.5742                 2.8399                 3.7702

                     37                     38                     39
                      A                      A                      A
 Frequencies --    905.9751               932.1970              1021.3991
 Red. masses --      2.3337                 1.7374                 2.2444
 Frc consts  --      1.1286                 0.8895                 1.3796
 IR Inten    --     10.2270                 8.7680                10.5581

                     40                     41                     42
                      A                      A                      A
 Frequencies --   1045.9806              1064.7934              1071.3398
 Red. masses --      1.8355                 1.4397                 1.4036
 Frc consts  --      1.1832                 0.9617                 0.9492
 IR Inten    --      9.0061                16.3866                 5.3292

                     43                     44                     45
                      A                      A                      A
 Frequencies --   1094.7605              1098.9664              1107.3292
 Red. masses --      1.7128                 2.0179                 1.8448
 Frc consts  --      1.2094                 1.4359                 1.3328
 IR Inten    --     16.1834                27.1322                 5.2983

                     46                     47                     48
                      A                      A                      A
 Frequencies --   1142.8301              1161.8260              1206.2785
 Red. masses --      2.3574                 2.7827                13.7123
 Frc consts  --      1.8140                 2.2131                11.7559
 IR Inten    --     23.2745                 0.6831                55.8870

                     49                     50                     51
                      A                      A                      A
 Frequencies --   1256.9304              1272.6086              1277.7802
 Red. masses --      1.4083                 1.9666                 4.6901
 Frc consts  --      1.3109                 1.8765                 4.5117
 IR Inten    --      3.1420                 3.6558                68.0906

                     52                     53                     54
                      A                      A                      A
 Frequencies --   1302.7703              1348.0194              1366.5887
 Red. masses --      1.2635                 4.1535                 2.1294
 Frc consts  --      1.2634                 4.4469                 2.3431
 IR Inten    --      3.3682                79.4037                 3.3661

                     55                     56                     57
                      A                      A                      A
 Frequencies --   1391.9797              1397.0068              1412.5892
 Red. masses --      1.5057                 2.2131                 4.2187
 Frc consts  --      1.7190                 2.5447                 4.9598
 IR Inten    --      4.4644                33.2134                21.6347

                     58                     59                     60
                      A                      A                      A
 Frequencies --   1442.7067              1447.8024              1479.8395
 Red. masses --      1.3022                 1.2659                 4.7272
 Frc consts  --      1.5969                 1.5635                 6.0993
 IR Inten    --      6.0428                 4.2582                 6.9438

                     61                     62                     63
                      A                      A                      A
 Frequencies --   1499.8695              1504.0212              1511.8092
 Red. masses --      2.6339                 1.5588                 1.3745
 Frc consts  --      3.4910                 2.0776                 1.8510
 IR Inten    --      9.2584                12.5782                 1.2708

                     64                     65                     66
                      A                      A                      A
 Frequencies --   1520.6205              1526.5891              1530.1915
 Red. masses --      1.1211                 1.4771                 1.0676
 Frc consts  --      1.5273                 2.0282                 1.4728
 IR Inten    --      1.2052                34.9662                 0.8133

                     67                     68                     69
                      A                      A                      A
 Frequencies --   1535.3062              1541.5851              1586.0711
 Red. masses --      1.0940                 1.2600                 5.0983
 Frc consts  --      1.5194                 1.7642                 7.5566
 IR Inten    --      3.3996                26.3842                40.5325

                     70                     71                     72
                      A                      A                      A
 Frequencies --   1680.3751              2188.5933              3046.3310
 Red. masses --      9.5686                13.9959                 1.0622
 Frc consts  --     15.9188                39.4987                 5.8078
 IR Inten    --     42.5387               461.3154                15.8411

                     73                     74                     75
                      A                      A                      A
 Frequencies --   3052.0281              3052.8960              3058.7113
 Red. masses --      1.0418                 1.0400                 1.0610
 Frc consts  --      5.7178                 5.7109                 5.8482
 IR Inten    --     19.9701                20.7101                52.5777

                     76                     77                     78
                      A                      A                      A
 Frequencies --   3080.5928              3112.6701              3113.5801
 Red. masses --      1.1016                 1.0994                 1.0944
 Frc consts  --      6.1594                 6.2760                 6.2512
 IR Inten    --     16.2293                 5.5458                17.6100

                     79                     80                     81
                      A                      A                      A
 Frequencies --   3120.3266              3126.0086              3146.3292
 Red. masses --      1.1016                 1.1023                 1.1004
 Frc consts  --      6.3191                 6.3462                 6.4184
 IR Inten    --     42.2088                55.3324                13.0349

                     82                     83                     84
                      A                      A                      A
 Frequencies --   3260.3911              3284.9167              3303.8539
 Red. masses --      1.0918                 1.0976                 1.0999
 Frc consts  --      6.8384                 6.9780                 7.0735
 IR Inten    --      6.6776                 1.1570                 0.0688

 - Thermochemistry -
 -------------------
 Temperature   298.150 Kelvin.  Pressure   1.00000 Atm.
 Atom     1 has atomic number  6 and mass  12.00000

 Molecular mass:   231.11201 amu.
 Principal axes and moments of inertia in atomic units:
                           1         2         3
     Eigenvalues --  3368.175334298.645946937.00708
           X            0.99533   0.09553  -0.01355
           Y           -0.09552   0.99543   0.00126
           Z            0.01361   0.00005   0.99991
 This molecule is an asymmetric top.
 Rotational symmetry number  1.
 Warning -- assumption of classical behavior for rotation
           may cause significant error
 Rotational temperatures (Kelvin)      0.02572     0.02015     0.01249
 Rotational constants (GHZ):           0.53582     0.41984     0.26016
 Zero-point vibrational energy     621998.8 (Joules/Mol)
                                  148.66128 (Kcal/Mol)
 Warning -- explicit consideration of  23 degrees of freedom as
           vibrations may cause significant error
 Vibrational temperatures:     48.08    59.90    65.26    89.98   129.26
          (Kelvin)            196.81   206.71   256.64   276.61   294.22
                              347.27   385.13   411.79   460.43   480.35
                              517.18   544.09   618.40   692.87   700.76
                              747.36   811.16   877.93   902.37   942.98
                              992.86  1001.99  1043.51  1056.64  1092.57
                             1124.42  1169.46  1206.20  1249.92  1264.87
                             1266.81  1303.50  1341.22  1469.57  1504.93
                             1532.00  1541.42  1575.12  1581.17  1593.20
                             1644.28  1671.61  1735.57  1808.44  1831.00
                             1838.44  1874.40  1939.50  1966.22  2002.75
                             2009.98  2032.40  2075.73  2083.06  2129.16
                             2157.98  2163.95  2175.16  2187.83  2196.42
                             2201.60  2208.96  2218.00  2282.00  2417.69
                             3148.90  4382.99  4391.19  4392.44  4400.80
                             4432.29  4478.44  4479.75  4489.45  4497.63
                             4526.87  4690.98  4726.26  4753.51

 Zero-point correction=                           0.236907 (Hartree/Particle)
 Thermal correction to Energy=                    0.252776
 Thermal correction to Enthalpy=                  0.253720
 Thermal correction to Gibbs Free Energy=         0.192326
 Sum of electronic and zero-point Energies=           -775.637986
 Sum of electronic and thermal Energies=              -775.622117
 Sum of electronic and thermal Enthalpies=            -775.621173
 Sum of electronic and thermal Free Energies=         -775.682567

                     E (Thermal)             CV                S
                      KCal/Mol        Cal/Mol-Kelvin    Cal/Mol-Kelvin
 Total                  158.619             59.270            129.216
 Electronic               0.000              0.000              0.000
 Translational            0.889              2.981             42.215
 Rotational               0.889              2.981             32.974
 Vibrational            156.842             53.308             54.027
 Vibration     1          0.594              1.983              5.615
 Vibration     2          0.594              1.981              5.180
 Vibration     3          0.595              1.979              5.010
 Vibration     4          0.597              1.972              4.376
 Vibration     5          0.602              1.956              3.664
 Vibration     6          0.614              1.917              2.848
 Vibration     7          0.616              1.909              2.754
 Vibration     8          0.629              1.869              2.345
 Vibration     9          0.634              1.851              2.206
 Vibration    10          0.640              1.833              2.092
 Vibration    11          0.658              1.777              1.793
 Vibration    12          0.673              1.733              1.611
 Vibration    13          0.684              1.699              1.496
 Vibration    14          0.706              1.635              1.310
 Vibration    15          0.715              1.608              1.241
 Vibration    16          0.734              1.556              1.124
 Vibration    17          0.748              1.517              1.047
 Vibration    18          0.791              1.405              0.859
 Vibration    19          0.838              1.291              0.706
 Vibration    20          0.843              1.279              0.691
 Vibration    21          0.874              1.207              0.611
 Vibration    22          0.920              1.110              0.516
 Vibration    23          0.969              1.010              0.432

                           ! Non-Optimized Parameters !
 Normal termination of Gaussian 16 at Sun Dec 13 20:43:15 2020.

 ----------------------------------------------------------------------
 # B3LYP/6-311++G(d,p) empiricaldispersion=gd3bj scf=xqc pop=npa geom=c
 heck
 ----------------------------------------------------------------------

 ---------------------------------------
 CID_152457166_JID_7489_Energie_neutraal
 ---------------------------------------
 Structure from the checkpoint file:  "JID_7489.chk"
 Charge =  0 Multiplicity = 1

 SCF Done:  E(RB3LYP) =  -776.078519573     A.U. after   18 cycles
 Normal termination of Gaussian 16 at Sun Dec 13 20:49:44 2020.

 ----------------------------------------------------------------------
 # B3LYP/6-311++G(d,p) empiricaldispersion=gd3bj scf=xqc pop=npa geom=c
 heck
 ----------------------------------------------------------------------

 -------------------------------------
 CID_152457166_JID_7489_Energie_kation
 -------------------------------------
 Structure from the checkpoint file:  "JID_7489.chk"
 Charge =  1 Multiplicity = 2

 SCF Done:  E(UB3LYP) =  -775.805887847     A.U. after   27 cycles
 Normal termination of Gaussian 16 at Sun Dec 13 21:03:18 2020.
 Gaussian 16:  ES64L-G16RevA.03 25-Dec-2016

 ----------------------------------------------------------------------
 # B3LYP/6-311++G(d,p) empiricaldispersion=gd3bj scf=xqc pop=npa geom=c
 heck
 ----------------------------------------------------------------------

 ------------------------------------
 CID_152457166_JID_7489_Energie_anion
 ------------------------------------
 Structure from the checkpoint file:  "JID_7489.chk"
 Charge = -1 Multiplicity = 2

                         Standard orientation:
 ---------------------------------------------------------------------
 Center     Atomic      Atomic             Coordinates (Angstroms)
 Number     Number       Type             X           Y           Z
 ---------------------------------------------------------------------
      1          6           0       -2.640995   -2.295109    1.608817
      2          6           0       -2.067207   -2.907271    0.329231
      3          6           0       -2.091529   -1.937278   -0.869669
      4          6           0       -1.303720   -0.670487   -0.633354
      5          7           0       -2.046359    0.396976   -0.431344
      6          7           0       -1.391624    1.551793   -0.179356
      7          6           0       -1.987986    2.756205    0.060122
      8          6           0       -0.979170    3.680321    0.306149
      9          6           0        0.269390    3.027835    0.219710
     10          6           0        0.006996    1.695788   -0.083057
     11          6           0        0.752658    0.524627   -0.317741
     12          6           0        0.138821   -0.673005   -0.605058
     13          6           0        0.949227   -1.909206   -0.892627
     14          8           0        2.129225    0.676095   -0.301102
     15          7           0        2.685712   -0.040097    0.857018
     16          7           0        3.690708   -0.655780    0.436611
     17          7           0        4.637937   -1.244049    0.191815
     18          1           0       -2.050865   -1.433513    1.938057
     19          1           0       -2.651656   -3.027884    2.422973
     20          1           0       -3.668242   -1.946541    1.451706
     21          1           0       -1.041068   -3.248536    0.512137
     22          1           0       -2.642603   -3.800214    0.053781
     23          1           0       -1.718970   -2.451824   -1.763961
     24          1           0       -3.124681   -1.641051   -1.074547
     25          1           0       -3.062918    2.841241    0.039757
     26          1           0       -1.139139    4.726535    0.528738
     27          1           0        1.250979    3.456810    0.353965
     28          1           0        1.894279   -1.643987   -1.375801
     29          1           0        1.191095   -2.464287    0.022020
     30          1           0        0.416465   -2.591936   -1.558368
 ---------------------------------------------------------------------

 SCF Done:  E(UB3LYP) =  -776.115713526     A.U. after   24 cycles

 The electronic state is 2-A.
 Alpha  occ. eigenvalues --  -19.01139 -14.27718 -14.27563 -14.22055 -14.21009
 Alpha  occ. eigenvalues --  -14.19346 -10.09657 -10.09232 -10.07914 -10.07495
 Alpha  occ. eigenvalues --  -10.07353 -10.06914 -10.06417 -10.05253 -10.05038
 Alpha  occ. eigenvalues --  -10.05026 -10.03839  -0.97698  -0.92600  -0.90973
 Alpha  occ. eigenvalues --   -0.78247  -0.77211  -0.70490  -0.67930  -0.64060
 Alpha  occ. eigenvalues --   -0.62978  -0.59097  -0.55843  -0.52137  -0.49001
 Alpha  occ. eigenvalues --   -0.47055  -0.46016  -0.42840  -0.41687  -0.37137
 Alpha  occ. eigenvalues --   -0.35794  -0.35035  -0.34845  -0.33916  -0.33400
 Alpha  occ. eigenvalues --   -0.33090  -0.31959  -0.29952  -0.29675  -0.28790
 Alpha  occ. eigenvalues --   -0.28644  -0.27878  -0.27722  -0.26991  -0.26072
 Alpha  occ. eigenvalues --   -0.25595  -0.24340  -0.23567  -0.21133  -0.19925
 Alpha  occ. eigenvalues --   -0.18907  -0.16359  -0.14700  -0.11934  -0.08582
 Alpha  occ. eigenvalues --   -0.07287   0.02711
 Alpha virt. eigenvalues --    0.07011   0.08121   0.08516   0.09046   0.09656
 Alpha virt. eigenvalues --    0.10395   0.10933   0.11853   0.12158   0.12265
 Alpha virt. eigenvalues --    0.12684   0.13578   0.14087   0.15128   0.15668

  Beta  occ. eigenvalues --  -19.00757 -14.27481 -14.27388 -14.21845 -14.20775
  Beta  occ. eigenvalues --  -14.18528 -10.09461 -10.09231 -10.07927 -10.07493
  Beta  occ. eigenvalues --  -10.07369 -10.06916 -10.06417 -10.05183 -10.05031
  Beta  occ. eigenvalues --  -10.05013 -10.03822  -0.96722  -0.92325  -0.90066
  Beta  occ. eigenvalues --   -0.78056  -0.76344  -0.70378  -0.67735  -0.63951
  Beta  occ. eigenvalues --   -0.62888  -0.59043  -0.55737  -0.51969  -0.48525
  Beta  occ. eigenvalues --   -0.46980  -0.45920  -0.42595  -0.40937  -0.36877
  Beta  occ. eigenvalues --   -0.35388  -0.34745  -0.34641  -0.33606  -0.32915
  Beta  occ. eigenvalues --   -0.32337  -0.31819  -0.29782  -0.29492  -0.28508
  Beta  occ. eigenvalues --   -0.27768  -0.27725  -0.26982  -0.26385  -0.25908
  Beta  occ. eigenvalues --   -0.25545  -0.24303  -0.23436  -0.20655  -0.18407
  Beta  occ. eigenvalues --   -0.18298  -0.16069  -0.14223  -0.11526  -0.08161
  Beta  occ. eigenvalues --   -0.06708
  Beta virt. eigenvalues --    0.06963   0.08349   0.08475   0.09084   0.09618
  Beta virt. eigenvalues --    0.10314   0.10870   0.11740   0.12057   0.12258
  Beta virt. eigenvalues --    0.12508   0.12696   0.13662   0.14088   0.15138

 Mulliken charges and spin densities:
               1          2
     1  C   -0.681976  -0.001928
     2  C   -0.085507  -0.010943
     3  C   -0.392077   0.035520
     4  C   -0.613729  -0.010672
     5  N    0.114275   0.129923
     6  N    0.247677   0.011915
     7  C    0.014246   0.004444
     8  C   -0.439216   0.012279
     9  C    0.117170  -0.031257
    10  C   -0.712913   0.011377
    11  C   -0.535158   0.040414
    12  C    1.165208   0.096991
    13  C   -0.532399  -0.006018
    14  O   -0.060905   0.036050
    15  N   -0.831123   0.127031
    16  N    0.491552   0.132048
    17  N   -0.129907   0.373596
    18  H    0.183716   0.001922
    19  H    0.114333   0.000249
    20  H    0.119166  -0.001623
    21  H    0.137268  -0.005494
    22  H    0.110687   0.019476
    23  H    0.134828   0.003379
    24  H    0.164536   0.010299
    25  H    0.136834   0.002602
    26  H    0.125018  -0.001514
    27  H    0.148197   0.009457
    28  H    0.210582  -0.000830
    29  H    0.168071   0.007568
    30  H    0.111545   0.003740
 Sum of Mulliken charges =  -1.00000   1.00000

 Dipole moment (field-independent basis, Debye):
    X=             -7.5652    Y=             -1.3527    Z=             -0.5884  Tot=              7.7077
 Quadrupole moment (field-independent basis, Debye-Ang):
   XX=           -158.8352   YY=           -117.4145   ZZ=           -110.9411
   XY=             10.6565   XZ=             -2.8091   YZ=              1.7833

 Summary of Natural Population Analysis:

                                       Natural Population
                Natural  -----------------------------------------------
    Atom  No    Charge         Core      Valence    Rydberg      Total
 -----------------------------------------------------------------------
      C    1   -0.28786      0.99967     2.28353    0.00466     3.28786
      C    2   -0.18630      0.99964     2.18071    0.00595     3.18630
      C    3   -0.19973      0.99960     2.19199    0.00813     3.19973
      C    4    0.10141      0.99955     1.88395    0.01509     2.89859
      N    5   -0.12495      0.99965     2.61207    0.01322     3.62495
      N    6   -0.07738      0.99960     2.56628    0.01150     3.57738
      C    7   -0.03840      0.99959     2.02671    0.01209     3.03840
      C    8   -0.13420      0.99959     2.12597    0.00864     3.13420
      C    9   -0.14639      0.99954     2.13724    0.00962     3.14639
      C   10    0.04628      0.99948     1.94267    0.01157     2.95372
      C   11    0.20900      0.99926     1.77814    0.01359     2.79100
      C   12   -0.05398      0.99943     2.04569    0.00886     3.05398
      C   13   -0.29638      0.99965     2.29141    0.00532     3.29638
      O   14   -0.19974      0.99987     3.19052    0.00935     4.19974
      N   15   -0.07616      0.99973     2.56061    0.01581     3.57616
      N   16    0.10903      0.99972     2.37489    0.01637     3.39097
      N   17    0.05970      0.99982     2.42671    0.01376     3.44030
      H   18    0.10591      0.00000     0.39329    0.00080     0.39409
      H   19    0.09232      0.00000     0.40680    0.00088     0.40768
      H   20    0.09446      0.00000     0.40457    0.00098     0.40554
      H   21    0.09689      0.00000     0.40193    0.00118     0.40311
      H   22    0.08790      0.00000     0.41089    0.00120     0.41210
      H   23    0.09860      0.00000     0.40037    0.00102     0.40140
      H   24    0.10408      0.00000     0.39479    0.00113     0.39592
      H   25    0.09913      0.00000     0.39997    0.00090     0.40087
      H   26    0.09700      0.00000     0.40218    0.00082     0.40300
      H   27    0.10835      0.00000     0.39078    0.00086     0.39165
      H   28    0.11196      0.00000     0.38674    0.00130     0.38804
      H   29    0.10549      0.00000     0.39328    0.00123     0.39451
      H   30    0.09393      0.00000     0.40510    0.00097     0.40607
 =======================================================================
   * Total *    0.00000     16.99340    43.80979    0.19681    61.00000

 Normal termination of Gaussian 16 at Sun Dec 13 21:14:57 2020.
