 Gaussian 16, Revision A.03,

 -----------------------------------------------------------
 # opt freq B3LYP/6-31G(d) empiricaldispersion=gd3bj scf=xqc
 -----------------------------------------------------------

 -------------------------------
 CID_101893813_JID_5337_neutraal
 -------------------------------
 Symbolic Z-matrix:
 Charge =  0 Multiplicity = 1

 SCF Done:  E(RB3LYP) =  -648.077696971     A.U. after   16 cycles
 SCF Done:  E(RB3LYP) =  -648.085822344     A.U. after   13 cycles
 SCF Done:  E(RB3LYP) =  -648.086376906     A.U. after   12 cycles
 SCF Done:  E(RB3LYP) =  -648.085488079     A.U. after   13 cycles
 SCF Done:  E(RB3LYP) =  -648.086652785     A.U. after   11 cycles
 SCF Done:  E(RB3LYP) =  -648.086658059     A.U. after    9 cycles
 SCF Done:  E(RB3LYP) =  -648.086659418     A.U. after    8 cycles
 SCF Done:  E(RB3LYP) =  -648.086659873     A.U. after    8 cycles
 SCF Done:  E(RB3LYP) =  -648.086660042     A.U. after    8 cycles
 SCF Done:  E(RB3LYP) =  -648.086660092     A.U. after    7 cycles
 Optimization completed.
    -- Stationary point found.
 Normal termination of Gaussian 16 at Thu Dec 10 15:36:05 2020.

 --------------------------------------------------------------------
 #N Geom=AllCheck Guess=TCheck SCRF=Check GenChk RB3LYP/6-31G(d) Freq
 --------------------------------------------------------------------

 Structure from the checkpoint file:  "JID_5337.chk"
 -------------------------------
 CID_101893813_JID_5337_neutraal
 -------------------------------
 Charge =  0 Multiplicity = 1

 SCF Done:  E(RB3LYP) =  -648.086660092     A.U. after    1 cycles

  Exact polarizability: 222.063   8.126 158.690  -0.867  -0.216  52.405
 Approx polarizability: 363.480  47.343 288.498  -2.859  -2.497  83.374

                      1                      2                      3
                      A                      A                      A
 Frequencies --     75.3876               100.3447               148.5480
 Red. masses --      5.9890                 3.9526                 4.5886
 Frc consts  --      0.0201                 0.0234                 0.0597
 IR Inten    --      1.3880                 0.1297                 3.9114

                      4                      5                      6
                      A                      A                      A
 Frequencies --    182.2750               215.1385               257.9954
 Red. masses --      5.6099                 2.5428                 4.9181
 Frc consts  --      0.1098                 0.0693                 0.1929
 IR Inten    --      3.2990                 8.7873                 0.3040

                      7                      8                      9
                      A                      A                      A
 Frequencies --    312.2356               335.8525               371.7390
 Red. masses --      3.7515                 4.7700                 1.6884
 Frc consts  --      0.2155                 0.3170                 0.1375
 IR Inten    --      4.2797                 0.8834                24.0822

                     10                     11                     12
                      A                      A                      A
 Frequencies --    400.8361               415.3917               433.8132
 Red. masses --      2.8260                 4.8192                 2.7221
 Frc consts  --      0.2675                 0.4899                 0.3018
 IR Inten    --     13.3040                10.4770                10.3852

                     13                     14                     15
                      A                      A                      A
 Frequencies --    489.7064               509.2036               511.7897
 Red. masses --      4.0360                 6.5179                 3.9756
 Frc consts  --      0.5703                 0.9957                 0.6135
 IR Inten    --      0.6698                 7.1145                 2.3653

                     16                     17                     18
                      A                      A                      A
 Frequencies --    566.1020               610.9582               619.5665
 Red. masses --      5.0906                 5.5299                 4.6557
 Frc consts  --      0.9612                 1.2162                 1.0530
 IR Inten    --      0.8987                 1.8225                 3.2363

                     19                     20                     21
                      A                      A                      A
 Frequencies --    643.5915               698.3992               718.9875
 Red. masses --      5.5651                 5.3264                 2.8731
 Frc consts  --      1.3581                 1.5307                 0.8751
 IR Inten    --      2.2389                12.3400                19.5624

                     22                     23                     24
                      A                      A                      A
 Frequencies --    741.5513               775.9441               782.7053
 Red. masses --      1.9940                 1.7968                 3.0401
 Frc consts  --      0.6460                 0.6374                 1.0973
 IR Inten    --     30.1256                51.5188                39.6903

                     25                     26                     27
                      A                      A                      A
 Frequencies --    797.7224               818.9999               845.0609
 Red. masses --      1.9220                 1.7611                 4.5008
 Frc consts  --      0.7206                 0.6960                 1.8937
 IR Inten    --    175.8982                55.6910                 7.8171

                     28                     29                     30
                      A                      A                      A
 Frequencies --    883.6900               905.7582               930.8897
 Red. masses --      1.3125                 4.2778                 1.2456
 Frc consts  --      0.6039                 2.0677                 0.6360
 IR Inten    --      1.0308                 5.1673                 0.8595

                     31                     32                     33
                      A                      A                      A
 Frequencies --    939.0687               986.9607              1025.5437
 Red. masses --      1.3648                 1.2654                 1.8050
 Frc consts  --      0.7091                 0.7262                 1.1185
 IR Inten    --      1.5936                 0.1932                 0.1692

                     34                     35                     36
                      A                      A                      A
 Frequencies --   1029.5604              1063.8420              1103.6879
 Red. masses --      3.4938                 2.1455                 2.5227
 Frc consts  --      2.1820                 1.4306                 1.8105
 IR Inten    --      6.6378                 0.4899                 3.7587

                     37                     38                     39
                      A                      A                      A
 Frequencies --   1132.8164              1178.5087              1195.9254
 Red. masses --      1.8958                 1.8628                 1.1248
 Frc consts  --      1.4334                 1.5243                 0.9478
 IR Inten    --     19.8805                11.7972                 0.6983

                     40                     41                     42
                      A                      A                      A
 Frequencies --   1206.8815              1220.4481              1238.0894
 Red. masses --      1.0807                 2.3809                 1.9670
 Frc consts  --      0.9275                 2.0894                 1.7764
 IR Inten    --      0.8778                 2.7888                28.8157

                     43                     44                     45
                      A                      A                      A
 Frequencies --   1252.1552              1294.3640              1324.0912
 Red. masses --      2.4951                 1.6527                 4.2693
 Frc consts  --      2.3049                 1.6314                 4.4100
 IR Inten    --     68.0206                20.8755                31.3098

                     46                     47                     48
                      A                      A                      A
 Frequencies --   1330.4597              1381.1109              1393.6500
 Red. masses --      1.9013                 2.1970                 3.4014
 Frc consts  --      1.9829                 2.4691                 3.8924
 IR Inten    --     31.2642                13.8572                18.5690

                     49                     50                     51
                      A                      A                      A
 Frequencies --   1440.0179              1513.0572              1515.3427
 Red. masses --      2.3322                 2.5795                 2.3538
 Frc consts  --      2.8494                 3.4794                 3.1845
 IR Inten    --      1.6962                11.3482                48.7984

                     52                     53                     54
                      A                      A                      A
 Frequencies --   1523.4476              1533.6264              1621.6671
 Red. masses --      1.6273                 2.3787                 3.6893
 Frc consts  --      2.2252                 3.2963                 5.7164
 IR Inten    --     12.1214                51.5518                13.5407

                     55                     56                     57
                      A                      A                      A
 Frequencies --   1638.3249              1647.0275              1670.9826
 Red. masses --      1.7162                 6.0509                 6.4847
 Frc consts  --      2.7140                 9.6709                10.6681
 IR Inten    --    374.8312                 4.5734                 2.8280

                     58                     59                     60
                      A                      A                      A
 Frequencies --   1695.0958              1714.6552              3036.0963
 Red. masses --      8.0087                 3.6493                 1.0576
 Frc consts  --     13.5581                 6.3213                 5.7441
 IR Inten    --     30.5562               258.2939                47.1893

                     61                     62                     63
                      A                      A                      A
 Frequencies --   3068.0710              3187.1594              3197.0834
 Red. masses --      1.1073                 1.0872                 1.0896
 Frc consts  --      6.1409                 6.5069                 6.5621
 IR Inten    --     18.8505                 5.0072                12.1745

                     64                     65                     66
                      A                      A                      A
 Frequencies --   3211.4472              3212.6527              3230.4396
 Red. masses --      1.0897                 1.0950                 1.0932
 Frc consts  --      6.6217                 6.6585                 6.7216
 IR Inten    --      5.3876                27.5395                 7.0904

                     67                     68                     69
                      A                      A                      A
 Frequencies --   3238.7480              3471.3615              3608.1456
 Red. masses --      1.0948                 1.0522                 1.0917
 Frc consts  --      6.7660                 7.4705                 8.3735
 IR Inten    --      6.3391                44.4162                17.7552

 - Thermochemistry -
 -------------------
 Temperature   298.150 Kelvin.  Pressure   1.00000 Atm.
 Atom     1 has atomic number  6 and mass  12.00000

 Molecular mass:   198.07931 amu.
 Principal axes and moments of inertia in atomic units:
                           1         2         3
     Eigenvalues --  1318.305153989.148435290.50602
           X            0.99998  -0.00677   0.00077
           Y            0.00677   0.99997   0.00348
           Z           -0.00079  -0.00348   0.99999
 This molecule is an asymmetric top.
 Rotational symmetry number  1.
 Warning -- assumption of classical behavior for rotation
           may cause significant error
 Rotational temperatures (Kelvin)      0.06570     0.02171     0.01637
 Rotational constants (GHZ):           1.36899     0.45241     0.34113
 Zero-point vibrational energy     522599.4 (Joules/Mol)
                                  124.90425 (Kcal/Mol)
 Warning -- explicit consideration of  18 degrees of freedom as
           vibrations may cause significant error
 Vibrational temperatures:    108.47   144.37   213.73   262.25   309.54
          (Kelvin)            371.20   449.24   483.22   534.85   576.71
                              597.66   624.16   704.58   732.63   736.35
                              814.49   879.03   891.42   925.98  1004.84
                             1034.46  1066.93  1116.41  1126.14  1147.74
                             1178.36  1215.85  1271.43  1303.18  1339.34
                             1351.11  1420.02  1475.53  1481.31  1530.63
                             1587.96  1629.87  1695.61  1720.67  1736.43
                             1755.95  1781.33  1801.57  1862.30  1905.07
                             1914.23  1987.11  2005.15  2071.86  2176.95
                             2180.24  2191.90  2206.55  2333.22  2357.18
                             2369.71  2404.17  2438.86  2467.01  4368.27
                             4414.27  4585.61  4599.89  4620.56  4622.29
                             4647.88  4659.84  4994.52  5191.32

 Zero-point correction=                           0.199048 (Hartree/Particle)
 Thermal correction to Energy=                    0.210201
 Thermal correction to Enthalpy=                  0.211145
 Thermal correction to Gibbs Free Energy=         0.162235
 Sum of electronic and zero-point Energies=           -647.887612
 Sum of electronic and thermal Energies=              -647.876459
 Sum of electronic and thermal Enthalpies=            -647.875515
 Sum of electronic and thermal Free Energies=         -647.924425

                     E (Thermal)             CV                S
                      KCal/Mol        Cal/Mol-Kelvin    Cal/Mol-Kelvin
 Total                  131.903             45.962            102.940
 Electronic               0.000              0.000              0.000
 Translational            0.889              2.981             41.755
 Rotational               0.889              2.981             31.698
 Vibrational            130.126             40.001             29.486
 Vibration     1          0.599              1.965              4.008
 Vibration     2          0.604              1.949              3.448
 Vibration     3          0.618              1.904              2.691
 Vibration     4          0.630              1.864              2.305
 Vibration     5          0.645              1.818              2.000
 Vibration     6          0.667              1.749              1.675
 Vibration     7          0.701              1.650              1.350
 Vibration     8          0.717              1.604              1.232
 Vibration     9          0.743              1.530              1.073
 Vibration    10          0.767              1.468              0.960
 Vibration    11          0.779              1.437              0.908
 Vibration    12          0.795              1.397              0.846
 Vibration    13          0.846              1.273              0.684
 Vibration    14          0.864              1.230              0.636
 Vibration    15          0.867              1.224              0.629
 Vibration    16          0.922              1.105              0.512
 Vibration    17          0.970              1.009              0.431
 Vibration    18          0.980              0.991              0.417

 Optimization completed.
    -- Stationary point found.
 Normal termination of Gaussian 16 at Thu Dec 10 15:44:13 2020.

 ----------------------------------------------------------------------
 # B3LYP/6-311++G(d,p) empiricaldispersion=gd3bj scf=xqc pop=npa geom=c
 heck
 ----------------------------------------------------------------------

 ---------------------------------------
 CID_101893813_JID_5337_Energie_neutraal
 ---------------------------------------
 Structure from the checkpoint file:  "JID_5337.chk"
 Charge =  0 Multiplicity = 1

 SCF Done:  E(RB3LYP) =  -648.262353927     A.U. after   17 cycles
 Normal termination of Gaussian 16 at Thu Dec 10 15:48:12 2020.

 ----------------------------------------------------------------------
 # B3LYP/6-311++G(d,p) empiricaldispersion=gd3bj scf=xqc pop=npa geom=c
 heck
 ----------------------------------------------------------------------

 -------------------------------------
 CID_101893813_JID_5337_Energie_kation
 -------------------------------------
 Structure from the checkpoint file:  "JID_5337.chk"
 Charge =  1 Multiplicity = 2

 SCF Done:  E(UB3LYP) =  -647.998543912     A.U. after   23 cycles
 Normal termination of Gaussian 16 at Thu Dec 10 15:55:00 2020.
 Gaussian 16:  ES64L-G16RevA.03 25-Dec-2016

 ----------------------------------------------------------------------
 # B3LYP/6-311++G(d,p) empiricaldispersion=gd3bj scf=xqc pop=npa geom=c
 heck
 ----------------------------------------------------------------------

 ------------------------------------
 CID_101893813_JID_5337_Energie_anion
 ------------------------------------
 Structure from the checkpoint file:  "JID_5337.chk"
 Charge = -1 Multiplicity = 2

                         Standard orientation:
 ---------------------------------------------------------------------
 Center     Atomic      Atomic             Coordinates (Angstroms)
 Number     Number       Type             X           Y           Z
 ---------------------------------------------------------------------
      1          6           0       -0.774025   -2.044210    0.049861
      2          6           0       -1.760667   -0.902325    0.034092
      3          6           0       -3.146318   -0.938338    0.034301
      4          6           0       -3.848884    0.271823   -0.011445
      5          6           0       -3.162457    1.488128   -0.067955
      6          6           0       -1.766470    1.527072   -0.065145
      7          6           0       -1.064410    0.320842   -0.002492
      8          6           0        0.365742    0.044665    0.005741
      9          6           0        1.466258    0.861281    0.016163
     10          6           0        2.823057    0.279584   -0.027619
     11          8           0        3.814760    1.030533   -0.020486
     12          6           0        2.875648   -1.165109   -0.056257
     13          6           0        1.739796   -1.924493   -0.027468
     14          7           0        0.516379   -1.344275    0.005970
     15          7           0        1.420665    2.248609    0.025637
     16          1           0       -0.847699   -2.658351    0.957022
     17          1           0       -0.881417   -2.707573   -0.817766
     18          1           0       -3.681172   -1.883970    0.063412
     19          1           0       -4.934648    0.263723   -0.011452
     20          1           0       -3.721587    2.417766   -0.119964
     21          1           0       -1.241807    2.472070   -0.146538
     22          1           0        3.849465   -1.639805   -0.072670
     23          1           0        1.752421   -3.009620   -0.027319
     24          1           0        0.772640    2.660667    0.686248
     25          1           0        2.372796    2.596973    0.141001
 ---------------------------------------------------------------------

 SCF Done:  E(UB3LYP) =  -648.264977214     A.U. after   33 cycles
 SCF Done:  E(UB3LYP) =  -648.264977214     a.u. after    1 cycles

 The electronic state is 2-A.
 Alpha  occ. eigenvalues --  -18.91858 -14.22779 -14.17702 -10.09895 -10.08486
 Alpha  occ. eigenvalues --  -10.07624 -10.06482 -10.05489 -10.04737 -10.04257
 Alpha  occ. eigenvalues --  -10.04114 -10.03989 -10.03486 -10.03196 -10.03028
 Alpha  occ. eigenvalues --   -0.86559  -0.85246  -0.76994  -0.73077  -0.67411
 Alpha  occ. eigenvalues --   -0.64563  -0.61799  -0.59841  -0.55868  -0.51314
 Alpha  occ. eigenvalues --   -0.47745  -0.46175  -0.45166  -0.40335  -0.38557
 Alpha  occ. eigenvalues --   -0.37444  -0.35866  -0.34866  -0.34655  -0.31787
 Alpha  occ. eigenvalues --   -0.30390  -0.29900  -0.29412  -0.28251  -0.27174
 Alpha  occ. eigenvalues --   -0.25375  -0.24106  -0.24075  -0.22581  -0.21901
 Alpha  occ. eigenvalues --   -0.20974  -0.18756  -0.14632  -0.12788  -0.09961
 Alpha  occ. eigenvalues --   -0.09375  -0.05918   0.05094
 Alpha virt. eigenvalues --    0.07746   0.08499   0.09466   0.09567   0.10256
 Alpha virt. eigenvalues --    0.10996   0.11878   0.12180   0.12561   0.13179
 Alpha virt. eigenvalues --    0.14265   0.14330   0.15906   0.16023   0.16806

  Beta  occ. eigenvalues --  -18.91641 -14.22570 -14.17693 -10.09928 -10.08430
  Beta  occ. eigenvalues --  -10.07480 -10.06353 -10.05406 -10.04805 -10.04107
  Beta  occ. eigenvalues --  -10.04045 -10.03918 -10.03287 -10.03077 -10.02892
  Beta  occ. eigenvalues --   -0.86210  -0.84865  -0.76899  -0.72736  -0.67206
  Beta  occ. eigenvalues --   -0.64195  -0.61528  -0.59578  -0.55641  -0.51100
  Beta  occ. eigenvalues --   -0.47346  -0.46035  -0.44821  -0.40221  -0.38440
  Beta  occ. eigenvalues --   -0.37291  -0.35364  -0.34667  -0.34460  -0.31659
  Beta  occ. eigenvalues --   -0.30235  -0.29737  -0.29302  -0.28084  -0.26568
  Beta  occ. eigenvalues --   -0.25211  -0.23900  -0.23170  -0.22383  -0.21200
  Beta  occ. eigenvalues --   -0.20560  -0.18232  -0.13534  -0.12041  -0.09209
  Beta  occ. eigenvalues --   -0.08976  -0.04823
  Beta virt. eigenvalues --    0.07745   0.08481   0.09380   0.09589   0.10195
  Beta virt. eigenvalues --    0.10289   0.10981   0.12120   0.12409   0.13003
  Beta virt. eigenvalues --    0.13147   0.14237   0.14476   0.15907   0.16792

 Mulliken charges and spin densities:
               1          2
     1  C   -0.390599  -0.197807
     2  C    0.511052   0.155664
     3  C   -0.709185  -0.066928
     4  C   -0.298209   0.213735
     5  C   -0.453703  -0.001191
     6  C   -0.692619   0.091656
     7  C    0.886151   0.154592
     8  C    0.136729   0.051486
     9  C    0.201450   0.030253
    10  C   -0.732180   0.102383
    11  O   -0.487360   0.077189
    12  C   -0.029688  -0.032150
    13  C    0.028445   0.085653
    14  N    0.206371   0.053999
    15  N   -0.404545   0.011269
    16  H   -0.006613   0.197624
    17  H    0.168684   0.006821
    18  H    0.068642   0.041300
    19  H    0.091421  -0.011262
    20  H    0.103147   0.010874
    21  H    0.082280  -0.011808
    22  H    0.145572   0.003342
    23  H    0.103863   0.016111
    24  H    0.188881   0.018228
    25  H    0.282012  -0.001033
 Sum of Mulliken charges =  -1.00000   1.00000

 Dipole moment (field-independent basis, Debye):
    X=             -4.0532    Y=             -2.4669    Z=              0.3178  Tot=              4.7555
 Quadrupole moment (field-independent basis, Debye-Ang):
   XX=           -146.3272   YY=            -95.8323   ZZ=            -99.8816
   XY=             -6.5218   XZ=              1.7814   YZ=              5.2415

 Summary of Natural Population Analysis:

                                       Natural Population
                Natural  -----------------------------------------------
    Atom  No    Charge         Core      Valence    Rydberg      Total
 -----------------------------------------------------------------------
      C    1   -0.08341      0.99961     2.07588    0.00792     3.08341
      C    2    0.02036      0.99949     1.97063    0.00953     2.97964
      C    3   -0.12403      0.99952     2.11597    0.00855     3.12403
      C    4   -0.05379      0.99958     2.04444    0.00977     3.05379
      C    5   -0.11155      0.99958     2.10291    0.00906     3.11155
      C    6   -0.08376      0.99954     2.07554    0.00868     3.08376
      C    7   -0.00220      0.99946     1.99397    0.00876     3.00220
      C    8    0.09626      0.99947     1.89228    0.01199     2.90374
      C    9    0.05531      0.99945     1.93367    0.01158     2.94469
      C   10    0.22764      0.99956     1.75329    0.01951     2.77236
      O   11   -0.33875      0.99989     3.33165    0.00722     4.33875
      C   12   -0.18164      0.99955     2.17235    0.00974     3.18164
      C   13    0.03355      0.99958     1.95511    0.01177     2.96645
      N   14   -0.17406      0.99962     2.66720    0.00724     3.67406
      N   15   -0.40661      0.99971     2.89554    0.01135     3.90661
      H   16    0.10091      0.00000     0.39709    0.00200     0.39909
      H   17    0.09788      0.00000     0.40104    0.00107     0.40212
      H   18    0.09227      0.00000     0.40661    0.00112     0.40773
      H   19    0.08671      0.00000     0.41183    0.00145     0.41329
      H   20    0.09042      0.00000     0.40856    0.00102     0.40958
      H   21    0.09650      0.00000     0.40186    0.00164     0.40350
      H   22    0.09887      0.00000     0.39930    0.00183     0.40113
      H   23    0.08940      0.00000     0.40931    0.00129     0.41060
      H   24    0.17823      0.00000     0.31997    0.00180     0.32177
      H   25    0.19550      0.00000     0.30254    0.00196     0.30450
 =======================================================================
   * Total *   -0.00000     14.99361    36.83854    0.16785    52.00000

 Normal termination of Gaussian 16 at Thu Dec 10 16:04:45 2020.
