 Gaussian 16, Revision A.03,

 -----------------------------------------------------------
 # opt freq B3LYP/6-31G(d) empiricaldispersion=gd3bj scf=xqc
 -----------------------------------------------------------

 -------------------------------
 CID_111790863_JID_7350_neutraal
 -------------------------------
 Symbolic Z-matrix:
 Charge =  0 Multiplicity = 1

 SCF Done:  E(RB3LYP) =  -1086.53675593     A.U. after   15 cycles
 SCF Done:  E(RB3LYP) =  -1086.53882427     A.U. after   13 cycles
 SCF Done:  E(RB3LYP) =  -1086.53189172     A.U. after   13 cycles
 SCF Done:  E(RB3LYP) =  -1086.54329711     A.U. after   13 cycles
 SCF Done:  E(RB3LYP) =  -1086.54093186     A.U. after   13 cycles
 SCF Done:  E(RB3LYP) =  -1086.54536305     A.U. after   12 cycles
 SCF Done:  E(RB3LYP) =  -1086.54583716     A.U. after   12 cycles
 SCF Done:  E(RB3LYP) =  -1086.54593058     A.U. after   12 cycles
 SCF Done:  E(RB3LYP) =  -1086.54606635     A.U. after   11 cycles
 SCF Done:  E(RB3LYP) =  -1086.54610831     A.U. after   11 cycles
 SCF Done:  E(RB3LYP) =  -1086.54634826     A.U. after   10 cycles
 SCF Done:  E(RB3LYP) =  -1086.54635282     A.U. after   11 cycles
 SCF Done:  E(RB3LYP) =  -1086.54635331     A.U. after    9 cycles
 SCF Done:  E(RB3LYP) =  -1086.54635300     A.U. after    9 cycles
 SCF Done:  E(RB3LYP) =  -1086.54635352     A.U. after    8 cycles
 Optimization completed.
    -- Stationary point found.
 Normal termination of Gaussian 16 at Mon Dec 14 19:03:17 2020.

 --------------------------------------------------------------------
 #N Geom=AllCheck Guess=TCheck SCRF=Check GenChk RB3LYP/6-31G(d) Freq
 --------------------------------------------------------------------

 Structure from the checkpoint file:  "JID_7350.chk"
 -------------------------------
 CID_111790863_JID_7350_neutraal
 -------------------------------
 Charge =  0 Multiplicity = 1

 SCF Done:  E(RB3LYP) =  -1086.54635352     A.U. after    1 cycles

  Exact polarizability: 158.814  -3.202 180.468 -11.031  -0.128 146.547
 Approx polarizability: 205.895  -5.133 279.718 -27.726   1.224 257.134

                      1                      2                      3
                      A                      A                      A
 Frequencies --     17.4733                24.4766                54.2764
 Red. masses --      4.6636                 4.8747                 3.1943
 Frc consts  --      0.0008                 0.0017                 0.0055
 IR Inten    --      0.9275                 0.7022                 0.7859

                      4                      5                      6
                      A                      A                      A
 Frequencies --     65.6056                83.5973                84.0434
 Red. masses --      3.6864                 4.0932                 3.2111
 Frc consts  --      0.0093                 0.0169                 0.0134
 IR Inten    --      0.2467                 0.0121                 1.2962

                      7                      8                      9
                      A                      A                      A
 Frequencies --    106.4532               115.5552               119.7088
 Red. masses --      2.7595                 2.6073                 2.6348
 Frc consts  --      0.0184                 0.0205                 0.0222
 IR Inten    --      0.2410                 2.2101                 3.9513

                     10                     11                     12
                      A                      A                      A
 Frequencies --    137.6819               168.7930               186.4954
 Red. masses --      1.1483                 3.4457                 3.2328
 Frc consts  --      0.0128                 0.0578                 0.0662
 IR Inten    --      0.2199                 0.9704                 1.3872

                     13                     14                     15
                      A                      A                      A
 Frequencies --    212.8746               258.8690               270.8352
 Red. masses --      3.7380                 2.6105                 1.2265
 Frc consts  --      0.0998                 0.1031                 0.0530
 IR Inten    --      0.4088                 0.9088                 1.3590

                     16                     17                     18
                      A                      A                      A
 Frequencies --    291.1341               328.2969               344.5808
 Red. masses --      3.1390                 3.1026                 4.0995
 Frc consts  --      0.1568                 0.1970                 0.2868
 IR Inten    --      4.6731                 1.1567                 0.7238

                     19                     20                     21
                      A                      A                      A
 Frequencies --    350.8945               372.5135               422.6410
 Red. masses --      3.5255                 2.5916                 2.6756
 Frc consts  --      0.2558                 0.2119                 0.2816
 IR Inten    --      1.2390                 2.1882                 4.9749

                     22                     23                     24
                      A                      A                      A
 Frequencies --    472.1628               510.6464               528.6920
 Red. masses --      3.1582                 4.8003                 2.8747
 Frc consts  --      0.4148                 0.7375                 0.4734
 IR Inten    --      2.5999                 2.3782                 1.8279

                     25                     26                     27
                      A                      A                      A
 Frequencies --    562.6729               601.0679               623.7872
 Red. masses --      3.1705                 3.0871                 4.9047
 Frc consts  --      0.5914                 0.6571                 1.1244
 IR Inten    --     14.3276                22.7643                 4.4480

                     28                     29                     30
                      A                      A                      A
 Frequencies --    666.7504               672.9397               689.0628
 Red. masses --      1.6384                 5.1150                 4.0610
 Frc consts  --      0.4291                 1.3647                 1.1361
 IR Inten    --     81.0303                 4.1657                 5.3373

                     31                     32                     33
                      A                      A                      A
 Frequencies --    735.9399               763.7109               781.2120
 Red. masses --      3.1504                 6.4475                 1.5058
 Frc consts  --      1.0053                 2.2156                 0.5414
 IR Inten    --     12.5284                 7.9556                39.9137

                     34                     35                     36
                      A                      A                      A
 Frequencies --    795.7815               823.6305               831.2161
 Red. masses --      1.5436                 1.1405                 1.3216
 Frc consts  --      0.5760                 0.4558                 0.5380
 IR Inten    --     65.9928                 0.3319                 8.4234

                     37                     38                     39
                      A                      A                      A
 Frequencies --    855.5504               860.4644               883.3284
 Red. masses --      1.9374                 1.3402                 2.3435
 Frc consts  --      0.8355                 0.5847                 1.0774
 IR Inten    --     10.5024                13.6942                 0.4513

                     40                     41                     42
                      A                      A                      A
 Frequencies --    910.2944               937.3543               965.2976
 Red. masses --      2.3724                 2.5012                 2.2929
 Frc consts  --      1.1582                 1.2948                 1.2588
 IR Inten    --     13.1579                 3.2792                13.1797

                     43                     44                     45
                      A                      A                      A
 Frequencies --   1000.3948              1016.7489              1022.8930
 Red. masses --      2.9090                 1.6375                 2.1748
 Frc consts  --      1.7153                 0.9973                 1.3407
 IR Inten    --      5.6438                 1.2414                 3.6979

                     46                     47                     48
                      A                      A                      A
 Frequencies --   1057.7170              1066.3972              1073.8575
 Red. masses --      1.8688                 1.4403                 1.4011
 Frc consts  --      1.2318                 0.9651                 0.9520
 IR Inten    --      6.1919                14.7584                 1.2750

                     49                     50                     51
                      A                      A                      A
 Frequencies --   1085.8709              1091.3343              1113.3694
 Red. masses --      1.4030                 2.8418                 2.1757
 Frc consts  --      0.9747                 1.9941                 1.5890
 IR Inten    --      1.2251                 7.2376                17.5780

                     52                     53                     54
                      A                      A                      A
 Frequencies --   1137.5889              1144.8228              1168.6615
 Red. masses --      1.3060                 2.3436                 1.6521
 Frc consts  --      0.9958                 1.8097                 1.3294
 IR Inten    --     20.1823                36.0664                 7.7718

                     55                     56                     57
                      A                      A                      A
 Frequencies --   1193.8558              1197.4271              1212.0380
 Red. masses --      2.3032                 4.0500                 1.3688
 Frc consts  --      1.9341                 3.4214                 1.1847
 IR Inten    --     25.7587                 8.3816                 0.5587

                     58                     59                     60
                      A                      A                      A
 Frequencies --   1218.9946              1223.2107              1256.1725
 Red. masses --      2.2639                 2.7181                 1.7608
 Frc consts  --      1.9820                 2.3962                 1.6371
 IR Inten    --      9.7457                 8.3468                 6.3884

                     61                     62                     63
                      A                      A                      A
 Frequencies --   1261.2739              1282.0010              1317.8563
 Red. masses --      1.2715                 1.2452                 1.1372
 Frc consts  --      1.1917                 1.2058                 1.1637
 IR Inten    --      4.2672                10.0654                20.9573

                     64                     65                     66
                      A                      A                      A
 Frequencies --   1329.2895              1364.5961              1386.8882
 Red. masses --      2.0327                 1.3074                 1.4063
 Frc consts  --      2.1163                 1.4344                 1.5938
 IR Inten    --      2.4581                35.5308                37.7368

                     67                     68                     69
                      A                      A                      A
 Frequencies --   1392.8404              1409.3416              1437.5253
 Red. masses --      1.3337                 1.5153                 3.7688
 Frc consts  --      1.5245                 1.7733                 4.5886
 IR Inten    --     37.4349               109.5382               205.4464

                     70                     71                     72
                      A                      A                      A
 Frequencies --   1442.2235              1445.9220              1471.6817
 Red. masses --      1.3216                 1.2445                 1.4134
 Frc consts  --      1.6197                 1.5330                 1.8036
 IR Inten    --     13.7232                 0.1398                 1.2082

                     73                     74                     75
                      A                      A                      A
 Frequencies --   1484.4486              1496.7205              1504.0462
 Red. masses --      1.1331                 1.1569                 1.2327
 Frc consts  --      1.4711                 1.5270                 1.6430
 IR Inten    --      0.7019                10.9818                 0.6183

                     76                     77                     78
                      A                      A                      A
 Frequencies --   1507.7222              1515.9460              1523.3560
 Red. masses --      1.0437                 1.3602                 1.0564
 Frc consts  --      1.3979                 1.8417                 1.4444
 IR Inten    --      6.5333                14.9364                 0.1999

                     79                     80                     81
                      A                      A                      A
 Frequencies --   1528.0507              1534.7309              1542.6894
 Red. masses --      1.3969                 1.0545                 3.1761
 Frc consts  --      1.9218                 1.4634                 4.4534
 IR Inten    --     13.0214                 4.1641                11.5757

                     82                     83                     84
                      A                      A                      A
 Frequencies --   1556.0577              1574.0416              1597.7746
 Red. masses --      1.0996                 1.1219                 5.0476
 Frc consts  --      1.5687                 1.6377                 7.5922
 IR Inten    --      2.1371                 8.6162                13.2246

                     85                     86                     87
                      A                      A                      A
 Frequencies --   1728.8958              2978.3961              3045.4026
 Red. masses --      4.2479                 1.0713                 1.0436
 Frc consts  --      7.4811                 5.5991                 5.7027
 IR Inten    --    477.6331                56.5571                53.9273

                     88                     89                     90
                      A                      A                      A
 Frequencies --   3045.7683              3054.2399              3056.4145
 Red. masses --      1.0642                 1.0356                 1.0815
 Frc consts  --      5.8164                 5.6917                 5.9523
 IR Inten    --      5.4303                20.9904                23.2831

                     91                     92                     93
                      A                      A                      A
 Frequencies --   3068.7789              3098.9561              3117.9968
 Red. masses --      1.0686                 1.1016                 1.1039
 Frc consts  --      5.9291                 6.2333                 6.3233
 IR Inten    --     66.2417                16.5115                11.9950

                     94                     95                     96
                      A                      A                      A
 Frequencies --   3119.1804              3126.8289              3128.7515
 Red. masses --      1.1006                 1.1013                 1.1025
 Frc consts  --      6.3090                 6.3440                 6.3588
 IR Inten    --     15.8599                11.6627                24.7605

                     97                     98                     99
                      A                      A                      A
 Frequencies --   3135.0949              3147.1360              3151.6848
 Red. masses --      1.0867                 1.0509                 1.0610
 Frc consts  --      6.2931                 6.1328                 6.2095
 IR Inten    --     19.2826                17.7285                 7.3082

                    100                    101                    102
                      A                      A                      A
 Frequencies --   3159.9099              3216.8966              3226.6386
 Red. masses --      1.0915                 1.0932                 1.1197
 Frc consts  --      6.4213                 6.6656                 6.8683
 IR Inten    --     28.9284                12.5785                 0.9647

                    103                    104                    105
                      A                      A                      A
 Frequencies --   3240.9711              3542.4234              3583.6792
 Red. masses --      1.1164                 1.0742                 1.0740
 Frc consts  --      6.9091                 7.9420                 8.1267
 IR Inten    --     19.9496                13.1338                12.4822

 - Thermochemistry -
 -------------------
 Temperature   298.150 Kelvin.  Pressure   1.00000 Atm.
 Atom     1 has atomic number  6 and mass  12.00000

 Molecular mass:   252.14087 amu.
 Principal axes and moments of inertia in atomic units:
                           1         2         3
     Eigenvalues --  3121.090075866.874896804.60786
           X            0.99997  -0.00239  -0.00672
           Y            0.00234   0.99997  -0.00701
           Z            0.00673   0.00700   0.99995
 This molecule is an asymmetric top.
 Rotational symmetry number  1.
 Warning -- assumption of classical behavior for rotation
           may cause significant error
 Rotational temperatures (Kelvin)      0.02775     0.01476     0.01273
 Rotational constants (GHZ):           0.57824     0.30762     0.26522
 Zero-point vibrational energy     835297.2 (Joules/Mol)
                                  199.64082 (Kcal/Mol)
 Warning -- explicit consideration of  26 degrees of freedom as
           vibrations may cause significant error
 Vibrational temperatures:     25.14    35.22    78.09    94.39   120.28
          (Kelvin)            120.92   153.16   166.26   172.23   198.09
                              242.86   268.33   306.28   372.45   389.67
                              418.88   472.35   495.77   504.86   535.96
                              608.09   679.34   734.71   760.67   809.56
                              864.80   897.49   959.31   968.21   991.41
                             1058.85  1098.81  1123.99  1144.95  1185.02
                             1195.93  1230.95  1238.02  1270.91  1309.71
                             1348.64  1388.85  1439.34  1462.87  1471.71
                             1521.82  1534.31  1545.04  1562.33  1570.19
                             1601.89  1636.74  1647.14  1681.44  1717.69
                             1722.83  1743.85  1753.86  1759.93  1807.35
                             1814.69  1844.51  1896.10  1912.55  1963.35
                             1995.42  2003.99  2027.73  2068.28  2075.04
                             2080.36  2117.42  2135.79  2153.45  2163.99
                             2169.28  2181.11  2191.77  2198.52  2208.14
                             2219.59  2238.82  2264.69  2298.84  2487.50
                             4285.25  4381.66  4382.18  4394.37  4397.50
                             4415.29  4458.71  4486.10  4487.80  4498.81
                             4501.58  4510.70  4528.03  4534.57  4546.41
                             4628.40  4642.41  4663.03  5096.76  5156.12

 Zero-point correction=                           0.318148 (Hartree/Particle)
 Thermal correction to Energy=                    0.336480
 Thermal correction to Enthalpy=                  0.337424
 Thermal correction to Gibbs Free Energy=         0.269608
 Sum of electronic and zero-point Energies=          -1086.228206
 Sum of electronic and thermal Energies=             -1086.209873
 Sum of electronic and thermal Enthalpies=           -1086.208929
 Sum of electronic and thermal Free Energies=        -1086.276746

                     E (Thermal)             CV                S
                      KCal/Mol        Cal/Mol-Kelvin    Cal/Mol-Kelvin
 Total                  211.144             67.481            142.732
 Electronic               0.000              0.000              0.000
 Translational            0.889              2.981             42.475
 Rotational               0.889              2.981             33.188
 Vibrational            209.367             61.520             67.069
 Vibration     1          0.593              1.986              6.902
 Vibration     2          0.593              1.985              6.233
 Vibration     3          0.596              1.976              4.655
 Vibration     4          0.597              1.971              4.281
 Vibration     5          0.600              1.960              3.805
 Vibration     6          0.601              1.960              3.794
 Vibration     7          0.605              1.944              3.333
 Vibration     8          0.608              1.937              3.173
 Vibration     9          0.609              1.933              3.105
 Vibration    10          0.614              1.916              2.836
 Vibration    11          0.625              1.881              2.449
 Vibration    12          0.632              1.858              2.262
 Vibration    13          0.644              1.821              2.019
 Vibration    14          0.668              1.748              1.669
 Vibration    15          0.675              1.727              1.591
 Vibration    16          0.687              1.690              1.467
 Vibration    17          0.712              1.619              1.268
 Vibration    18          0.723              1.586              1.191
 Vibration    19          0.728              1.573              1.162
 Vibration    20          0.744              1.529              1.069
 Vibration    21          0.785              1.421              0.883
 Vibration    22          0.829              1.312              0.732
 Vibration    23          0.866              1.226              0.632
 Vibration    24          0.884              1.187              0.590
 Vibration    25          0.918              1.112              0.519
 Vibration    26          0.959              1.030              0.448

                           ! Non-Optimized Parameters !
 Normal termination of Gaussian 16 at Mon Dec 14 19:18:40 2020.

 ----------------------------------------------------------------------
 # B3LYP/6-311++G(d,p) empiricaldispersion=gd3bj scf=xqc pop=npa geom=c
 heck
 ----------------------------------------------------------------------

 ---------------------------------------
 CID_111790863_JID_7350_Energie_neutraal
 ---------------------------------------
 Structure from the checkpoint file:  "JID_7350.chk"
 Charge =  0 Multiplicity = 1

 SCF Done:  E(RB3LYP) =  -1086.76573546     A.U. after   16 cycles
 Normal termination of Gaussian 16 at Mon Dec 14 19:27:22 2020.

 ----------------------------------------------------------------------
 # B3LYP/6-311++G(d,p) empiricaldispersion=gd3bj scf=xqc pop=npa geom=c
 heck
 ----------------------------------------------------------------------

 -------------------------------------
 CID_111790863_JID_7350_Energie_kation
 -------------------------------------
 Structure from the checkpoint file:  "JID_7350.chk"
 Charge =  1 Multiplicity = 2

 SCF Done:  E(UB3LYP) =  -1086.49342827     A.U. after   25 cycles
 Normal termination of Gaussian 16 at Mon Dec 14 19:47:06 2020.
 Gaussian 16:  ES64L-G16RevA.03 25-Dec-2016

 ----------------------------------------------------------------------
 # B3LYP/6-311++G(d,p) empiricaldispersion=gd3bj scf=xqc pop=npa geom=c
 heck
 ----------------------------------------------------------------------

 ------------------------------------
 CID_111790863_JID_7350_Energie_anion
 ------------------------------------
 Structure from the checkpoint file:  "JID_7350.chk"
 Charge = -1 Multiplicity = 2

                         Standard orientation:
 ---------------------------------------------------------------------
 Center     Atomic      Atomic             Coordinates (Angstroms)
 Number     Number       Type             X           Y           Z
 ---------------------------------------------------------------------
      1          6           0        0.233125   -1.791813    2.464623
      2          6           0        0.799590   -1.224002    1.168511
      3          7           0        0.855016    0.240385    1.260566
      4          6           0        1.192176    1.038166    0.179670
      5          7           0        0.728811    2.209111   -0.103506
      6          6           0       -0.385978    2.762717    0.630520
      7          6           0       -1.737781    2.495831   -0.071123
      8          6           0       -2.100695    1.042592   -0.083916
      9          7           0       -2.574097    0.391602    0.943092
     10          6           0       -2.772808   -0.938469    0.642995
     11          6           0       -2.446008   -1.343084   -0.621515
     12         16           0       -1.842229    0.037154   -1.504553
     13          6           0       -2.538564   -2.713411   -1.214840
     14          7           0        2.168664    0.527428   -0.687059
     15          6           0        3.411682    0.004525   -0.161499
     16          6           0        3.786414   -1.437038   -0.420388
     17          6           0        4.478827   -0.324519   -1.167573
     18          1           0        0.860356   -1.513045    3.318239
     19          1           0        0.184574   -2.884466    2.412853
     20          1           0       -0.781349   -1.419121    2.646083
     21          1           0        1.806296   -1.608349    1.006307
     22          1           0        0.183364   -1.540045    0.316231
     23          1           0        0.048663    0.602798    1.754224
     24          1           0       -0.470438    2.427283    1.678004
     25          1           0       -0.249807    3.850318    0.677014
     26          1           0       -2.530803    3.041154    0.453366
     27          1           0       -1.678618    2.877994   -1.094840
     28          1           0       -3.175475   -1.597113    1.405363
     29          1           0       -3.184302   -2.734555   -2.100441
     30          1           0       -1.554706   -3.093804   -1.515189
     31          1           0       -2.955733   -3.406102   -0.477107
     32          1           0        2.325985    1.246774   -1.386726
     33          1           0        3.739618    0.434935    0.784234
     34          1           0        3.067683   -2.031895   -0.975509
     35          1           0        4.339043   -1.975426    0.344979
     36          1           0        4.224097   -0.197568   -2.216525
     37          1           0        5.508577   -0.082874   -0.922147
 ---------------------------------------------------------------------

 SCF Done:  E(UB3LYP) =  -1086.75322521     A.U. after   33 cycles
 SCF Done:  E(UB3LYP) =  -1086.75322521     a.u. after    1 cycles

 The electronic state is 2-A.
 Alpha  occ. eigenvalues --  -88.76228 -14.22232 -14.22143 -14.19799 -14.17108
 Alpha  occ. eigenvalues --  -10.16262 -10.11712 -10.11548 -10.09761 -10.09419
 Alpha  occ. eigenvalues --  -10.09186 -10.08569 -10.08421 -10.08078 -10.07595
 Alpha  occ. eigenvalues --  -10.07439 -10.06002  -7.84886  -5.81147  -5.80809
 Alpha  occ. eigenvalues --   -5.80510  -0.88419  -0.84954  -0.81040  -0.78011
 Alpha  occ. eigenvalues --   -0.74012  -0.70073  -0.67675  -0.64741  -0.62894
 Alpha  occ. eigenvalues --   -0.58736  -0.54686  -0.52475  -0.51547  -0.50116
 Alpha  occ. eigenvalues --   -0.48587  -0.45817  -0.43563  -0.42298  -0.40302
 Alpha  occ. eigenvalues --   -0.39132  -0.37760  -0.37470  -0.36647  -0.34797
 Alpha  occ. eigenvalues --   -0.33518  -0.32818  -0.32041  -0.31781  -0.30794
 Alpha  occ. eigenvalues --   -0.29913  -0.29187  -0.28250  -0.27729  -0.27382
 Alpha  occ. eigenvalues --   -0.26880  -0.26222  -0.25906  -0.25132  -0.24229
 Alpha  occ. eigenvalues --   -0.21193  -0.20666  -0.17193  -0.16639  -0.15257
 Alpha  occ. eigenvalues --   -0.15135  -0.13390  -0.11351   0.04596
 Alpha virt. eigenvalues --    0.06254   0.06674   0.07658   0.07916   0.08510
 Alpha virt. eigenvalues --    0.08971   0.09419   0.09843   0.09892   0.10726
 Alpha virt. eigenvalues --    0.11246   0.11405   0.11599   0.12341   0.12546

  Beta  occ. eigenvalues --  -88.76210 -14.22226 -14.22138 -14.19778 -14.17109
  Beta  occ. eigenvalues --  -10.16257 -10.11708 -10.11343 -10.09739 -10.09412
  Beta  occ. eigenvalues --  -10.09056 -10.08573 -10.08408 -10.08092 -10.07568
  Beta  occ. eigenvalues --  -10.07414 -10.05973  -7.84869  -5.81142  -5.80804
  Beta  occ. eigenvalues --   -5.80442  -0.88409  -0.84803  -0.81028  -0.77998
  Beta  occ. eigenvalues --   -0.73992  -0.69900  -0.67554  -0.64694  -0.62807
  Beta  occ. eigenvalues --   -0.58642  -0.54656  -0.52427  -0.51502  -0.50070
  Beta  occ. eigenvalues --   -0.48559  -0.45632  -0.43477  -0.42218  -0.40271
  Beta  occ. eigenvalues --   -0.39079  -0.37731  -0.37386  -0.36600  -0.34691
  Beta  occ. eigenvalues --   -0.33475  -0.32660  -0.31937  -0.31683  -0.30719
  Beta  occ. eigenvalues --   -0.29857  -0.29111  -0.28194  -0.27671  -0.27218
  Beta  occ. eigenvalues --   -0.26835  -0.26173  -0.25824  -0.25076  -0.24118
  Beta  occ. eigenvalues --   -0.21174  -0.20642  -0.16850  -0.16576  -0.15234
  Beta  occ. eigenvalues --   -0.15094  -0.12895  -0.11174
  Beta virt. eigenvalues --    0.06782   0.07091   0.07376   0.07961   0.08489
  Beta virt. eigenvalues --    0.09060   0.09242   0.09576   0.09821   0.10150
  Beta virt. eigenvalues --    0.11030   0.11386   0.11681   0.11944   0.12393

 Mulliken charges and spin densities:
               1          2
     1  C    0.091558  -0.815887
     2  C   -0.766775   0.658263
     3  N   -0.018891  -0.011829
     4  C   -0.251637  -0.238921
     5  N   -0.092641   0.003111
     6  C   -0.227701  -0.058983
     7  C   -0.425392   0.021296
     8  C   -0.066234   0.033931
     9  N    0.011373   0.001331
    10  C   -0.627547   0.076594
    11  C   -0.478094   0.605871
    12  S   -0.008419   0.167550
    13  C    1.138434  -1.492940
    14  N    0.191132  -0.011986
    15  C   -1.107270   1.052171
    16  C    0.720798  -1.134281
    17  C    0.407223  -0.720365
    18  H   -0.020365   0.174184
    19  H   -0.454612   0.612761
    20  H    0.102279   0.032072
    21  H   -0.238030   0.406122
    22  H    1.186344  -1.010862
    23  H    0.247727  -0.045165
    24  H    0.134987  -0.010859
    25  H    0.124114   0.051207
    26  H    0.093347   0.057187
    27  H    0.151376   0.018025
    28  H    0.024839   0.135212
    29  H    0.033761   0.111667
    30  H   -0.657517   0.850684
    31  H   -0.127734   0.278209
    32  H    0.279027  -0.003300
    33  H    0.093584   0.123916
    34  H   -0.128268   0.313429
    35  H   -0.323546   0.480681
    36  H    0.043236   0.089815
    37  H   -0.054466   0.200090
 Sum of Mulliken charges =  -1.00000   1.00000

 Dipole moment (field-independent basis, Debye):
    X=             -2.0562    Y=              6.5710    Z=             -0.3820  Tot=              6.8958
 Quadrupole moment (field-independent basis, Debye-Ang):
   XX=           -170.3592   YY=           -169.6318   ZZ=           -142.1989
   XY=              7.2686   XZ=             -0.0873   YZ=              0.5107

 Summary of Natural Population Analysis:

                                       Natural Population
                Natural  -----------------------------------------------
    Atom  No    Charge         Core      Valence    Rydberg      Total
 -----------------------------------------------------------------------
      C    1   -0.28873      0.99966     2.28334    0.00572     3.28873
      C    2   -0.09267      0.99962     2.08202    0.01103     3.09267
      N    3   -0.33333      0.99966     2.82482    0.00884     3.83333
      C    4    0.32292      0.99959     1.65984    0.01766     2.67708
      N    5   -0.31442      0.99965     2.80491    0.00986     3.81442
      C    6   -0.08627      0.99961     2.07588    0.01078     3.08627
      C    7   -0.21548      0.99956     2.20623    0.00969     3.21548
      C    8    0.06728      0.99960     1.91420    0.01892     2.93272
      N    9   -0.25710      0.99964     2.74666    0.01079     3.75710
      C   10   -0.03384      0.99945     2.01840    0.01599     3.03384
      C   11   -0.09699      0.99950     2.08544    0.01205     3.09699
      S   12    0.19561      4.99937     2.78694    0.01808     7.80439
      C   13   -0.29915      0.99961     2.29216    0.00738     3.29915
      N   14   -0.32739      0.99966     2.81748    0.01024     3.82739
      C   15   -0.02202      0.99957     2.01014    0.01231     3.02202
      C   16   -0.20431      0.99962     2.19403    0.01067     3.20431
      C   17   -0.20105      0.99962     2.19312    0.00831     3.20105
      H   18    0.09616      0.00000     0.40288    0.00096     0.40384
      H   19    0.10524      0.00000     0.39355    0.00122     0.39476
      H   20    0.09997      0.00000     0.39887    0.00115     0.40003
      H   21    0.09840      0.00000     0.39907    0.00252     0.40160
      H   22    0.09200      0.00000     0.40487    0.00313     0.40800
      H   23    0.19226      0.00000     0.30523    0.00252     0.30774
      H   24    0.07795      0.00000     0.42064    0.00140     0.42205
      H   25    0.08964      0.00000     0.40871    0.00165     0.41036
      H   26    0.10645      0.00000     0.39199    0.00156     0.39355
      H   27    0.10365      0.00000     0.39505    0.00129     0.39635
      H   28    0.09694      0.00000     0.40184    0.00122     0.40306
      H   29    0.10108      0.00000     0.39801    0.00091     0.39892
      H   30    0.11224      0.00000     0.38479    0.00297     0.38776
      H   31    0.10717      0.00000     0.39176    0.00107     0.39283
      H   32    0.19022      0.00000     0.30725    0.00254     0.30978
      H   33    0.09690      0.00000     0.40173    0.00137     0.40310
      H   34    0.11039      0.00000     0.38787    0.00174     0.38961
      H   35    0.10456      0.00000     0.39364    0.00180     0.39544
      H   36    0.10272      0.00000     0.39625    0.00103     0.39728
      H   37    0.10297      0.00000     0.39618    0.00085     0.39703
 =======================================================================
   * Total *    0.00000     20.99300    46.77578    0.23122    68.00000

 Normal termination of Gaussian 16 at Mon Dec 14 20:11:50 2020.
