 Gaussian 16, Revision A.03,

 -----------------------------------------------------------
 # opt freq B3LYP/6-31G(d) empiricaldispersion=gd3bj scf=xqc
 -----------------------------------------------------------

 -----------------------------
 CID_3020093_JID_9296_neutraal
 -----------------------------
 Symbolic Z-matrix:
 Charge =  0 Multiplicity = 1

 SCF Done:  E(RB3LYP) =  -1331.29079657     A.U. after   15 cycles
 SCF Done:  E(RB3LYP) =  -1331.29405874     A.U. after   14 cycles
 SCF Done:  E(RB3LYP) =  -1331.29855868     A.U. after   13 cycles
 SCF Done:  E(RB3LYP) =  -1331.30077548     A.U. after   13 cycles
 SCF Done:  E(RB3LYP) =  -1331.30217108     A.U. after   12 cycles
 SCF Done:  E(RB3LYP) =  -1331.30266291     A.U. after   13 cycles
 SCF Done:  E(RB3LYP) =  -1331.30324449     A.U. after   11 cycles
 SCF Done:  E(RB3LYP) =  -1331.30338633     A.U. after   12 cycles
 SCF Done:  E(RB3LYP) =  -1331.30352788     A.U. after   12 cycles
 SCF Done:  E(RB3LYP) =  -1331.30356006     A.U. after   11 cycles
 SCF Done:  E(RB3LYP) =  -1331.30360864     A.U. after   10 cycles
 SCF Done:  E(RB3LYP) =  -1331.30361104     A.U. after   10 cycles
 SCF Done:  E(RB3LYP) =  -1331.30361161     A.U. after    8 cycles
 SCF Done:  E(RB3LYP) =  -1331.30361177     A.U. after    8 cycles
 SCF Done:  E(RB3LYP) =  -1331.30361182     A.U. after    7 cycles
 SCF Done:  E(RB3LYP) =  -1331.30361185     A.U. after    7 cycles
 Optimization completed.
    -- Stationary point found.
 Normal termination of Gaussian 16 at Sun Dec 13 20:23:07 2020.

 --------------------------------------------------------------------
 #N Geom=AllCheck Guess=TCheck SCRF=Check GenChk RB3LYP/6-31G(d) Freq
 --------------------------------------------------------------------

 Structure from the checkpoint file:  "JID_9296.chk"
 -----------------------------
 CID_3020093_JID_9296_neutraal
 -----------------------------
 Charge =  0 Multiplicity = 1

 SCF Done:  E(RB3LYP) =  -1331.30361185     A.U. after    1 cycles

  Exact polarizability: 202.701   2.986 174.884   3.178 -11.485 100.700
 Approx polarizability: 294.001  20.443 295.418   9.601 -40.289 161.162

                      1                      2                      3
                      A                      A                      A
 Frequencies --     25.3608                41.3192                45.5620
 Red. masses --      5.3926                 5.6622                10.2117
 Frc consts  --      0.0020                 0.0057                 0.0125
 IR Inten    --      3.4431                 0.8390                 2.4432

                      4                      5                      6
                      A                      A                      A
 Frequencies --     54.3513                71.0676                75.9196
 Red. masses --      4.7898                 6.4910                 4.1307
 Frc consts  --      0.0083                 0.0193                 0.0140
 IR Inten    --      0.3132                 3.3481                 0.9351

                      7                      8                      9
                      A                      A                      A
 Frequencies --     88.5288               114.7794               146.6264
 Red. masses --      5.4267                 5.8956                 7.1855
 Frc consts  --      0.0251                 0.0458                 0.0910
 IR Inten    --      0.5376                 0.9679                 3.3601

                     10                     11                     12
                      A                      A                      A
 Frequencies --    167.1156               191.9971               214.7222
 Red. masses --      4.3385                 1.5610                 9.4245
 Frc consts  --      0.0714                 0.0339                 0.2560
 IR Inten    --      4.5620                60.7231                 3.8248

                     13                     14                     15
                      A                      A                      A
 Frequencies --    237.8997               249.5962               259.9762
 Red. masses --      1.9141                 1.1545                 7.8318
 Frc consts  --      0.0638                 0.0424                 0.3119
 IR Inten    --     33.3707                 1.7044                 4.7827

                     16                     17                     18
                      A                      A                      A
 Frequencies --    290.4346               296.1176               312.4317
 Red. masses --      4.7202                 5.4290                 4.0139
 Frc consts  --      0.2346                 0.2805                 0.2308
 IR Inten    --      2.0764                 2.3206                 6.1584

                     19                     20                     21
                      A                      A                      A
 Frequencies --    339.3304               361.3425               403.2902
 Red. masses --      4.3629                 7.1365                 3.7744
 Frc consts  --      0.2960                 0.5490                 0.3617
 IR Inten    --     12.7360                 0.9447                 7.5383

                     22                     23                     24
                      A                      A                      A
 Frequencies --    446.0072               454.6867               466.7765
 Red. masses --      4.6234                 4.1948                 5.5061
 Frc consts  --      0.5419                 0.5110                 0.7068
 IR Inten    --      7.4189                37.7280                27.8176

                     25                     26                     27
                      A                      A                      A
 Frequencies --    503.5116               520.0671               539.7251
 Red. masses --      3.8962                 3.7625                 6.0074
 Frc consts  --      0.5820                 0.5996                 1.0311
 IR Inten    --     12.0143                29.5725                19.9323

                     28                     29                     30
                      A                      A                      A
 Frequencies --    559.0521               579.2501               595.3086
 Red. masses --      2.2528                 3.0356                 2.4018
 Frc consts  --      0.4148                 0.6001                 0.5015
 IR Inten    --      3.5890                31.7146                31.9658

                     31                     32                     33
                      A                      A                      A
 Frequencies --    620.9630               657.1657               666.2728
 Red. masses --      2.2987                 4.5655                 5.3819
 Frc consts  --      0.5222                 1.1617                 1.4076
 IR Inten    --     30.0012                25.1956                28.5562

                     34                     35                     36
                      A                      A                      A
 Frequencies --    710.1918               717.6066               728.1377
 Red. masses --      3.1332                 2.8711                 2.0659
 Frc consts  --      0.9311                 0.8711                 0.6454
 IR Inten    --     10.3030               113.8818               138.7189

                     37                     38                     39
                      A                      A                      A
 Frequencies --    780.8607               800.9216               840.6019
 Red. masses --      4.6423                 3.5830                 4.0884
 Frc consts  --      1.6677                 1.3542                 1.7021
 IR Inten    --     37.4116                 2.2872                 8.9338

                     40                     41                     42
                      A                      A                      A
 Frequencies --    864.2514               873.7815               902.0265
 Red. masses --      1.5709                 2.1636                 1.3987
 Frc consts  --      0.6913                 0.9733                 0.6705
 IR Inten    --     10.6592                 9.0204                 7.7961

                     43                     44                     45
                      A                      A                      A
 Frequencies --    968.4933               982.4825               994.4265
 Red. masses --      2.7651                 2.4701                 1.3239
 Frc consts  --      1.5281                 1.4048                 0.7714
 IR Inten    --      7.8878                 4.3058                 0.3187

                     46                     47                     48
                      A                      A                      A
 Frequencies --   1044.3550              1044.6226              1070.6613
 Red. masses --      1.6038                 1.7935                 1.6976
 Frc consts  --      1.0306                 1.1531                 1.1466
 IR Inten    --     33.9691                11.1230                 9.0336

                     49                     50                     51
                      A                      A                      A
 Frequencies --   1094.2749              1095.1678              1106.9710
 Red. masses --      5.6078                 3.5691                 6.1759
 Frc consts  --      3.9563                 2.5221                 4.4589
 IR Inten    --     49.6616                18.9502               258.5373

                     52                     53                     54
                      A                      A                      A
 Frequencies --   1145.4210              1150.5600              1183.2184
 Red. masses --      2.1413                 1.8440                 1.1611
 Frc consts  --      1.6552                 1.4383                 0.9577
 IR Inten    --     33.2149                96.1103                39.7549

                     55                     56                     57
                      A                      A                      A
 Frequencies --   1214.7035              1260.1173              1264.4512
 Red. masses --      1.6363                 2.2255                 1.1930
 Frc consts  --      1.4225                 2.0821                 1.1239
 IR Inten    --    154.5752                24.1710                22.5304

                     58                     59                     60
                      A                      A                      A
 Frequencies --   1302.5097              1309.7206              1318.8890
 Red. masses --      2.1013                 1.9316                 1.8870
 Frc consts  --      2.1004                 1.9522                 1.9340
 IR Inten    --     99.8897                45.0425               129.0157

                     61                     62                     63
                      A                      A                      A
 Frequencies --   1333.4556              1348.1109              1353.7923
 Red. masses --      2.5764                 1.9521                 2.6453
 Frc consts  --      2.6991                 2.0903                 2.8565
 IR Inten    --    285.5204                23.6308                23.0434

                     64                     65                     66
                      A                      A                      A
 Frequencies --   1377.5489              1430.6571              1460.1963
 Red. masses --      2.9188                 1.3199                 1.1930
 Frc consts  --      3.2633                 1.5918                 1.4988
 IR Inten    --     78.8402                51.6704                 2.9251

                     67                     68                     69
                      A                      A                      A
 Frequencies --   1468.3634              1472.9069              1484.2515
 Red. masses --      3.9919                 1.3887                 1.8528
 Frc consts  --      5.0710                 1.7751                 2.4049
 IR Inten    --    133.3859                20.5738                33.4714

                     70                     71                     72
                      A                      A                      A
 Frequencies --   1512.1735              1521.8235              1548.0189
 Red. masses --      1.0594                 1.0648                 1.0897
 Frc consts  --      1.4273                 1.4529                 1.5385
 IR Inten    --     25.8258                10.8203                 8.2581

                     73                     74                     75
                      A                      A                      A
 Frequencies --   1553.3346              1624.6380              1662.8750
 Red. masses --      2.2612                 5.5904                 6.2030
 Frc consts  --      3.2146                 8.6938                10.1058
 IR Inten    --     87.7476                55.6001                91.1978

                     76                     77                     78
                      A                      A                      A
 Frequencies --   1797.8864              1822.7740              3010.9892
 Red. masses --      8.0719                 9.6893                 1.0639
 Frc consts  --     15.3727                18.9675                 5.6827
 IR Inten    --    508.9945               265.6903                66.6720

                     79                     80                     81
                      A                      A                      A
 Frequencies --   3062.4733              3063.6515              3096.2001
 Red. masses --      1.0993                 1.0403                 1.0604
 Frc consts  --      6.0745                 5.7529                 5.9894
 IR Inten    --     15.8532                 2.0898                 1.7909

                     82                     83                     84
                      A                      A                      A
 Frequencies --   3133.2641              3156.8517              3172.1007
 Red. masses --      1.0965                 1.1062                 1.1039
 Frc consts  --      6.3423                 6.4954                 6.5443
 IR Inten    --      4.6680                 1.7840                 6.2278

                     85                     86                     87
                      A                      A                      A
 Frequencies --   3230.4156              3244.7694              3251.1404
 Red. masses --      1.0886                 1.0942                 1.0903
 Frc consts  --      6.6931                 6.7879                 6.7903
 IR Inten    --      1.9687                 1.2840                 0.7338

                     88                     89                     90
                      A                      A                      A
 Frequencies --   3585.5888              3691.3008              3769.7608
 Red. masses --      1.0752                 1.0642                 1.0666
 Frc consts  --      8.1443                 8.5432                 8.9306
 IR Inten    --    113.4488                95.6240                28.1264

 - Thermochemistry -
 -------------------
 Temperature   298.150 Kelvin.  Pressure   1.00000 Atm.
 Atom     1 has atomic number  6 and mass  12.00000

 Molecular mass:   287.04636 amu.
 Principal axes and moments of inertia in atomic units:
                           1         2         3
     Eigenvalues --  3701.724727509.718269261.35451
           X            0.99985  -0.00928  -0.01433
           Y            0.00943   0.99990   0.01049
           Z            0.01423  -0.01062   0.99984
 This molecule is an asymmetric top.
 Rotational symmetry number  1.
 Warning -- assumption of classical behavior for rotation
           may cause significant error
 Rotational temperatures (Kelvin)      0.02340     0.01153     0.00935
 Rotational constants (GHZ):           0.48754     0.24032     0.19487
 Zero-point vibrational energy     637653.2 (Joules/Mol)
                                  152.40278 (Kcal/Mol)
 Warning -- explicit consideration of  30 degrees of freedom as
           vibrations may cause significant error
 Vibrational temperatures:     36.49    59.45    65.55    78.20   102.25
          (Kelvin)            109.23   127.37   165.14   210.96   240.44
                              276.24   308.94   342.28   359.11   374.05
                              417.87   426.05   449.52   488.22   519.89
                              580.24   641.70   654.19   671.59   724.44
                              748.26   776.54   804.35   833.41   856.52
                              893.43   945.51   958.62  1021.81  1032.48
                             1047.63  1123.48  1152.35  1209.44  1243.46
                             1257.18  1297.81  1393.45  1413.57  1430.76
                             1502.59  1502.98  1540.44  1574.42  1575.70
                             1592.68  1648.01  1655.40  1702.39  1747.69
                             1813.03  1819.26  1874.02  1884.40  1897.59
                             1918.55  1939.63  1947.81  1981.99  2058.40
                             2100.90  2112.65  2119.18  2135.51  2175.68
                             2189.56  2227.25  2234.90  2337.49  2392.51
                             2586.76  2622.57  4332.14  4406.22  4407.91
                             4454.74  4508.07  4542.01  4563.95  4647.85
                             4668.50  4677.67  5158.86  5310.96  5423.84

 Zero-point correction=                           0.242869 (Hartree/Particle)
 Thermal correction to Energy=                    0.261835
 Thermal correction to Enthalpy=                  0.262780
 Thermal correction to Gibbs Free Energy=         0.193951
 Sum of electronic and zero-point Energies=          -1331.060743
 Sum of electronic and thermal Energies=             -1331.041776
 Sum of electronic and thermal Enthalpies=           -1331.040832
 Sum of electronic and thermal Free Energies=        -1331.109661

                     E (Thermal)             CV                S
                      KCal/Mol        Cal/Mol-Kelvin    Cal/Mol-Kelvin
 Total                  164.304             69.660            144.861
 Electronic               0.000              0.000              0.000
 Translational            0.889              2.981             42.861
 Rotational               0.889              2.981             33.909
 Vibrational            162.527             63.698             68.091
 Vibration     1          0.593              1.985              6.163
 Vibration     2          0.594              1.981              5.195
 Vibration     3          0.595              1.979              5.001
 Vibration     4          0.596              1.976              4.652
 Vibration     5          0.598              1.968              4.124
 Vibration     6          0.599              1.965              3.994
 Vibration     7          0.601              1.957              3.692
 Vibration     8          0.608              1.937              3.186
 Vibration     9          0.617              1.906              2.716
 Vibration    10          0.624              1.883              2.468
 Vibration    11          0.634              1.851              2.208
 Vibration    12          0.645              1.819              2.003
 Vibration    13          0.656              1.783              1.819
 Vibration    14          0.662              1.763              1.733
 Vibration    15          0.668              1.746              1.662
 Vibration    16          0.686              1.692              1.471
 Vibration    17          0.690              1.681              1.439
 Vibration    18          0.701              1.650              1.349
 Vibration    19          0.719              1.597              1.215
 Vibration    20          0.736              1.552              1.116
 Vibration    21          0.769              1.463              0.951
 Vibration    22          0.805              1.370              0.808
 Vibration    23          0.813              1.351              0.782
 Vibration    24          0.824              1.324              0.747
 Vibration    25          0.859              1.242              0.649
 Vibration    26          0.875              1.206              0.610
 Vibration    27          0.895              1.162              0.566
 Vibration    28          0.915              1.120              0.526
 Vibration    29          0.936              1.076              0.487
 Vibration    30          0.953              1.042              0.458

                           ! Non-Optimized Parameters !
 Normal termination of Gaussian 16 at Sun Dec 13 20:40:40 2020.

 ----------------------------------------------------------------------
 # B3LYP/6-311++G(d,p) empiricaldispersion=gd3bj scf=xqc pop=npa geom=c
 heck
 ----------------------------------------------------------------------

 -------------------------------------
 CID_3020093_JID_9296_Energie_neutraal
 -------------------------------------
 Structure from the checkpoint file:  "JID_9296.chk"
 Charge =  0 Multiplicity = 1

 SCF Done:  E(RB3LYP) =  -1331.61879228     A.U. after   17 cycles
 Normal termination of Gaussian 16 at Sun Dec 13 20:48:40 2020.

 ----------------------------------------------------------------------
 # B3LYP/6-311++G(d,p) empiricaldispersion=gd3bj scf=xqc pop=npa geom=c
 heck
 ----------------------------------------------------------------------

 -----------------------------------
 CID_3020093_JID_9296_Energie_kation
 -----------------------------------
 Structure from the checkpoint file:  "JID_9296.chk"
 Charge =  1 Multiplicity = 2

 SCF Done:  E(UB3LYP) =  -1331.29724302     A.U. after   30 cycles
 Normal termination of Gaussian 16 at Sun Dec 13 21:09:29 2020.
 Gaussian 16:  ES64L-G16RevA.03 25-Dec-2016

 ----------------------------------------------------------------------
 # B3LYP/6-311++G(d,p) empiricaldispersion=gd3bj scf=xqc pop=npa geom=c
 heck
 ----------------------------------------------------------------------

 ----------------------------------
 CID_3020093_JID_9296_Energie_anion
 ----------------------------------
 Structure from the checkpoint file:  "JID_9296.chk"
 Charge = -1 Multiplicity = 2

                         Standard orientation:
 ---------------------------------------------------------------------
 Center     Atomic      Atomic             Coordinates (Angstroms)
 Number     Number       Type             X           Y           Z
 ---------------------------------------------------------------------
      1          6           0        0.862941    2.927548    0.474473
      2          6           0        2.145794    2.433590   -0.167543
      3          8           0        3.117266    3.157171   -0.308704
      4          7           0        2.238460    1.104840   -0.581974
      5          6           0        1.312242    0.067658   -0.455051
      6          6           0        1.687725   -1.243371   -0.054505
      7          6           0        0.699513   -2.223100    0.126474
      8          6           0       -0.646852   -1.946526   -0.063394
      9          6           0       -0.989578   -0.669734   -0.498885
     10          6           0       -0.039628    0.310940   -0.735452
     11         16           0       -2.721692   -0.266341   -0.758648
     12          8           0       -2.850365    0.410787   -2.057917
     13          8           0       -3.506269   -1.470618   -0.437981
     14          6           0       -3.102914    0.984505    0.511985
     15          6           0       -2.917228    0.503530    1.939252
     16          8           0       -1.522115    0.490537    2.217255
     17          6           0        3.077351   -1.700973    0.218826
     18          8           0        3.359876   -2.745763    0.766425
     19          8           0        4.046571   -0.855526   -0.228210
     20          1           0        1.131853    3.781512    1.098458
     21          1           0        0.352022    2.169003    1.073938
     22          1           0        0.166831    3.285018   -0.293194
     23          1           0        3.197266    0.835842   -0.770500
     24          1           0        1.024287   -3.208345    0.441150
     25          1           0       -1.417223   -2.690188    0.101250
     26          1           0       -0.338436    1.265762   -1.146364
     27          1           0       -2.486641    1.863105    0.305269
     28          1           0       -4.149916    1.229649    0.307676
     29          1           0       -3.450490    1.194665    2.609750
     30          1           0       -3.367635   -0.492169    2.049165
     31          1           0       -1.377757    0.006147    3.043272
     32          1           0        4.897789   -1.269552    0.008289
 ---------------------------------------------------------------------

 SCF Done:  E(UB3LYP) =  -1331.65793743     A.U. after   23 cycles

 The electronic state is 2-A.
 Alpha  occ. eigenvalues --  -88.92475 -19.04642 -19.04396 -18.99811 -18.99554
 Alpha  occ. eigenvalues --  -18.98090 -18.96432 -14.22313 -10.16789 -10.15256
 Alpha  occ. eigenvalues --  -10.14907 -10.11158 -10.09388 -10.07098 -10.05896
 Alpha  occ. eigenvalues --  -10.05126 -10.04578 -10.04395 -10.04005  -7.98887
 Alpha  occ. eigenvalues --   -5.95185  -5.95067  -5.94954  -0.98860  -0.97879
 Alpha  occ. eigenvalues --   -0.94831  -0.93435  -0.88730  -0.88247  -0.81875
 Alpha  occ. eigenvalues --   -0.73061  -0.70121  -0.65240  -0.63530  -0.62123
 Alpha  occ. eigenvalues --   -0.58270  -0.54681  -0.51270  -0.49849  -0.46322
 Alpha  occ. eigenvalues --   -0.45630  -0.45215  -0.42477  -0.40038  -0.38170
 Alpha  occ. eigenvalues --   -0.37440  -0.37134  -0.36246  -0.35219  -0.34747
 Alpha  occ. eigenvalues --   -0.33951  -0.33392  -0.32572  -0.32395  -0.31857
 Alpha  occ. eigenvalues --   -0.30853  -0.30265  -0.29665  -0.28812  -0.27294
 Alpha  occ. eigenvalues --   -0.26906  -0.25232  -0.24604  -0.23644  -0.21794
 Alpha  occ. eigenvalues --   -0.21167  -0.20561  -0.20439  -0.19501  -0.18216
 Alpha  occ. eigenvalues --   -0.17045  -0.15475  -0.15131  -0.13804  -0.11037
 Alpha  occ. eigenvalues --    0.01864
 Alpha virt. eigenvalues --    0.05958   0.07963   0.08542   0.09028   0.09690
 Alpha virt. eigenvalues --    0.09926   0.10970   0.11305   0.11435   0.12463
 Alpha virt. eigenvalues --    0.13403   0.13719   0.13872   0.14383   0.14810

  Beta  occ. eigenvalues --  -88.92474 -19.04639 -19.04317 -18.99790 -18.99515
  Beta  occ. eigenvalues --  -18.98052 -18.96128 -14.22334 -10.16756 -10.15023
  Beta  occ. eigenvalues --  -10.14903 -10.11135 -10.09263 -10.07099 -10.05514
  Beta  occ. eigenvalues --  -10.05114 -10.04586 -10.04137 -10.03860  -7.98884
  Beta  occ. eigenvalues --   -5.95185  -5.95045  -5.94961  -0.98759  -0.97581
  Beta  occ. eigenvalues --   -0.94824  -0.93367  -0.88653  -0.87786  -0.81767
  Beta  occ. eigenvalues --   -0.72653  -0.70030  -0.64749  -0.63336  -0.61799
  Beta  occ. eigenvalues --   -0.58036  -0.54175  -0.51150  -0.49660  -0.46153
  Beta  occ. eigenvalues --   -0.45419  -0.45184  -0.42292  -0.39905  -0.37967
  Beta  occ. eigenvalues --   -0.37306  -0.36948  -0.36156  -0.35027  -0.34549
  Beta  occ. eigenvalues --   -0.33817  -0.33198  -0.32390  -0.32121  -0.31040
  Beta  occ. eigenvalues --   -0.30696  -0.30177  -0.29539  -0.28656  -0.27041
  Beta  occ. eigenvalues --   -0.26848  -0.24914  -0.23938  -0.23452  -0.21686
  Beta  occ. eigenvalues --   -0.21022  -0.20496  -0.19330  -0.19235  -0.17723
  Beta  occ. eigenvalues --   -0.16781  -0.15424  -0.14761  -0.12074  -0.10116
  Beta virt. eigenvalues --    0.05907   0.07497   0.08180   0.08547   0.09034
  Beta virt. eigenvalues --    0.09785   0.10176   0.10949   0.11302   0.11467
  Beta virt. eigenvalues --    0.12470   0.13399   0.14043   0.14121   0.14666

 Mulliken charges and spin densities:
               1          2
     1  C   -0.530916  -0.001216
     2  C    0.110053   0.022746
     3  O   -0.356644   0.013823
     4  N   -0.177880  -0.005059
     5  C   -0.991407   0.088701
     6  C    0.428284   0.143868
     7  C   -0.649885   0.152417
     8  C   -0.386631   0.025731
     9  C    0.478441   0.225487
    10  C   -0.389650   0.032718
    11  S    0.636616   0.026790
    12  O   -0.084017  -0.015729
    13  O   -0.210922   0.007290
    14  C   -0.608475   0.017856
    15  C   -0.471779  -0.015849
    16  O   -0.173917  -0.003682
    17  C    0.230374   0.137410
    18  O   -0.399170   0.108537
    19  O   -0.290316   0.012445
    20  H    0.163833   0.003107
    21  H    0.214062  -0.000398
    22  H    0.153485   0.003099
    23  H    0.377572   0.003948
    24  H    0.185129  -0.007683
    25  H    0.190992   0.004096
    26  H    0.222311  -0.000765
    27  H    0.286117  -0.008104
    28  H    0.181497   0.020864
    29  H    0.121112   0.008396
    30  H    0.200708  -0.001962
    31  H    0.247911   0.001339
    32  H    0.293110  -0.000220
 Sum of Mulliken charges =  -1.00000   1.00000

 Dipole moment (field-independent basis, Debye):
    X=             -3.8129    Y=              2.8795    Z=              4.7933  Tot=              6.7680
 Quadrupole moment (field-independent basis, Debye-Ang):
   XX=           -165.7066   YY=           -156.2951   ZZ=           -128.2739
   XY=            -11.1073   XZ=            -17.7186   YZ=              4.6302

 Summary of Natural Population Analysis:

                                       Natural Population
                Natural  -----------------------------------------------
    Atom  No    Charge         Core      Valence    Rydberg      Total
 -----------------------------------------------------------------------
      C    1   -0.33880      0.99962     2.33465    0.00453     3.33880
      C    2    0.34843      0.99972     1.63114    0.02070     2.65157
      O    3   -0.32420      0.99987     3.31738    0.00694     4.32420
      N    4   -0.31748      0.99963     2.80715    0.01070     3.81748
      C    5    0.11277      0.99947     1.87770    0.01006     2.88723
      C    6   -0.04385      0.99944     2.03481    0.00959     3.04385
      C    7   -0.03756      0.99945     2.02924    0.00887     3.03756
      C    8   -0.11850      0.99952     2.10794    0.01104     3.11850
      C    9   -0.05408      0.99936     2.03947    0.01526     3.05408
      C   10   -0.11719      0.99948     2.10831    0.00940     3.11719
      S   11    1.03482      4.99917     1.87104    0.09497     6.96518
      O   12   -0.47222      0.99991     3.46655    0.00576     4.47222
      O   13   -0.47933      0.99991     3.47351    0.00591     4.47933
      C   14   -0.29767      0.99958     2.28543    0.01265     3.29767
      C   15   -0.02161      0.99959     2.01084    0.01118     3.02161
      O   16   -0.36321      0.99989     3.35572    0.00760     4.36321
      C   17    0.42658      0.99967     1.54956    0.02419     2.57342
      O   18   -0.29864      0.99987     3.29086    0.00790     4.29864
      O   19   -0.36091      0.99987     3.35510    0.00593     4.36091
      H   20    0.10693      0.00000     0.39198    0.00108     0.39307
      H   21    0.11994      0.00000     0.37915    0.00090     0.38006
      H   22    0.10675      0.00000     0.39239    0.00086     0.39325
      H   23    0.21328      0.00000     0.28502    0.00170     0.28672
      H   24    0.10609      0.00000     0.39271    0.00120     0.39391
      H   25    0.10858      0.00000     0.39028    0.00115     0.39142
      H   26    0.10325      0.00000     0.39511    0.00163     0.39675
      H   27    0.11443      0.00000     0.38420    0.00137     0.38557
      H   28    0.11312      0.00000     0.38548    0.00141     0.38688
      H   29    0.07480      0.00000     0.42353    0.00166     0.42520
      H   30    0.08988      0.00000     0.40857    0.00155     0.41012
      H   31    0.22932      0.00000     0.26822    0.00246     0.27068
      H   32    0.23627      0.00000     0.26071    0.00303     0.26373
 =======================================================================
   * Total *    0.00001     22.99303    51.70376    0.30320    74.99999

 Normal termination of Gaussian 16 at Sun Dec 13 21:25:35 2020.
