 Gaussian 16, Revision A.03,

 -----------------------------------------------------------
 # opt freq B3LYP/6-31G(d) empiricaldispersion=gd3bj scf=xqc
 -----------------------------------------------------------

 ------------------------------
 CID_55380904_JID_8148_neutraal
 ------------------------------
 Symbolic Z-matrix:
 Charge =  0 Multiplicity = 1

 SCF Done:  E(RB3LYP) =  -876.082653477     A.U. after   15 cycles
 SCF Done:  E(RB3LYP) =  -876.086096384     A.U. after   13 cycles
 SCF Done:  E(RB3LYP) =  -876.085257849     A.U. after   13 cycles
 SCF Done:  E(RB3LYP) =  -876.086251568     A.U. after   12 cycles
 SCF Done:  E(RB3LYP) =  -876.088311945     A.U. after   10 cycles
 SCF Done:  E(RB3LYP) =  -876.089351291     A.U. after   12 cycles
 SCF Done:  E(RB3LYP) =  -876.090447381     A.U. after   14 cycles
 SCF Done:  E(RB3LYP) =  -876.080359082     A.U. after   14 cycles
 SCF Done:  E(RB3LYP) =  -876.089613367     A.U. after   13 cycles
 SCF Done:  E(RB3LYP) =  -876.090875041     A.U. after   11 cycles
 SCF Done:  E(RB3LYP) =  -876.091351108     A.U. after    8 cycles
 SCF Done:  E(RB3LYP) =  -876.091350897     A.U. after    8 cycles
 SCF Done:  E(RB3LYP) =  -876.091350701     A.U. after    7 cycles
 SCF Done:  E(RB3LYP) =  -876.091351245     A.U. after    8 cycles
 SCF Done:  E(RB3LYP) =  -876.091350818     A.U. after    8 cycles
 Optimization completed.
    -- Stationary point found.
 Normal termination of Gaussian 16 at Fri Dec 11 19:20:09 2020.

 --------------------------------------------------------------------
 #N Geom=AllCheck Guess=TCheck SCRF=Check GenChk RB3LYP/6-31G(d) Freq
 --------------------------------------------------------------------

 Structure from the checkpoint file:  "JID_8148.chk"
 ------------------------------
 CID_55380904_JID_8148_neutraal
 ------------------------------
 Charge =  0 Multiplicity = 1

 SCF Done:  E(RB3LYP) =  -876.091350818     A.U. after    1 cycles

  Exact polarizability: 130.814 -11.395 149.907   2.271 -13.179 123.965
 Approx polarizability: 189.670 -27.446 226.590   3.578 -16.217 217.705

                      1                      2                      3
                      A                      A                      A
 Frequencies --     28.0667                41.5437                48.4622
 Red. masses --      5.0372                 5.9804                 4.9417
 Frc consts  --      0.0023                 0.0061                 0.0068
 IR Inten    --      1.0250                 0.2308                 1.1812

                      4                      5                      6
                      A                      A                      A
 Frequencies --     71.7560                77.5201                92.4994
 Red. masses --      4.5043                 2.0153                 1.8512
 Frc consts  --      0.0137                 0.0071                 0.0093
 IR Inten    --      2.2289                 1.6177                 3.5219

                      7                      8                      9
                      A                      A                      A
 Frequencies --     95.8491               117.4812               142.5612
 Red. masses --      5.4128                 5.4940                 4.6471
 Frc consts  --      0.0293                 0.0447                 0.0556
 IR Inten    --      8.8830                 0.8746                 0.4940

                     10                     11                     12
                      A                      A                      A
 Frequencies --    174.1246               194.0428               241.2028
 Red. masses --      3.2708                 3.8910                 3.9552
 Frc consts  --      0.0584                 0.0863                 0.1356
 IR Inten    --      1.3789                 0.8013                 1.6585

                     13                     14                     15
                      A                      A                      A
 Frequencies --    269.1398               310.6946               343.4338
 Red. masses --      5.1697                 2.5934                 3.2181
 Frc consts  --      0.2206                 0.1475                 0.2236
 IR Inten    --      4.7510                 0.8347                 1.4376

                     16                     17                     18
                      A                      A                      A
 Frequencies --    358.1292               391.4488               453.5356
 Red. masses --      2.3676                 7.4631                 4.1679
 Frc consts  --      0.1789                 0.6738                 0.5051
 IR Inten    --      6.4157                 4.3782                10.0072

                     19                     20                     21
                      A                      A                      A
 Frequencies --    487.7832               517.6262               564.7276
 Red. masses --      2.7653                 3.6613                 4.4093
 Frc consts  --      0.3876                 0.5780                 0.8285
 IR Inten    --      5.5677                 0.7969                21.6921

                     22                     23                     24
                      A                      A                      A
 Frequencies --    595.0160               614.6486               619.8243
 Red. masses --      4.8758                 3.6368                 5.7130
 Frc consts  --      1.0171                 0.8095                 1.2932
 IR Inten    --      2.1135                 6.6287                 1.3317

                     25                     26                     27
                      A                      A                      A
 Frequencies --    636.4394               656.9803               699.2102
 Red. masses --      2.6693                 2.0906                 2.5981
 Frc consts  --      0.6370                 0.5316                 0.7484
 IR Inten    --     44.2918                53.8401                29.0559

                     28                     29                     30
                      A                      A                      A
 Frequencies --    706.0398               716.6278               727.5824
 Red. masses --      3.2960                 4.3350                 1.3306
 Frc consts  --      0.9680                 1.3117                 0.4150
 IR Inten    --     11.8893                10.7402                38.5716

                     31                     32                     33
                      A                      A                      A
 Frequencies --    744.3015               801.6088               817.0277
 Red. masses --      5.0861                 2.6655                 1.2886
 Frc consts  --      1.6601                 1.0092                 0.5068
 IR Inten    --      4.9331                35.3231                30.6580

                     34                     35                     36
                      A                      A                      A
 Frequencies --    831.2683               882.7592               907.8649
 Red. masses --      1.2473                 1.3504                 6.0389
 Frc consts  --      0.5078                 0.6200                 2.9326
 IR Inten    --     24.0067                10.9928                 5.8263

                     37                     38                     39
                      A                      A                      A
 Frequencies --    910.8666               933.0203               938.0529
 Red. masses --      2.3574                 3.8492                 4.3470
 Frc consts  --      1.1524                 1.9742                 2.2537
 IR Inten    --      2.6089                 6.9603                11.8902

                     40                     41                     42
                      A                      A                      A
 Frequencies --    974.8472              1003.4921              1017.6639
 Red. masses --      2.4209                 3.6832                 2.0890
 Frc consts  --      1.3555                 2.1852                 1.2746
 IR Inten    --     13.0368                 0.8091                 4.4007

                     43                     44                     45
                      A                      A                      A
 Frequencies --   1026.7756              1040.3813              1042.5139
 Red. masses --      4.2033                 1.6571                 2.1680
 Frc consts  --      2.6109                 1.0568                 1.3883
 IR Inten    --      8.6550                 9.5888                14.9870

                     46                     47                     48
                      A                      A                      A
 Frequencies --   1061.5676              1079.4460              1113.2379
 Red. masses --      1.7006                 1.5065                 3.8347
 Frc consts  --      1.1291                 1.0342                 2.8000
 IR Inten    --     10.4922                 4.5648                30.1865

                     49                     50                     51
                      A                      A                      A
 Frequencies --   1119.3136              1146.7160              1181.7080
 Red. masses --      3.8442                 3.2334                 1.7829
 Frc consts  --      2.8377                 2.5051                 1.4669
 IR Inten    --     48.2952                 4.5531                15.4168

                     52                     53                     54
                      A                      A                      A
 Frequencies --   1189.3515              1216.8472              1256.1259
 Red. masses --      1.8022                 1.8497                 2.0947
 Frc consts  --      1.5020                 1.6137                 1.9474
 IR Inten    --     13.3500                 9.9581                 3.4019

                     55                     56                     57
                      A                      A                      A
 Frequencies --   1275.6030              1282.3503              1294.7127
 Red. masses --      1.3759                 1.4020                 1.3238
 Frc consts  --      1.3191                 1.3584                 1.3074
 IR Inten    --     17.6311                 1.8279                 8.8507

                     58                     59                     60
                      A                      A                      A
 Frequencies --   1320.3797              1370.0626              1380.3372
 Red. masses --      2.6108                 1.4214                 1.4166
 Frc consts  --      2.6818                 1.5720                 1.5902
 IR Inten    --     67.4995                56.7503                 5.1978

                     61                     62                     63
                      A                      A                      A
 Frequencies --   1400.0295              1431.5577              1439.9584
 Red. masses --      1.5164                 2.3569                 1.2701
 Frc consts  --      1.7512                 2.8459                 1.5516
 IR Inten    --     53.0633                16.6626                 1.9978

                     64                     65                     66
                      A                      A                      A
 Frequencies --   1441.5393              1484.0072              1503.0922
 Red. masses --      1.6698                 2.6957                 1.0437
 Frc consts  --      2.0444                 3.4978                 1.3893
 IR Inten    --     12.3026               134.1819                 7.9057

                     67                     68                     69
                      A                      A                      A
 Frequencies --   1510.3639              1512.7474              1514.8295
 Red. masses --      1.2496                 1.6176                 1.1933
 Frc consts  --      1.6795                 2.1810                 1.6134
 IR Inten    --     20.2769                32.2900                27.2500

                     70                     71                     72
                      A                      A                      A
 Frequencies --   1520.8048              1529.3444              1556.6143
 Red. masses --      1.3592                 1.2486                 3.9726
 Frc consts  --      1.8522                 1.7207                 5.6714
 IR Inten    --     16.6213                13.5468                81.3012

                     73                     74                     75
                      A                      A                      A
 Frequencies --   1559.8512              1660.6438              1675.8772
 Red. masses --      4.4408                 6.3377                 6.8932
 Frc consts  --      6.3661                10.2976                11.4066
 IR Inten    --     46.6630                 5.6706               128.6469

                     76                     77                     78
                      A                      A                      A
 Frequencies --   1780.7486              3035.5821              3059.7102
 Red. masses --      7.7596                 1.0728                 1.0375
 Frc consts  --     14.4975                 5.8246                 5.7228
 IR Inten    --    334.0544                31.5879                13.0354

                     79                     80                     81
                      A                      A                      A
 Frequencies --   3081.9466              3089.7429              3116.5254
 Red. masses --      1.0653                 1.0576                 1.1012
 Frc consts  --      5.9618                 5.9488                 6.3019
 IR Inten    --     38.5111                25.1365                 9.1538

                     82                     83                     84
                      A                      A                      A
 Frequencies --   3138.6473              3143.9939              3156.9742
 Red. masses --      1.0997                 1.1087                 1.1011
 Frc consts  --      6.3830                 6.4568                 6.4656
 IR Inten    --     16.3180                 9.4885                 6.3849

                     85                     86                     87
                      A                      A                      A
 Frequencies --   3157.0887              3265.1985              3284.4000
 Red. masses --      1.0926                 1.0908                 1.0976
 Frc consts  --      6.4162                 6.8521                 6.9760
 IR Inten    --      1.1897                 3.5810                 0.6363

                     88                     89                     90
                      A                      A                      A
 Frequencies --   3302.0468              3303.4611              3592.8109
 Red. masses --      1.1048                 1.0995                 1.0757
 Frc consts  --      7.0976                 7.0691                 8.1813
 IR Inten    --      2.1865                 6.2766                25.2266

 - Thermochemistry -
 -------------------
 Temperature   298.150 Kelvin.  Pressure   1.00000 Atm.
 Atom     1 has atomic number  6 and mass  12.00000

 Molecular mass:   250.09536 amu.
 Principal axes and moments of inertia in atomic units:
                           1         2         3
     Eigenvalues --  3612.350144416.105016019.86433
           X            0.99788  -0.05962   0.02597
           Y            0.06067   0.99730  -0.04145
           Z           -0.02343   0.04294   0.99880
 This molecule is an asymmetric top.
 Rotational symmetry number  1.
 Warning -- assumption of classical behavior for rotation
           may cause significant error
 Rotational temperatures (Kelvin)      0.02398     0.01961     0.01439
 Rotational constants (GHZ):           0.49960     0.40867     0.29980
 Zero-point vibrational energy     672327.3 (Joules/Mol)
                                  160.69007 (Kcal/Mol)
 Warning -- explicit consideration of  24 degrees of freedom as
           vibrations may cause significant error
 Vibrational temperatures:     40.38    59.77    69.73   103.24   111.53
          (Kelvin)            133.09   137.91   169.03   205.11   250.53
                              279.18   347.04   387.23   447.02   494.12
                              515.27   563.21   652.54   701.81   744.75
                              812.52   856.10   884.34   891.79   915.69
                              945.25  1006.01  1015.83  1031.07  1046.83
                             1070.88  1153.34  1175.52  1196.01  1270.09
                             1306.22  1310.53  1342.41  1349.65  1402.59
                             1443.80  1464.19  1477.30  1496.88  1499.95
                             1527.36  1553.08  1601.70  1610.44  1649.87
                             1700.21  1711.21  1750.77  1807.28  1835.31
                             1845.02  1862.80  1899.73  1971.21  1986.00
                             2014.33  2059.69  2071.78  2074.05  2135.16
                             2162.61  2173.08  2176.51  2179.50  2188.10
                             2200.39  2239.62  2244.28  2389.30  2411.21
                             2562.10  4367.53  4402.24  4434.23  4445.45
                             4483.98  4515.81  4523.51  4542.18  4542.35
                             4697.89  4725.52  4750.91  4752.94  5169.25

 Zero-point correction=                           0.256076 (Hartree/Particle)
 Thermal correction to Energy=                    0.272636
 Thermal correction to Enthalpy=                  0.273580
 Thermal correction to Gibbs Free Energy=         0.209998
 Sum of electronic and zero-point Energies=           -875.835275
 Sum of electronic and thermal Energies=              -875.818715
 Sum of electronic and thermal Enthalpies=            -875.817771
 Sum of electronic and thermal Free Energies=         -875.881353

                     E (Thermal)             CV                S
                      KCal/Mol        Cal/Mol-Kelvin    Cal/Mol-Kelvin
 Total                  171.082             61.502            133.819
 Electronic               0.000              0.000              0.000
 Translational            0.889              2.981             42.450
 Rotational               0.889              2.981             32.929
 Vibrational            169.304             55.540             58.440
 Vibration     1          0.593              1.984              5.962
 Vibration     2          0.594              1.981              5.184
 Vibration     3          0.595              1.978              4.879
 Vibration     4          0.598              1.967              4.105
 Vibration     5          0.599              1.964              3.953
 Vibration     6          0.602              1.955              3.607
 Vibration     7          0.603              1.952              3.537
 Vibration     8          0.608              1.935              3.141
 Vibration     9          0.616              1.911              2.769
 Vibration    10          0.627              1.874              2.390
 Vibration    11          0.635              1.848              2.189
 Vibration    12          0.658              1.777              1.794
 Vibration    13          0.674              1.730              1.602
 Vibration    14          0.700              1.653              1.359
 Vibration    15          0.722              1.589              1.196
 Vibration    16          0.733              1.559              1.130
 Vibration    17          0.759              1.488              0.995
 Vibration    18          0.812              1.353              0.785
 Vibration    19          0.844              1.277              0.689
 Vibration    20          0.873              1.211              0.615
 Vibration    21          0.921              1.108              0.514
 Vibration    22          0.953              1.042              0.458
 Vibration    23          0.974              1.001              0.425
 Vibration    24          0.980              0.990              0.417

 Optimization completed.
    -- Stationary point found.
 Normal termination of Gaussian 16 at Fri Dec 11 19:32:48 2020.

 ----------------------------------------------------------------------
 # B3LYP/6-311++G(d,p) empiricaldispersion=gd3bj scf=xqc pop=npa geom=c
 heck
 ----------------------------------------------------------------------

 --------------------------------------
 CID_55380904_JID_8148_Energie_neutraal
 --------------------------------------
 Structure from the checkpoint file:  "JID_8148.chk"
 Charge =  0 Multiplicity = 1

 SCF Done:  E(RB3LYP) =  -876.338366598     A.U. after   16 cycles
 Normal termination of Gaussian 16 at Fri Dec 11 19:38:03 2020.

 ----------------------------------------------------------------------
 # B3LYP/6-311++G(d,p) empiricaldispersion=gd3bj scf=xqc pop=npa geom=c
 heck
 ----------------------------------------------------------------------

 ------------------------------------
 CID_55380904_JID_8148_Energie_kation
 ------------------------------------
 Structure from the checkpoint file:  "JID_8148.chk"
 Charge =  1 Multiplicity = 2

 SCF Done:  E(UB3LYP) =  -876.035667350     A.U. after   30 cycles
 Normal termination of Gaussian 16 at Fri Dec 11 19:51:21 2020.
 Gaussian 16:  ES64L-G16RevA.03 25-Dec-2016

 ----------------------------------------------------------------------
 # B3LYP/6-311++G(d,p) empiricaldispersion=gd3bj scf=xqc pop=npa geom=c
 heck
 ----------------------------------------------------------------------

 -----------------------------------
 CID_55380904_JID_8148_Energie_anion
 -----------------------------------
 Structure from the checkpoint file:  "JID_8148.chk"
 Charge = -1 Multiplicity = 2

                         Standard orientation:
 ---------------------------------------------------------------------
 Center     Atomic      Atomic             Coordinates (Angstroms)
 Number     Number       Type             X           Y           Z
 ---------------------------------------------------------------------
      1          6           0        2.939641   -2.395768    1.110122
      2          6           0        2.448612   -1.262254    0.281995
      3          6           0        2.088460    0.018708    0.572111
      4          6           0        1.687109    0.538799   -0.695734
      5          7           0        1.794793   -0.338817   -1.670578
      6          8           0        2.288624   -1.495939   -1.040092
      7          8           0        1.207937    1.762871   -1.011269
      8          6           0        0.970112    2.644668    0.088953
      9          6           0       -0.071369    2.119756    1.085820
     10          8           0        0.203479    2.056361    2.280604
     11          7           0       -1.277287    1.736514    0.593757
     12          6           0       -1.791251    1.766046   -0.770483
     13          6           0       -1.652312    0.428991   -1.537094
     14          6           0       -1.883701   -0.759277   -0.672567
     15          6           0       -1.155214   -1.879681   -0.408005
     16          6           0       -1.897501   -2.635025    0.563181
     17          6           0       -3.019996   -1.916023    0.828802
     18          8           0       -3.032394   -0.765305    0.085801
     19          1           0        2.226524   -3.227829    1.090708
     20          1           0        3.898038   -2.769517    0.733496
     21          1           0        3.069599   -2.073940    2.145785
     22          1           0        2.059264    0.502782    1.535253
     23          1           0        1.889001    2.824531    0.653691
     24          1           0        0.643913    3.582309   -0.368519
     25          1           0       -1.869426    1.295321    1.287681
     26          1           0       -2.849187    2.036542   -0.698539
     27          1           0       -1.292548    2.560072   -1.329787
     28          1           0       -2.363025    0.450799   -2.375285
     29          1           0       -0.652897    0.336051   -1.964851
     30          1           0       -0.203490   -2.130417   -0.853627
     31          1           0       -1.625260   -3.584986    1.001506
     32          1           0       -3.869753   -2.063148    1.477281
 ---------------------------------------------------------------------

 SCF Done:  E(UB3LYP) =  -876.326669924     A.U. after   33 cycles
 SCF Done:  E(UB3LYP) =  -876.326669924     a.u. after    1 cycles

 The electronic state is 2-A.
 Alpha  occ. eigenvalues --  -19.12053 -19.09803 -19.09040 -19.00799 -14.26348
 Alpha  occ. eigenvalues --  -14.25574 -10.19414 -10.18163 -10.16373 -10.15900
 Alpha  occ. eigenvalues --  -10.13492 -10.13075 -10.12719 -10.09687 -10.09281
 Alpha  occ. eigenvalues --  -10.09176 -10.08215 -10.07630  -1.05738  -1.01990
 Alpha  occ. eigenvalues --   -1.00923  -0.95674  -0.84382  -0.78439  -0.72529
 Alpha  occ. eigenvalues --   -0.71381  -0.70445  -0.66344  -0.63918  -0.63640
 Alpha  occ. eigenvalues --   -0.56751  -0.53774  -0.51653  -0.51261  -0.49747
 Alpha  occ. eigenvalues --   -0.46387  -0.45173  -0.43914  -0.41661  -0.40730
 Alpha  occ. eigenvalues --   -0.40189  -0.39462  -0.37941  -0.37645  -0.35734
 Alpha  occ. eigenvalues --   -0.35216  -0.34964  -0.33933  -0.33234  -0.33031
 Alpha  occ. eigenvalues --   -0.32582  -0.31293  -0.30431  -0.29962  -0.29555
 Alpha  occ. eigenvalues --   -0.29033  -0.28025  -0.27609  -0.26954  -0.22600
 Alpha  occ. eigenvalues --   -0.19585  -0.19025  -0.17839  -0.17501  -0.16498
 Alpha  occ. eigenvalues --   -0.13753   0.03986
 Alpha virt. eigenvalues --    0.05331   0.06251   0.06442   0.07314   0.08003
 Alpha virt. eigenvalues --    0.08096   0.08782   0.08990   0.09332   0.09535
 Alpha virt. eigenvalues --    0.10763   0.11174   0.11622   0.11965   0.12566

  Beta  occ. eigenvalues --  -19.12045 -19.09791 -19.09039 -19.00795 -14.26340
  Beta  occ. eigenvalues --  -14.25564 -10.19413 -10.18160 -10.16365 -10.15870
  Beta  occ. eigenvalues --  -10.13489 -10.13061 -10.12685 -10.09637 -10.09272
  Beta  occ. eigenvalues --  -10.09169 -10.08202 -10.07622  -1.05725  -1.01971
  Beta  occ. eigenvalues --   -1.00916  -0.95667  -0.84363  -0.78422  -0.72504
  Beta  occ. eigenvalues --   -0.71357  -0.70416  -0.66305  -0.63865  -0.63591
  Beta  occ. eigenvalues --   -0.56717  -0.53751  -0.51623  -0.51240  -0.49720
  Beta  occ. eigenvalues --   -0.46354  -0.45140  -0.43876  -0.41614  -0.40699
  Beta  occ. eigenvalues --   -0.40157  -0.39417  -0.37914  -0.37610  -0.35699
  Beta  occ. eigenvalues --   -0.35189  -0.34935  -0.33900  -0.33197  -0.32985
  Beta  occ. eigenvalues --   -0.32537  -0.31270  -0.30412  -0.29940  -0.29532
  Beta  occ. eigenvalues --   -0.29012  -0.28001  -0.27586  -0.26932  -0.22583
  Beta  occ. eigenvalues --   -0.19556  -0.19000  -0.17813  -0.17484  -0.16467
  Beta  occ. eigenvalues --   -0.13715
  Beta virt. eigenvalues --    0.06184   0.06346   0.06715   0.07059   0.07632
  Beta virt. eigenvalues --    0.08223   0.08768   0.08961   0.09346   0.09840
  Beta virt. eigenvalues --    0.10054   0.11015   0.11539   0.11880   0.12155

 Mulliken charges and spin densities:
               1          2
     1  C    2.697123  -3.276893
     2  C   -1.409199   1.021319
     3  C   -0.415855   0.963702
     4  C   -0.019467  -0.308919
     5  N   -0.264180   0.018561
     6  O    0.147358   0.011226
     7  O   -0.074304   0.045073
     8  C    0.815492  -1.119088
     9  C   -0.568737   0.568568
    10  O   -0.295790   0.009084
    11  N   -0.126425   0.106541
    12  C    0.707611  -1.310178
    13  C   -0.287483  -0.235955
    14  C   -0.163325  -0.484044
    15  C    0.177391   0.758436
    16  C    0.086934  -0.910720
    17  C    0.280844  -0.046265
    18  O   -0.003131   0.033666
    19  H   -0.370214   0.556613
    20  H   -0.246122   0.415361
    21  H   -0.252770   0.418867
    22  H   -0.008773   0.254600
    23  H    0.247884  -0.041708
    24  H   -0.737274   0.954789
    25  H    0.089189   0.221299
    26  H   -0.550824   0.761406
    27  H   -0.004358   0.202199
    28  H   -0.108002   0.316580
    29  H    0.202734  -0.022716
    30  H    0.147931   0.076332
    31  H   -0.423383   0.589319
    32  H   -0.270875   0.452945
 Sum of Mulliken charges =  -1.00000   1.00000

 Dipole moment (field-independent basis, Debye):
    X=              0.2986    Y=              0.5677    Z=             -1.3245  Tot=              1.4716
 Quadrupole moment (field-independent basis, Debye-Ang):
   XX=           -159.0779   YY=           -174.6212   ZZ=           -150.2068
   XY=             13.6488   XZ=             -2.6881   YZ=              8.1163

 Summary of Natural Population Analysis:

                                       Natural Population
                Natural  -----------------------------------------------
    Atom  No    Charge         Core      Valence    Rydberg      Total
 -----------------------------------------------------------------------
      C    1   -0.31114      0.99962     2.30516    0.00636     3.31114
      C    2    0.19012      0.99952     1.79620    0.01415     2.80988
      C    3   -0.20240      0.99942     2.19524    0.00774     3.20240
      C    4    0.24002      0.99948     1.74247    0.01803     2.75998
      N    5   -0.10957      0.99966     2.59779    0.01212     3.60957
      O    6   -0.17139      0.99985     3.16305    0.00849     4.17139
      O    7   -0.26688      0.99985     3.25760    0.00942     4.26688
      C    8   -0.05263      0.99953     2.04094    0.01216     3.05263
      C    9    0.32360      0.99967     1.65335    0.02338     2.67640
      O   10   -0.32131      0.99988     3.31578    0.00566     4.32131
      N   11   -0.31012      0.99966     2.79998    0.01047     3.81012
      C   12   -0.08524      0.99961     2.07344    0.01219     3.08524
      C   13   -0.22126      0.99957     2.21253    0.00916     3.22126
      C   14    0.15255      0.99946     1.83256    0.01542     2.84745
      C   15   -0.14817      0.99948     2.13958    0.00911     3.14817
      C   16   -0.14723      0.99957     2.13780    0.00987     3.14723
      C   17    0.05633      0.99950     1.93117    0.01300     2.94367
      O   18   -0.24615      0.99986     3.23786    0.00843     4.24615
      H   19    0.11677      0.00000     0.38073    0.00250     0.38323
      H   20    0.11232      0.00000     0.38648    0.00121     0.38768
      H   21    0.11313      0.00000     0.38574    0.00113     0.38687
      H   22    0.12797      0.00000     0.37073    0.00131     0.37203
      H   23    0.09873      0.00000     0.40006    0.00121     0.40127
      H   24    0.10800      0.00000     0.39013    0.00188     0.39200
      H   25    0.20000      0.00000     0.29741    0.00259     0.30000
      H   26    0.10162      0.00000     0.39610    0.00228     0.39838
      H   27    0.10452      0.00000     0.39357    0.00191     0.39548
      H   28    0.10678      0.00000     0.39199    0.00123     0.39322
      H   29    0.11971      0.00000     0.37802    0.00228     0.38029
      H   30    0.11539      0.00000     0.38266    0.00195     0.38461
      H   31    0.11070      0.00000     0.38812    0.00118     0.38930
      H   32    0.09523      0.00000     0.40367    0.00110     0.40477
 =======================================================================
   * Total *    0.00000     17.99319    47.77788    0.22893    66.00000

 Normal termination of Gaussian 16 at Fri Dec 11 20:06:09 2020.
