 Gaussian 16, Revision A.03,

 -----------------------------------------------------------
 # opt freq B3LYP/6-31G(d) empiricaldispersion=gd3bj scf=xqc
 -----------------------------------------------------------

 ------------------------------
 CID_23374598_JID_3645_neutraal
 ------------------------------
 Symbolic Z-matrix:
 Charge =  0 Multiplicity = 1

 SCF Done:  E(RB3LYP) =  -598.915581275     A.U. after   13 cycles
 SCF Done:  E(RB3LYP) =  -598.921293726     A.U. after   11 cycles
 SCF Done:  E(RB3LYP) =  -598.921730618     A.U. after   11 cycles
 SCF Done:  E(RB3LYP) =  -598.922336619     A.U. after   10 cycles
 SCF Done:  E(RB3LYP) =  -598.922596311     A.U. after   10 cycles
 SCF Done:  E(RB3LYP) =  -598.922604039     A.U. after   11 cycles
 SCF Done:  E(RB3LYP) =  -598.922896999     A.U. after   11 cycles
 SCF Done:  E(RB3LYP) =  -598.922789783     A.U. after   11 cycles
 SCF Done:  E(RB3LYP) =  -598.923000900     A.U. after   11 cycles
 SCF Done:  E(RB3LYP) =  -598.923011755     A.U. after    9 cycles
 SCF Done:  E(RB3LYP) =  -598.923012915     A.U. after    7 cycles
 SCF Done:  E(RB3LYP) =  -598.923013278     A.U. after    7 cycles
 SCF Done:  E(RB3LYP) =  -598.923013400     A.U. after    6 cycles
 SCF Done:  E(RB3LYP) =  -598.923013616     A.U. after    7 cycles
 SCF Done:  E(RB3LYP) =  -598.923013690     A.U. after    6 cycles
 SCF Done:  E(RB3LYP) =  -598.923013727     A.U. after    6 cycles
 Optimization completed.
    -- Stationary point found.
 Normal termination of Gaussian 16 at Sun Dec 13 15:59:20 2020.

 --------------------------------------------------------------------
 #N Geom=AllCheck Guess=TCheck SCRF=Check GenChk RB3LYP/6-31G(d) Freq
 --------------------------------------------------------------------

 Structure from the checkpoint file:  "JID_3645.chk"
 ------------------------------
 CID_23374598_JID_3645_neutraal
 ------------------------------
 Charge =  0 Multiplicity = 1

 SCF Done:  E(RB3LYP) =  -598.923013727     A.U. after    1 cycles

  Exact polarizability: 135.298  -1.386 113.971   3.129  -1.125 101.570
 Approx polarizability: 159.883  -1.187 156.870   3.260  -1.225 152.944

                      1                      2                      3
                      A                      A                      A
 Frequencies --     32.5231                40.9387                58.1743
 Red. masses --      3.3051                 3.3559                 3.2992
 Frc consts  --      0.0021                 0.0033                 0.0066
 IR Inten    --      0.0198                 0.1379                 0.2233

                      4                      5                      6
                      A                      A                      A
 Frequencies --     84.0226               101.1436               108.9003
 Red. masses --      1.8436                 1.9650                 2.6649
 Frc consts  --      0.0077                 0.0118                 0.0186
 IR Inten    --      0.0166                 0.6911                 1.1977

                      7                      8                      9
                      A                      A                      A
 Frequencies --    125.5367               156.9466               166.5992
 Red. masses --      2.1653                 2.2402                 2.6428
 Frc consts  --      0.0201                 0.0325                 0.0432
 IR Inten    --      1.7448                 0.2216                 1.4746

                     10                     11                     12
                      A                      A                      A
 Frequencies --    205.1816               231.8970               253.9715
 Red. masses --      1.9916                 1.2918                 2.0683
 Frc consts  --      0.0494                 0.0409                 0.0786
 IR Inten    --      7.2494                 2.2170                 2.7932

                     13                     14                     15
                      A                      A                      A
 Frequencies --    293.1881               347.7603               364.5846
 Red. masses --      2.7078                 2.5238                 2.6842
 Frc consts  --      0.1371                 0.1798                 0.2102
 IR Inten    --      3.3111                 1.7166                 5.7590

                     16                     17                     18
                      A                      A                      A
 Frequencies --    405.3204               424.3215               479.6450
 Red. masses --      1.8977                 2.2100                 2.3171
 Frc consts  --      0.1837                 0.2344                 0.3141
 IR Inten    --      5.6117                 4.9281                 0.2489

                     19                     20                     21
                      A                      A                      A
 Frequencies --    561.1200               643.7584               658.0679
 Red. masses --      3.7598                 2.2643                 2.4989
 Frc consts  --      0.6975                 0.5529                 0.6376
 IR Inten    --      4.5546                 1.4710                 7.5966

                     22                     23                     24
                      A                      A                      A
 Frequencies --    684.8335               761.5757               809.8882
 Red. masses --      2.8990                 2.0289                 2.5849
 Frc consts  --      0.8011                 0.6933                 0.9990
 IR Inten    --      0.1745                11.2248                11.2977

                     25                     26                     27
                      A                      A                      A
 Frequencies --    830.6011               860.0856               876.4058
 Red. masses --      1.8905                 1.7371                 2.7297
 Frc consts  --      0.7685                 0.7571                 1.2353
 IR Inten    --      3.0739                 1.9976                19.1547

                     28                     29                     30
                      A                      A                      A
 Frequencies --    897.9027               908.7056               922.4888
 Red. masses --      3.3900                 2.2896                 2.4816
 Frc consts  --      1.6103                 1.1139                 1.2442
 IR Inten    --      6.4663                 6.4545                 1.4716

                     31                     32                     33
                      A                      A                      A
 Frequencies --    954.8020               979.8112               991.6912
 Red. masses --      1.8585                 2.6658                 1.8801
 Frc consts  --      0.9982                 1.5079                 1.0894
 IR Inten    --     10.4232                52.9116                20.6992

                     34                     35                     36
                      A                      A                      A
 Frequencies --   1027.0933              1038.9218              1080.3942
 Red. masses --      2.7034                 2.3805                 2.2163
 Frc consts  --      1.6803                 1.5139                 1.5242
 IR Inten    --      5.5813                19.8439                86.9704

                     37                     38                     39
                      A                      A                      A
 Frequencies --   1084.9369              1104.3328              1111.2604
 Red. masses --      3.1560                 3.3574                 1.8795
 Frc consts  --      2.1888                 2.4124                 1.3675
 IR Inten    --     37.4797               114.1408                 3.0152

                     40                     41                     42
                      A                      A                      A
 Frequencies --   1130.5946              1161.3561              1169.4014
 Red. masses --      3.0229                 1.9402                 2.7150
 Frc consts  --      2.2766                 1.5418                 2.1875
 IR Inten    --    104.0406                12.0594               106.0319

                     43                     44                     45
                      A                      A                      A
 Frequencies --   1188.4011              1192.1421              1220.3758
 Red. masses --      1.2802                 1.2954                 1.3395
 Frc consts  --      1.0653                 1.0847                 1.1754
 IR Inten    --      1.3578                 6.7864                 1.9022

                     46                     47                     48
                      A                      A                      A
 Frequencies --   1223.9233              1230.7491              1239.4643
 Red. masses --      1.5445                 1.5323                 1.2887
 Frc consts  --      1.3632                 1.3675                 1.1665
 IR Inten    --     18.1932                20.1694                 3.0585

                     49                     50                     51
                      A                      A                      A
 Frequencies --   1257.5770              1267.9214              1294.9285
 Red. masses --      1.2674                 1.1495                 1.4130
 Frc consts  --      1.1809                 1.0888                 1.3960
 IR Inten    --     12.3291                 1.4183                 4.6402

                     52                     53                     54
                      A                      A                      A
 Frequencies --   1300.2804              1328.0571              1339.6366
 Red. masses --      1.4428                 1.3671                 1.1991
 Frc consts  --      1.4373                 1.4206                 1.2679
 IR Inten    --      7.5614                 0.8862                18.8954

                     55                     56                     57
                      A                      A                      A
 Frequencies --   1360.2893              1375.0552              1379.4743
 Red. masses --      1.2369                 1.3539                 1.4259
 Frc consts  --      1.3485                 1.5082                 1.5987
 IR Inten    --      1.6261                 4.3233                32.9675

                     58                     59                     60
                      A                      A                      A
 Frequencies --   1391.8779              1400.2312              1413.2626
 Red. masses --      1.3339                 1.4408                 1.3818
 Frc consts  --      1.5226                 1.6644                 1.6260
 IR Inten    --      3.9181                41.1477                 3.1275

                     61                     62                     63
                      A                      A                      A
 Frequencies --   1430.0179              1434.0120              1490.5594
 Red. masses --      1.3264                 1.1956                 1.1457
 Frc consts  --      1.5981                 1.4485                 1.4998
 IR Inten    --     11.1141                 9.4031                 0.6480

                     64                     65                     66
                      A                      A                      A
 Frequencies --   1502.0515              1512.2573              1512.6723
 Red. masses --      1.1600                 1.0680                 1.0756
 Frc consts  --      1.5420                 1.4390                 1.4500
 IR Inten    --      2.3339                 5.8226                 0.6018

                     67                     68                     69
                      A                      A                      A
 Frequencies --   1515.4219              1518.1583              1525.6407
 Red. masses --      1.0775                 1.0839                 1.0826
 Frc consts  --      1.4580                 1.4719                 1.4847
 IR Inten    --      0.8830                 3.0123                 4.8448

                     70                     71                     72
                      A                      A                      A
 Frequencies --   1526.4662              1528.1683              1534.8491
 Red. masses --      1.0843                 1.0653                 1.0924
 Frc consts  --      1.4886                 1.4658                 1.5162
 IR Inten    --      3.2906                 4.0826                 0.9897

                     73                     74                     75
                      A                      A                      A
 Frequencies --   1539.5828              1546.3192              1550.4318
 Red. masses --      1.0538                 1.0522                 1.1029
 Frc consts  --      1.4717                 1.4823                 1.5620
 IR Inten    --      8.1228                10.4590                 5.0220

                     76                     77                     78
                      A                      A                      A
 Frequencies --   2949.7236              3013.7442              3022.4464
 Red. masses --      1.0733                 1.0485                 1.0671
 Frc consts  --      5.5022                 5.6110                 5.7432
 IR Inten    --     66.2016                34.2867               116.6570

                     79                     80                     81
                      A                      A                      A
 Frequencies --   3026.3836              3035.2944              3045.2156
 Red. masses --      1.0468                 1.0702                 1.0687
 Frc consts  --      5.6491                 5.8095                 5.8392
 IR Inten    --      3.7522                44.7246                37.8894

                     82                     83                     84
                      A                      A                      A
 Frequencies --   3048.6318              3065.1863              3068.1819
 Red. masses --      1.0713                 1.0604                 1.0626
 Frc consts  --      5.8663                 5.8700                 5.8934
 IR Inten    --     43.5900                25.3617                26.1597

                     85                     86                     87
                      A                      A                      A
 Frequencies --   3076.7362              3085.0929              3089.3038
 Red. masses --      1.0621                 1.1023                 1.0934
 Frc consts  --      5.9237                 6.1811                 6.1483
 IR Inten    --     47.9676                34.7362                53.0677

                     88                     89                     90
                      A                      A                      A
 Frequencies --   3098.5418              3102.9137              3111.0356
 Red. masses --      1.1031                 1.1001                 1.0943
 Frc consts  --      6.2397                 6.2408                 6.2399
 IR Inten    --     13.6724                 8.5106                32.6001

                     91                     92                     93
                      A                      A                      A
 Frequencies --   3114.3800              3119.3807              3127.7598
 Red. masses --      1.0978                 1.0989                 1.1034
 Frc consts  --      6.2737                 6.2999                 6.3597
 IR Inten    --     16.4109                21.7826                74.7575

                     94                     95                     96
                      A                      A                      A
 Frequencies --   3134.9350              3136.3059              3145.4344
 Red. masses --      1.0895                 1.1010                 1.1026
 Frc consts  --      6.3084                 6.3806                 6.4273
 IR Inten    --     32.3668                36.2237                26.0538

 - Thermochemistry -
 -------------------
 Temperature   298.150 Kelvin.  Pressure   1.00000 Atm.
 Atom     1 has atomic number  6 and mass  12.00000

 Molecular mass:   187.15723 amu.
 Principal axes and moments of inertia in atomic units:
                           1         2         3
     Eigenvalues --  1071.760095128.490755664.24288
           X            0.99999   0.00134   0.00322
           Y           -0.00129   0.99989  -0.01470
           Z           -0.00324   0.01469   0.99989
 This molecule is an asymmetric top.
 Rotational symmetry number  1.
 Warning -- assumption of classical behavior for rotation
           may cause significant error
 Rotational temperatures (Kelvin)      0.08081     0.01689     0.01529
 Rotational constants (GHZ):           1.68390     0.35190     0.31862
 Zero-point vibrational energy     818350.8 (Joules/Mol)
                                  195.59053 (Kcal/Mol)
 Warning -- explicit consideration of  19 degrees of freedom as
           vibrations may cause significant error
 Vibrational temperatures:     46.79    58.90    83.70   120.89   145.52
          (Kelvin)            156.68   180.62   225.81   239.70   295.21
                              333.65   365.41   421.83   500.35   524.56
                              583.17   610.50   690.10   807.33   926.22
                              946.81   985.32  1095.74  1165.25  1195.05
                             1237.47  1260.95  1291.88  1307.42  1327.26
                             1373.75  1409.73  1426.82  1477.76  1494.78
                             1554.45  1560.98  1588.89  1598.86  1626.67
                             1670.93  1682.51  1709.84  1715.23  1755.85
                             1760.95  1770.77  1783.31  1809.37  1824.26
                             1863.11  1870.81  1910.78  1927.44  1957.15
                             1978.40  1984.76  2002.60  2014.62  2033.37
                             2057.48  2063.22  2144.58  2161.12  2175.80
                             2176.40  2180.35  2184.29  2195.06  2196.24
                             2198.69  2208.31  2215.12  2224.81  2230.73
                             4243.99  4336.11  4348.63  4354.29  4367.11
                             4381.39  4386.30  4410.12  4414.43  4426.74
                             4438.76  4444.82  4458.11  4464.40  4476.09
                             4480.90  4488.09  4500.15  4510.47  4512.44
                             4525.58

 Zero-point correction=                           0.311693 (Hartree/Particle)
 Thermal correction to Energy=                    0.326447
 Thermal correction to Enthalpy=                  0.327391
 Thermal correction to Gibbs Free Energy=         0.268570
 Sum of electronic and zero-point Energies=           -598.611320
 Sum of electronic and thermal Energies=              -598.596567
 Sum of electronic and thermal Enthalpies=            -598.595623
 Sum of electronic and thermal Free Energies=         -598.654443

                     E (Thermal)             CV                S
                      KCal/Mol        Cal/Mol-Kelvin    Cal/Mol-Kelvin
 Total                  204.848             53.724            123.798
 Electronic               0.000              0.000              0.000
 Translational            0.889              2.981             41.586
 Rotational               0.889              2.981             31.810
 Vibrational            203.071             47.763             50.402
 Vibration     1          0.594              1.983              5.669
 Vibration     2          0.594              1.981              5.213
 Vibration     3          0.596              1.974              4.518
 Vibration     4          0.601              1.960              3.795
 Vibration     5          0.604              1.948              3.432
 Vibration     6          0.606              1.942              3.288
 Vibration     7          0.610              1.928              3.013
 Vibration     8          0.621              1.895              2.586
 Vibration     9          0.624              1.884              2.474
 Vibration    10          0.640              1.833              2.086
 Vibration    11          0.653              1.792              1.864
 Vibration    12          0.665              1.756              1.703
 Vibration    13          0.688              1.686              1.455
 Vibration    14          0.725              1.580              1.176
 Vibration    15          0.738              1.545              1.102
 Vibration    16          0.770              1.459              0.943
 Vibration    17          0.786              1.417              0.877
 Vibration    18          0.836              1.295              0.711
 Vibration    19          0.917              1.115              0.522

                           ! Non-Optimized Parameters !
 Normal termination of Gaussian 16 at Sun Dec 13 16:07:43 2020.

 ----------------------------------------------------------------------
 # B3LYP/6-311++G(d,p) empiricaldispersion=gd3bj scf=xqc pop=npa geom=c
 heck
 ----------------------------------------------------------------------

 --------------------------------------
 CID_23374598_JID_3645_Energie_neutraal
 --------------------------------------
 Structure from the checkpoint file:  "JID_3645.chk"
 Charge =  0 Multiplicity = 1

 SCF Done:  E(RB3LYP) =  -599.095130819     A.U. after   14 cycles
 Normal termination of Gaussian 16 at Sun Dec 13 16:11:24 2020.

 ----------------------------------------------------------------------
 # B3LYP/6-311++G(d,p) empiricaldispersion=gd3bj scf=xqc pop=npa geom=c
 heck
 ----------------------------------------------------------------------

 ------------------------------------
 CID_23374598_JID_3645_Energie_kation
 ------------------------------------
 Structure from the checkpoint file:  "JID_3645.chk"
 Charge =  1 Multiplicity = 2

 SCF Done:  E(UB3LYP) =  -598.804900984     A.U. after   21 cycles
 Normal termination of Gaussian 16 at Sun Dec 13 16:18:48 2020.
 Gaussian 16:  ES64L-G16RevA.03 25-Dec-2016

 ----------------------------------------------------------------------
 # B3LYP/6-311++G(d,p) empiricaldispersion=gd3bj scf=xqc pop=npa geom=c
 heck
 ----------------------------------------------------------------------

 -----------------------------------
 CID_23374598_JID_3645_Energie_anion
 -----------------------------------
 Structure from the checkpoint file:  "JID_3645.chk"
 Charge = -1 Multiplicity = 2

                         Standard orientation:
 ---------------------------------------------------------------------
 Center     Atomic      Atomic             Coordinates (Angstroms)
 Number     Number       Type             X           Y           Z
 ---------------------------------------------------------------------
      1          6           0        3.523115   -1.274096    0.781160
      2          8           0        3.482537   -0.531131   -0.426820
      3          6           0        2.246142    0.093213   -0.729095
      4          6           0        1.057441   -0.868277   -0.866342
      5          6           0        0.217882   -1.138120    0.395409
      6          6           0       -0.886118   -0.094965    0.614311
      7          7           0       -1.828886   -0.053988   -0.511879
      8          6           0       -2.624493    1.177963   -0.556651
      9          6           0       -3.799288    0.984732    0.436769
     10          6           0       -3.996389   -0.554017    0.471880
     11          6           0       -2.856757   -1.102223   -0.436185
     12          8           0        1.918945    1.088986    0.214298
     13          6           0        2.849525    2.159209    0.254918
     14          1           0        4.568911   -1.551216    0.936746
     15          1           0        2.921493   -2.191290    0.719774
     16          1           0        3.177031   -0.678630    1.635016
     17          1           0        2.454572    0.563214   -1.701096
     18          1           0        0.374432   -0.464720   -1.621464
     19          1           0        1.459734   -1.802450   -1.274541
     20          1           0       -0.238350   -2.132174    0.303023
     21          1           0        0.838688   -1.168921    1.295831
     22          1           0       -1.386513   -0.297077    1.579339
     23          1           0       -0.416104    0.887503    0.692122
     24          1           0       -3.016224    1.296206   -1.575931
     25          1           0       -1.999107    2.047769   -0.337845
     26          1           0       -3.528874    1.363702    1.427829
     27          1           0       -4.699429    1.520286    0.119118
     28          1           0       -3.905096   -0.937202    1.493008
     29          1           0       -4.980514   -0.858324    0.102092
     30          1           0       -2.428839   -2.040547   -0.073852
     31          1           0       -3.239341   -1.285719   -1.448099
     32          1           0        3.849468    1.813795    0.541011
     33          1           0        2.918249    2.659716   -0.722894
     34          1           0        2.479801    2.870634    0.997106
 ---------------------------------------------------------------------

 SCF Done:  E(UB3LYP) =  -599.078602044     A.U. after   27 cycles

 The electronic state is 2-A.
 Alpha  occ. eigenvalues --  -19.03333 -19.02975 -14.19721 -10.16890 -10.11335
 Alpha  occ. eigenvalues --  -10.11216 -10.08750 -10.08643 -10.08072 -10.06470
 Alpha  occ. eigenvalues --  -10.06408 -10.06404 -10.06332  -0.97475  -0.91300
 Alpha  occ. eigenvalues --   -0.82944  -0.69781  -0.66426  -0.63076  -0.61941
 Alpha  occ. eigenvalues --   -0.59364  -0.57884  -0.52211  -0.48318  -0.47898
 Alpha  occ. eigenvalues --   -0.45364  -0.41706  -0.41223  -0.39638  -0.38323
 Alpha  occ. eigenvalues --   -0.37417  -0.35431  -0.34831  -0.33399  -0.32955
 Alpha  occ. eigenvalues --   -0.32279  -0.31490  -0.30447  -0.28550  -0.27648
 Alpha  occ. eigenvalues --   -0.26477  -0.26291  -0.24661  -0.24301  -0.24178
 Alpha  occ. eigenvalues --   -0.24117  -0.22619  -0.21845  -0.20043  -0.18117
 Alpha  occ. eigenvalues --   -0.17561  -0.11782   0.04449
 Alpha virt. eigenvalues --    0.06159   0.06826   0.07539   0.07976   0.08553
 Alpha virt. eigenvalues --    0.08973   0.09860   0.10109   0.10451   0.10514
 Alpha virt. eigenvalues --    0.11529   0.11606   0.12491   0.12765   0.13322

  Beta  occ. eigenvalues --  -19.03325 -19.02972 -14.19722 -10.16885 -10.11301
  Beta  occ. eigenvalues --  -10.11183 -10.08734 -10.08628 -10.08058 -10.06448
  Beta  occ. eigenvalues --  -10.06401 -10.06385 -10.06319  -0.97464  -0.91290
  Beta  occ. eigenvalues --   -0.82935  -0.69759  -0.66397  -0.63042  -0.61903
  Beta  occ. eigenvalues --   -0.59308  -0.57841  -0.52165  -0.48278  -0.47841
  Beta  occ. eigenvalues --   -0.45320  -0.41663  -0.41201  -0.39609  -0.38295
  Beta  occ. eigenvalues --   -0.37381  -0.35406  -0.34801  -0.33367  -0.32917
  Beta  occ. eigenvalues --   -0.32250  -0.31455  -0.30424  -0.28523  -0.27622
  Beta  occ. eigenvalues --   -0.26456  -0.26258  -0.24634  -0.24271  -0.24152
  Beta  occ. eigenvalues --   -0.24081  -0.22590  -0.21817  -0.20016  -0.18100
  Beta  occ. eigenvalues --   -0.17548  -0.11774
  Beta virt. eigenvalues --    0.06473   0.07116   0.07511   0.07939   0.08563
  Beta virt. eigenvalues --    0.08984   0.09292   0.10188   0.10432   0.10900
  Beta virt. eigenvalues --    0.10956   0.11729   0.11982   0.12562   0.13229

 Mulliken charges and spin densities:
               1          2
     1  C    0.626021  -0.941470
     2  O   -0.115276   0.030688
     3  C   -0.894234   0.209847
     4  C   -0.002759  -0.049646
     5  C    0.944492  -0.910056
     6  C   -0.929178  -0.137920
     7  N    0.179294   0.145366
     8  C    0.001566  -0.153298
     9  C    0.024805  -0.315788
    10  C    0.549483  -0.922741
    11  C   -0.249843  -0.002594
    12  O   -0.110053   0.040386
    13  C    0.670764  -0.882905
    14  H   -0.386142   0.544784
    15  H   -0.175163   0.319979
    16  H   -0.089789   0.245216
    17  H   -0.061622   0.226615
    18  H    0.109907   0.064502
    19  H    0.051012   0.158506
    20  H    0.156261  -0.017808
    21  H    0.064560   0.069470
    22  H   -0.300022   0.428204
    23  H    0.666095  -0.459595
    24  H   -0.105394   0.257789
    25  H   -0.094706   0.244510
    26  H   -0.076409   0.211448
    27  H   -0.262631   0.421968
    28  H   -0.004454   0.150169
    29  H   -0.258773   0.404902
    30  H   -0.033647   0.144932
    31  H   -0.131626   0.297003
    32  H   -0.144018   0.292101
    33  H   -0.142625   0.273156
    34  H   -0.475898   0.612279
 Sum of Mulliken charges =  -1.00000   1.00000

 Dipole moment (field-independent basis, Debye):
    X=              0.2271    Y=             -1.0865    Z=             -1.2237  Tot=              1.6521
 Quadrupole moment (field-independent basis, Debye-Ang):
   XX=           -177.7245   YY=           -123.7548   ZZ=           -115.6767
   XY=              0.5205   XZ=             -5.9718   YZ=              0.0337

 Summary of Natural Population Analysis:

                                       Natural Population
                Natural  -----------------------------------------------
    Atom  No    Charge         Core      Valence    Rydberg      Total
 -----------------------------------------------------------------------
      C    1   -0.10659      0.99960     2.09680    0.01018     3.10659
      O    2   -0.30723      0.99988     3.29722    0.01013     4.30723
      C    3    0.22720      0.99957     1.75518    0.01804     2.77280
      C    4   -0.21539      0.99959     2.20779    0.00801     3.21539
      C    5   -0.19583      0.99962     2.18626    0.00996     3.19583
      C    6   -0.08791      0.99959     2.07701    0.01131     3.08791
      N    7   -0.28398      0.99974     2.77143    0.01282     3.78398
      C    8   -0.08445      0.99963     2.07358    0.01124     3.08445
      C    9   -0.20478      0.99964     2.19790    0.00723     3.20478
      C   10   -0.20529      0.99965     2.19827    0.00737     3.20529
      C   11   -0.08772      0.99962     2.07735    0.01074     3.08772
      O   12   -0.30596      0.99987     3.29623    0.00985     4.30596
      C   13   -0.10016      0.99961     2.09103    0.00953     3.10016
      H   14    0.09027      0.00000     0.40854    0.00119     0.40973
      H   15    0.08041      0.00000     0.41826    0.00132     0.41959
      H   16    0.08582      0.00000     0.41260    0.00158     0.41418
      H   17    0.07586      0.00000     0.42246    0.00168     0.42414
      H   18    0.11314      0.00000     0.38497    0.00189     0.38686
      H   19    0.10194      0.00000     0.39708    0.00098     0.39806
      H   20    0.09528      0.00000     0.40343    0.00128     0.40472
      H   21    0.10110      0.00000     0.39719    0.00171     0.39890
      H   22    0.08205      0.00000     0.41642    0.00153     0.41795
      H   23    0.10494      0.00000     0.39260    0.00245     0.39506
      H   24    0.09050      0.00000     0.40825    0.00125     0.40950
      H   25    0.09880      0.00000     0.40006    0.00115     0.40120
      H   26    0.09659      0.00000     0.40221    0.00119     0.40341
      H   27    0.09945      0.00000     0.39906    0.00149     0.40055
      H   28    0.09720      0.00000     0.40163    0.00117     0.40280
      H   29    0.09960      0.00000     0.39881    0.00159     0.40040
      H   30    0.09710      0.00000     0.40174    0.00116     0.40290
      H   31    0.09193      0.00000     0.40686    0.00121     0.40807
      H   32    0.08587      0.00000     0.41255    0.00157     0.41413
      H   33    0.07882      0.00000     0.41971    0.00147     0.42118
      H   34    0.09140      0.00000     0.40736    0.00124     0.40860
 =======================================================================
   * Total *    0.00000     12.99561    38.83786    0.16653    52.00000

 Normal termination of Gaussian 16 at Sun Dec 13 16:28:01 2020.
