 Gaussian 16, Revision A.03,

 -----------------------------------------------------------
 # opt freq B3LYP/6-31G(d) empiricaldispersion=gd3bj scf=xqc
 -----------------------------------------------------------

 ------------------------------
 CID_87087064_JID_5379_neutraal
 ------------------------------
 Symbolic Z-matrix:
 Charge =  0 Multiplicity = 1

 SCF Done:  E(RB3LYP) =  -729.736747483     A.U. after   15 cycles
 SCF Done:  E(RB3LYP) =  -729.735356702     A.U. after   13 cycles
 SCF Done:  E(RB3LYP) =  -729.741538786     A.U. after   13 cycles
 SCF Done:  E(RB3LYP) =  -729.742155538     A.U. after   12 cycles
 SCF Done:  E(RB3LYP) =  -729.742499654     A.U. after   12 cycles
 SCF Done:  E(RB3LYP) =  -729.742967311     A.U. after   12 cycles
 SCF Done:  E(RB3LYP) =  -729.743263804     A.U. after   12 cycles
 SCF Done:  E(RB3LYP) =  -729.743451748     A.U. after   12 cycles
 SCF Done:  E(RB3LYP) =  -729.743487331     A.U. after   12 cycles
 SCF Done:  E(RB3LYP) =  -729.743592248     A.U. after   11 cycles
 SCF Done:  E(RB3LYP) =  -729.745428056     A.U. after   10 cycles
 SCF Done:  E(RB3LYP) =  -729.745435970     A.U. after   11 cycles
 SCF Done:  E(RB3LYP) =  -729.745438080     A.U. after   10 cycles
 SCF Done:  E(RB3LYP) =  -729.745439360     A.U. after   10 cycles
 SCF Done:  E(RB3LYP) =  -729.745439480     A.U. after    8 cycles
 SCF Done:  E(RB3LYP) =  -729.745439510     A.U. after    7 cycles
 Optimization completed.
    -- Stationary point found.
 Normal termination of Gaussian 16 at Thu Dec 10 16:22:59 2020.

 --------------------------------------------------------------------
 #N Geom=AllCheck Guess=TCheck SCRF=Check GenChk RB3LYP/6-31G(d) Freq
 --------------------------------------------------------------------

 Structure from the checkpoint file:  "JID_5379.chk"
 ------------------------------
 CID_87087064_JID_5379_neutraal
 ------------------------------
 Charge =  0 Multiplicity = 1

 SCF Done:  E(RB3LYP) =  -729.745439510     A.U. after    1 cycles

  Exact polarizability: 194.116  -1.571 117.063   8.448   1.168  92.060
 Approx polarizability: 278.115 -14.921 174.487  19.548   5.762 141.125

                      1                      2                      3
                      A                      A                      A
 Frequencies --     14.4095                61.7386                74.7710
 Red. masses --      5.7022                 3.3688                 7.5695
 Frc consts  --      0.0007                 0.0076                 0.0249
 IR Inten    --      1.4489                 0.6793                 6.0055

                      4                      5                      6
                      A                      A                      A
 Frequencies --     82.3222               102.1692               137.6706
 Red. masses --      5.7446                 3.4782                 3.8894
 Frc consts  --      0.0229                 0.0214                 0.0434
 IR Inten    --      5.2615                 0.2288                 0.3526

                      7                      8                      9
                      A                      A                      A
 Frequencies --    156.6660               173.4979               178.6195
 Red. masses --      3.5529                 2.3506                 1.7412
 Frc consts  --      0.0514                 0.0417                 0.0327
 IR Inten    --      2.0172                 0.6047                 0.6696

                     10                     11                     12
                      A                      A                      A
 Frequencies --    213.4738               222.4096               248.5892
 Red. masses --      3.0469                 1.5337                 1.9365
 Frc consts  --      0.0818                 0.0447                 0.0705
 IR Inten    --      2.1284                 0.3009                 0.2915

                     13                     14                     15
                      A                      A                      A
 Frequencies --    265.5543               278.4070               296.5341
 Red. masses --      1.7765                 1.7011                 1.1721
 Frc consts  --      0.0738                 0.0777                 0.0607
 IR Inten    --      4.7614                 4.3331                 0.5098

                     16                     17                     18
                      A                      A                      A
 Frequencies --    307.4320               316.2635               343.7303
 Red. masses --      3.1262                 3.2573                 2.9450
 Frc consts  --      0.1741                 0.1920                 0.2050
 IR Inten    --      0.1348                 1.6932                 5.4312

                     19                     20                     21
                      A                      A                      A
 Frequencies --    373.8923               384.8074               457.9232
 Red. masses --      2.4026                 2.5073                 2.4389
 Frc consts  --      0.1979                 0.2187                 0.3013
 IR Inten    --      1.7408                 0.8110                 0.0161

                     22                     23                     24
                      A                      A                      A
 Frequencies --    461.4205               503.2497               523.2771
 Red. masses --      3.3462                 3.0981                 2.7813
 Frc consts  --      0.4198                 0.4623                 0.4487
 IR Inten    --      9.9809                 8.2315                13.9721

                     25                     26                     27
                      A                      A                      A
 Frequencies --    568.5922               590.2026               612.7513
 Red. masses --      1.6793                 2.1447                 4.0727
 Frc consts  --      0.3199                 0.4402                 0.9009
 IR Inten    --     87.7729                51.9328                21.5299

                     28                     29                     30
                      A                      A                      A
 Frequencies --    649.3312               695.0690               755.8440
 Red. masses --      1.6397                 3.8301                 4.2020
 Frc consts  --      0.4073                 1.0902                 1.4144
 IR Inten    --     55.4676                22.5492                 9.2500

                     31                     32                     33
                      A                      A                      A
 Frequencies --    771.4814               778.8485               821.3166
 Red. masses --      5.9894                 5.2866                 5.2183
 Frc consts  --      2.1003                 1.8895                 2.0740
 IR Inten    --     16.5468                31.3201                 3.2096

                     34                     35                     36
                      A                      A                      A
 Frequencies --    829.8143               881.8563               933.5895
 Red. masses --      4.1864                 1.4666                 1.7038
 Frc consts  --      1.6985                 0.6720                 0.8749
 IR Inten    --      5.6054                 1.2364                17.0766

                     37                     38                     39
                      A                      A                      A
 Frequencies --    944.5956               952.5784               968.5210
 Red. masses --      1.8389                 1.5877                 2.0005
 Frc consts  --      0.9667                 0.8488                 1.1056
 IR Inten    --     12.2934                 5.3017                26.8816

                     40                     41                     42
                      A                      A                      A
 Frequencies --    982.0092              1046.9508              1066.0293
 Red. masses --      1.2045                 1.7152                 1.4209
 Frc consts  --      0.6844                 1.1077                 0.9514
 IR Inten    --      0.8320                 3.7443                 2.3646

                     43                     44                     45
                      A                      A                      A
 Frequencies --   1072.8460              1080.7989              1130.9210
 Red. masses --      1.4518                 1.4947                 3.1932
 Frc consts  --      0.9846                 1.0287                 2.4063
 IR Inten    --      0.0321                 2.7816                26.4029

                     46                     47                     48
                      A                      A                      A
 Frequencies --   1181.1637              1196.3140              1222.1729
 Red. masses --      3.4715                 2.3809                 1.7383
 Frc consts  --      2.8535                 2.0076                 1.5298
 IR Inten    --    188.0087                48.8186                37.5126

                     49                     50                     51
                      A                      A                      A
 Frequencies --   1239.7423              1264.5416              1293.8003
 Red. masses --      2.5982                 2.7555                 2.8434
 Frc consts  --      2.3528                 2.5961                 2.8043
 IR Inten    --      3.6866                33.1725                16.9395

                     52                     53                     54
                      A                      A                      A
 Frequencies --   1309.0494              1362.6754              1409.7175
 Red. masses --      1.7711                 1.7407                 2.0321
 Frc consts  --      1.7882                 1.9044                 2.3794
 IR Inten    --    209.2213                10.3891                55.6858

                     55                     56                     57
                      A                      A                      A
 Frequencies --   1420.8228              1426.1263              1437.7638
 Red. masses --      1.2019                 1.2142                 1.2425
 Frc consts  --      1.4295                 1.4550                 1.5133
 IR Inten    --      5.1535                 4.5317                 2.6049

                     58                     59                     60
                      A                      A                      A
 Frequencies --   1448.1761              1464.8443              1501.0886
 Red. masses --      1.3324                 1.3853                 1.0483
 Frc consts  --      1.6463                 1.7514                 1.3917
 IR Inten    --     29.7032                18.6637                 7.6047

                     61                     62                     63
                      A                      A                      A
 Frequencies --   1509.2905              1519.9966              1520.5789
 Red. masses --      1.0471                 1.0490                 1.0660
 Frc consts  --      1.4054                 1.4279                 1.4522
 IR Inten    --      0.4285                 2.1413                 7.5880

                     64                     65                     66
                      A                      A                      A
 Frequencies --   1525.8432              1532.6562              1544.0881
 Red. masses --      1.0463                 1.0565                 1.0514
 Frc consts  --      1.4353                 1.4622                 1.4769
 IR Inten    --      1.1834                 5.4615                 4.0314

                     67                     68                     69
                      A                      A                      A
 Frequencies --   1559.1454              1664.3187              1699.3230
 Red. masses --      1.0605                 7.2067                 7.2371
 Frc consts  --      1.5189                11.7615                12.3131
 IR Inten    --      8.3357                30.1389                11.2636

                     70                     71                     72
                      A                      A                      A
 Frequencies --   1815.3298              1852.3455              3041.9750
 Red. masses --      9.7440                10.5374                 1.0357
 Frc consts  --     18.9191                21.3024                 5.6466
 IR Inten    --    233.5634               345.6351                18.6065

                     73                     74                     75
                      A                      A                      A
 Frequencies --   3048.1292              3051.1348              3057.6062
 Red. masses --      1.0383                 1.0379                 1.0408
 Frc consts  --      5.6836                 5.6931                 5.7328
 IR Inten    --     41.8577                22.0288                33.8408

                     76                     77                     78
                      A                      A                      A
 Frequencies --   3105.9553              3109.3244              3109.6698
 Red. masses --      1.1026                 1.1023                 1.0974
 Frc consts  --      6.2672                 6.2789                 6.2523
 IR Inten    --      5.7589                43.9404                14.3623

                     79                     80                     81
                      A                      A                      A
 Frequencies --   3113.4051              3123.3425              3130.2641
 Red. masses --      1.1022                 1.1002                 1.0882
 Frc consts  --      6.2946                 6.3237                 6.2825
 IR Inten    --     16.9940                43.5250                25.2159

                     82                     83                     84
                      A                      A                      A
 Frequencies --   3142.5183              3157.6304              3169.6714
 Red. masses --      1.1034                 1.0881                 1.0990
 Frc consts  --      6.4201                 6.3920                 6.5054
 IR Inten    --      8.7470                19.8101                 2.2202

                     85                     86                     87
                      A                      A                      A
 Frequencies --   3180.1199              3684.8955              3723.5017
 Red. masses --      1.0962                 1.0640                 1.0658
 Frc consts  --      6.5317                 8.5120                 8.7065
 IR Inten    --      7.5035                78.6235                25.4498

 - Thermochemistry -
 -------------------
 Temperature   298.150 Kelvin.  Pressure   1.00000 Atm.
 Atom     1 has atomic number  6 and mass  12.00000

 Molecular mass:   212.10486 amu.
 Principal axes and moments of inertia in atomic units:
                           1         2         3
     Eigenvalues --  1581.936535161.830565808.83710
           X            0.99993   0.01103   0.00473
           Y           -0.01102   0.99994  -0.00184
           Z           -0.00475   0.00179   0.99999
 This molecule is an asymmetric top.
 Rotational symmetry number  1.
 Warning -- assumption of classical behavior for rotation
           may cause significant error
 Rotational temperatures (Kelvin)      0.05475     0.01678     0.01491
 Rotational constants (GHZ):           1.14084     0.34963     0.31069
 Zero-point vibrational energy     676983.7 (Joules/Mol)
                                  161.80298 (Kcal/Mol)
 Warning -- explicit consideration of  27 degrees of freedom as
           vibrations may cause significant error
 Vibrational temperatures:     20.73    88.83   107.58   118.44   147.00
          (Kelvin)            198.08   225.41   249.62   256.99   307.14
                              320.00   357.66   382.07   400.57   426.65
                              442.33   455.03   494.55   537.95   553.65
                              658.85   663.88   724.06   752.88   818.08
                              849.17   881.61   934.24  1000.05  1087.49
                             1109.99  1120.59  1181.69  1193.92  1268.79
                             1343.23  1359.06  1370.55  1393.49  1412.89
                             1506.33  1533.78  1543.59  1555.03  1627.14
                             1699.43  1721.23  1758.43  1783.71  1819.39
                             1861.49  1883.43  1960.59  2028.27  2044.25
                             2051.88  2068.62  2083.60  2107.58  2159.73
                             2171.53  2186.94  2187.77  2195.35  2205.15
                             2221.60  2243.26  2394.58  2444.95  2611.85
                             2665.11  4376.72  4385.58  4389.90  4399.21
                             4468.78  4473.62  4474.12  4479.50  4493.79
                             4503.75  4521.38  4543.13  4560.45  4575.48
                             5301.74  5357.29

 Zero-point correction=                           0.257849 (Hartree/Particle)
 Thermal correction to Energy=                    0.274610
 Thermal correction to Enthalpy=                  0.275554
 Thermal correction to Gibbs Free Energy=         0.213286
 Sum of electronic and zero-point Energies=           -729.487590
 Sum of electronic and thermal Energies=              -729.470830
 Sum of electronic and thermal Enthalpies=            -729.469886
 Sum of electronic and thermal Free Energies=         -729.532154

                     E (Thermal)             CV                S
                      KCal/Mol        Cal/Mol-Kelvin    Cal/Mol-Kelvin
 Total                  172.320             61.940            131.055
 Electronic               0.000              0.000              0.000
 Translational            0.889              2.981             41.959
 Rotational               0.889              2.981             32.228
 Vibrational            170.543             55.978             56.867
 Vibration     1          0.593              1.986              7.285
 Vibration     2          0.597              1.973              4.401
 Vibration     3          0.599              1.966              4.024
 Vibration     4          0.600              1.961              3.835
 Vibration     5          0.604              1.947              3.413
 Vibration     6          0.614              1.916              2.836
 Vibration     7          0.620              1.895              2.590
 Vibration     8          0.627              1.875              2.397
 Vibration     9          0.629              1.869              2.343
 Vibration    10          0.644              1.820              2.014
 Vibration    11          0.648              1.807              1.939
 Vibration    12          0.662              1.765              1.741
 Vibration    13          0.671              1.736              1.625
 Vibration    14          0.679              1.713              1.543
 Vibration    15          0.690              1.680              1.436
 Vibration    16          0.697              1.660              1.376
 Vibration    17          0.703              1.643              1.329
 Vibration    18          0.722              1.588              1.195
 Vibration    19          0.745              1.526              1.064
 Vibration    20          0.754              1.503              1.020
 Vibration    21          0.816              1.343              0.772
 Vibration    22          0.819              1.336              0.762
 Vibration    23          0.859              1.243              0.650
 Vibration    24          0.878              1.198              0.602
 Vibration    25          0.925              1.099              0.507
 Vibration    26          0.948              1.053              0.467
 Vibration    27          0.972              1.005              0.428

 Optimization completed.
    -- Stationary point found.
 Normal termination of Gaussian 16 at Thu Dec 10 16:33:40 2020.

 ----------------------------------------------------------------------
 # B3LYP/6-311++G(d,p) empiricaldispersion=gd3bj scf=xqc pop=npa geom=c
 heck
 ----------------------------------------------------------------------

 --------------------------------------
 CID_87087064_JID_5379_Energie_neutraal
 --------------------------------------
 Structure from the checkpoint file:  "JID_5379.chk"
 Charge =  0 Multiplicity = 1

 SCF Done:  E(RB3LYP) =  -729.971662772     A.U. after   15 cycles
 Normal termination of Gaussian 16 at Thu Dec 10 16:39:05 2020.

 ----------------------------------------------------------------------
 # B3LYP/6-311++G(d,p) empiricaldispersion=gd3bj scf=xqc pop=npa geom=c
 heck
 ----------------------------------------------------------------------

 ------------------------------------
 CID_87087064_JID_5379_Energie_kation
 ------------------------------------
 Structure from the checkpoint file:  "JID_5379.chk"
 Charge =  1 Multiplicity = 2

 SCF Done:  E(UB3LYP) =  -729.650217134     A.U. after   23 cycles
 Normal termination of Gaussian 16 at Thu Dec 10 16:50:17 2020.
 Gaussian 16:  ES64L-G16RevA.03 25-Dec-2016

 ----------------------------------------------------------------------
 # B3LYP/6-311++G(d,p) empiricaldispersion=gd3bj scf=xqc pop=npa geom=c
 heck
 ----------------------------------------------------------------------

 -----------------------------------
 CID_87087064_JID_5379_Energie_anion
 -----------------------------------
 Structure from the checkpoint file:  "JID_5379.chk"
 Charge = -1 Multiplicity = 2

                         Standard orientation:
 ---------------------------------------------------------------------
 Center     Atomic      Atomic             Coordinates (Angstroms)
 Number     Number       Type             X           Y           Z
 ---------------------------------------------------------------------
      1          6           0        3.307791    2.083959    0.229390
      2          6           0        2.257737    1.027791    0.008171
      3          6           0        0.949556    1.268560    0.229883
      4          6           0       -0.217773    0.365341    0.179295
      5          6           0       -1.436662    0.919149   -0.023850
      6          6           0       -2.840361    0.340348   -0.086284
      7          6           0       -3.827799    1.521603    0.020755
      8          6           0       -3.043453   -0.358996   -1.450819
      9          6           0       -3.139497   -0.641575    1.065212
     10          6           0       -0.035684   -1.103453    0.416309
     11          8           0       -0.597851   -1.996844   -0.183343
     12          8           0        0.851797   -1.343134    1.406195
     13          6           0        2.824947   -0.297152   -0.406086
     14          8           0        3.867254   -0.732842    0.019828
     15          8           0        2.135250   -0.992063   -1.353280
     16          1           0        2.862337    3.024948    0.563210
     17          1           0        3.884200    2.272203   -0.684803
     18          1           0        4.022159    1.737582    0.983897
     19          1           0        0.692156    2.294216    0.489577
     20          1           0       -1.410703    2.000020   -0.171489
     21          1           0       -3.667573    2.247316   -0.785664
     22          1           0       -4.859632    1.162317   -0.050710
     23          1           0       -3.718363    2.045937    0.977540
     24          1           0       -2.362120   -1.205250   -1.551700
     25          1           0       -4.075897   -0.719906   -1.530042
     26          1           0       -2.866714    0.338205   -2.278187
     27          1           0       -2.556121   -1.558617    0.985688
     28          1           0       -2.937652   -0.176741    2.036781
     29          1           0       -4.199958   -0.916754    1.037793
     30          1           0        0.970352   -2.311521    1.438969
     31          1           0        1.379117   -0.468332   -1.667902
 ---------------------------------------------------------------------

 SCF Done:  E(UB3LYP) =  -729.994535599     A.U. after   24 cycles

 The electronic state is 2-A.
 Alpha  occ. eigenvalues --  -19.02991 -19.02131 -18.96855 -18.96003 -10.15659
 Alpha  occ. eigenvalues --  -10.15061 -10.06291 -10.04755 -10.04130 -10.03490
 Alpha  occ. eigenvalues --  -10.03324 -10.03241 -10.02954 -10.02905 -10.00961
 Alpha  occ. eigenvalues --   -0.97139  -0.95581  -0.87946  -0.87639  -0.70406
 Alpha  occ. eigenvalues --   -0.67712  -0.63046  -0.57011  -0.56387  -0.54969
 Alpha  occ. eigenvalues --   -0.52384  -0.49636  -0.45969  -0.44178  -0.39947
 Alpha  occ. eigenvalues --   -0.37085  -0.35412  -0.34444  -0.32408  -0.32170
 Alpha  occ. eigenvalues --   -0.31722  -0.31423  -0.29868  -0.29613  -0.28993
 Alpha  occ. eigenvalues --   -0.28217  -0.27706  -0.27218  -0.26465  -0.24880
 Alpha  occ. eigenvalues --   -0.24788  -0.24509  -0.22631  -0.21716  -0.20590
 Alpha  occ. eigenvalues --   -0.19866  -0.19147  -0.17858  -0.16829  -0.13949
 Alpha  occ. eigenvalues --   -0.13589  -0.09610   0.03582
 Alpha virt. eigenvalues --    0.07818   0.09105   0.09807   0.09966   0.10526
 Alpha virt. eigenvalues --    0.10774   0.11270   0.11882   0.12350   0.12743
 Alpha virt. eigenvalues --    0.13358   0.13702   0.13986   0.15050   0.16150

  Beta  occ. eigenvalues --  -19.02946 -19.02061 -18.96775 -18.95897 -10.15536
  Beta  occ. eigenvalues --  -10.14980 -10.06338 -10.04741 -10.04138 -10.03453
  Beta  occ. eigenvalues --  -10.03194 -10.03185 -10.02891 -10.02744 -10.00268
  Beta  occ. eigenvalues --   -0.96995  -0.95417  -0.87803  -0.87464  -0.70016
  Beta  occ. eigenvalues --   -0.67348  -0.62612  -0.56965  -0.56272  -0.54582
  Beta  occ. eigenvalues --   -0.51833  -0.49212  -0.45770  -0.44013  -0.39600
  Beta  occ. eigenvalues --   -0.36866  -0.35274  -0.34112  -0.32123  -0.31958
  Beta  occ. eigenvalues --   -0.31565  -0.31187  -0.29538  -0.29378  -0.28869
  Beta  occ. eigenvalues --   -0.28050  -0.27511  -0.27019  -0.26264  -0.24815
  Beta  occ. eigenvalues --   -0.24639  -0.24331  -0.22423  -0.21460  -0.20392
  Beta  occ. eigenvalues --   -0.19460  -0.18784  -0.17350  -0.15955  -0.13608
  Beta  occ. eigenvalues --   -0.13334  -0.07472
  Beta virt. eigenvalues --    0.07741   0.09053   0.09515   0.09802   0.10500
  Beta virt. eigenvalues --    0.10594   0.11224   0.11751   0.11980   0.12447
  Beta virt. eigenvalues --    0.12810   0.13281   0.13702   0.13917   0.15058

 Mulliken charges and spin densities:
               1          2
     1  C   -0.567833  -0.003636
     2  C    0.611897   0.125243
     3  C    0.215525   0.054797
     4  C    0.820407  -0.025788
     5  C   -0.856175   0.623992
     6  C    0.832405   0.034513
     7  C   -0.584647  -0.031210
     8  C   -0.752483  -0.024565
     9  C   -0.615504  -0.066216
    10  C   -1.093473   0.073660
    11  O   -0.232328   0.026619
    12  O   -0.056944   0.009856
    13  C   -0.548517   0.047026
    14  O   -0.322212   0.039681
    15  O   -0.089327   0.015775
    16  H    0.124561  -0.001335
    17  H    0.123962   0.005870
    18  H    0.157265   0.009061
    19  H    0.046846   0.033902
    20  H    0.172124  -0.045917
    21  H    0.113832  -0.001435
    22  H    0.124851   0.005508
    23  H    0.101798   0.023070
    24  H    0.201657   0.004982
    25  H    0.093944   0.014908
    26  H    0.109145   0.005155
    27  H    0.150129   0.017322
    28  H    0.113220   0.015926
    29  H    0.111452   0.009573
    30  H    0.242296   0.004767
    31  H    0.252126  -0.001104
 Sum of Mulliken charges =  -1.00000   1.00000

 Dipole moment (field-independent basis, Debye):
    X=             -3.8836    Y=              2.1219    Z=              0.1943  Tot=              4.4297
 Quadrupole moment (field-independent basis, Debye-Ang):
   XX=           -142.3867   YY=           -106.4199   ZZ=           -100.8915
   XY=              4.5771   XZ=             -0.1961   YZ=             -5.0975

 Summary of Natural Population Analysis:

                                       Natural Population
                Natural  -----------------------------------------------
    Atom  No    Charge         Core      Valence    Rydberg      Total
 -----------------------------------------------------------------------
      C    1   -0.28741      0.99965     2.28269    0.00507     3.28741
      C    2   -0.04894      0.99944     2.04000    0.00950     3.04894
      C    3   -0.05504      0.99949     2.04620    0.00935     3.05504
      C    4   -0.12574      0.99939     2.11295    0.01339     3.12574
      C    5    0.10560      0.99949     1.88396    0.01096     2.89440
      C    6   -0.07104      0.99959     2.06297    0.00848     3.07104
      C    7   -0.27511      0.99965     2.27007    0.00539     3.27511
      C    8   -0.27465      0.99963     2.26983    0.00519     3.27465
      C    9   -0.27977      0.99963     2.27458    0.00555     3.27977
      C   10    0.41588      0.99965     1.55748    0.02699     2.58412
      O   11   -0.32197      0.99986     3.31548    0.00663     4.32197
      O   12   -0.34162      0.99987     3.33427    0.00748     4.34162
      C   13    0.40514      0.99963     1.56816    0.02708     2.59486
      O   14   -0.30418      0.99986     3.29762    0.00670     4.30418
      O   15   -0.34382      0.99987     3.33671    0.00724     4.34382
      H   16    0.09236      0.00000     0.40666    0.00098     0.40764
      H   17    0.09402      0.00000     0.40471    0.00126     0.40598
      H   18    0.10594      0.00000     0.39280    0.00127     0.39406
      H   19    0.08650      0.00000     0.41141    0.00208     0.41350
      H   20    0.07680      0.00000     0.42212    0.00107     0.42320
      H   21    0.09499      0.00000     0.40419    0.00082     0.40501
      H   22    0.09036      0.00000     0.40881    0.00083     0.40964
      H   23    0.09691      0.00000     0.40232    0.00077     0.40309
      H   24    0.11542      0.00000     0.38378    0.00080     0.38458
      H   25    0.08669      0.00000     0.41243    0.00089     0.41331
      H   26    0.09338      0.00000     0.40589    0.00073     0.40662
      H   27    0.11036      0.00000     0.38869    0.00095     0.38964
      H   28    0.09652      0.00000     0.40252    0.00096     0.40348
      H   29    0.08813      0.00000     0.41096    0.00091     0.41187
      H   30    0.23305      0.00000     0.26369    0.00326     0.26695
      H   31    0.24124      0.00000     0.25546    0.00329     0.25876
 =======================================================================
   * Total *   -0.00000     14.99471    41.82940    0.17589    57.00000

 Normal termination of Gaussian 16 at Thu Dec 10 17:01:47 2020.
