 Gaussian 16, Revision A.03,

 -----------------------------------------------------------
 # opt freq B3LYP/6-31G(d) empiricaldispersion=gd3bj scf=xqc
 -----------------------------------------------------------

 -------------------------------
 CID_107268294_JID_6718_neutraal
 -------------------------------
 Symbolic Z-matrix:
 Charge =  0 Multiplicity = 1

 SCF Done:  E(RB3LYP) =  -745.345942808     A.U. after   14 cycles
 SCF Done:  E(RB3LYP) =  -745.350766979     A.U. after   12 cycles
 SCF Done:  E(RB3LYP) =  -745.351784196     A.U. after   12 cycles
 SCF Done:  E(RB3LYP) =  -745.352148838     A.U. after   12 cycles
 SCF Done:  E(RB3LYP) =  -745.352381218     A.U. after   12 cycles
 SCF Done:  E(RB3LYP) =  -745.352508855     A.U. after   11 cycles
 SCF Done:  E(RB3LYP) =  -745.352585730     A.U. after   10 cycles
 SCF Done:  E(RB3LYP) =  -745.352635876     A.U. after   11 cycles
 SCF Done:  E(RB3LYP) =  -745.352686734     A.U. after   11 cycles
 SCF Done:  E(RB3LYP) =  -745.352703124     A.U. after   10 cycles
 SCF Done:  E(RB3LYP) =  -745.352722227     A.U. after    9 cycles
 SCF Done:  E(RB3LYP) =  -745.352723250     A.U. after    8 cycles
 SCF Done:  E(RB3LYP) =  -745.352723648     A.U. after    8 cycles
 SCF Done:  E(RB3LYP) =  -745.352723854     A.U. after    7 cycles
 SCF Done:  E(RB3LYP) =  -745.352723915     A.U. after    7 cycles
 Optimization completed.
    -- Stationary point found.
 Normal termination of Gaussian 16 at Fri Dec 11 00:27:20 2020.

 --------------------------------------------------------------------
 #N Geom=AllCheck Guess=TCheck SCRF=Check GenChk RB3LYP/6-31G(d) Freq
 --------------------------------------------------------------------

 Structure from the checkpoint file:  "JID_6718.chk"
 -------------------------------
 CID_107268294_JID_6718_neutraal
 -------------------------------
 Charge =  0 Multiplicity = 1

 SCF Done:  E(RB3LYP) =  -745.352723915     A.U. after    1 cycles

  Exact polarizability: 157.395  14.809 124.729  -1.954   6.426 127.076
 Approx polarizability: 192.589  23.579 188.791 -11.411  10.948 200.680

                      1                      2                      3
                      A                      A                      A
 Frequencies --     20.8874                24.4464                41.6886
 Red. masses --      3.6420                 4.5310                 3.6351
 Frc consts  --      0.0009                 0.0016                 0.0037
 IR Inten    --      2.2625                 1.4962                 1.5987

                      4                      5                      6
                      A                      A                      A
 Frequencies --     55.7393                85.3772                90.6168
 Red. masses --      3.5387                 1.1170                 3.6885
 Frc consts  --      0.0065                 0.0048                 0.0178
 IR Inten    --      4.4832                 0.2695                 1.1590

                      7                      8                      9
                      A                      A                      A
 Frequencies --    125.1993               170.9098               188.3452
 Red. masses --      3.8717                 2.9498                 3.6656
 Frc consts  --      0.0358                 0.0508                 0.0766
 IR Inten    --      0.1711                 1.7099                 0.4965

                     10                     11                     12
                      A                      A                      A
 Frequencies --    210.8707               235.0915               273.7281
 Red. masses --      2.3252                 1.1561                 3.3483
 Frc consts  --      0.0609                 0.0376                 0.1478
 IR Inten    --      3.3801                 2.0757                 5.0746

                     13                     14                     15
                      A                      A                      A
 Frequencies --    294.6307               304.1941               312.3364
 Red. masses --      3.3109                 2.2865                 3.2903
 Frc consts  --      0.1693                 0.1247                 0.1891
 IR Inten    --      2.7026                 1.3776                 2.0906

                     16                     17                     18
                      A                      A                      A
 Frequencies --    380.5994               400.1845               403.7854
 Red. masses --      3.3145                 2.6116                 2.2129
 Frc consts  --      0.2829                 0.2464                 0.2126
 IR Inten    --      3.1537                 3.8513                 3.0181

                     19                     20                     21
                      A                      A                      A
 Frequencies --    448.9937               474.4190               505.1232
 Red. masses --      2.7765                 2.5066                 1.6468
 Frc consts  --      0.3298                 0.3324                 0.2476
 IR Inten    --      7.3385                30.2830                44.5809

                     22                     23                     24
                      A                      A                      A
 Frequencies --    539.1399               583.9753               628.0481
 Red. masses --      3.4044                 1.1826                 3.1190
 Frc consts  --      0.5830                 0.2376                 0.7248
 IR Inten    --      2.1263                76.7573                 2.9665

                     25                     26                     27
                      A                      A                      A
 Frequencies --    652.3839               687.9041               694.0855
 Red. masses --      2.4305                 4.1158                 3.7096
 Frc consts  --      0.6095                 1.1475                 1.0529
 IR Inten    --      2.0141                20.2275                13.3230

                     28                     29                     30
                      A                      A                      A
 Frequencies --    706.8469               750.8627               758.9527
 Red. masses --      3.4172                 2.7032                 2.6492
 Frc consts  --      1.0059                 0.8979                 0.8991
 IR Inten    --      1.0149                29.0271                 4.8203

                     31                     32                     33
                      A                      A                      A
 Frequencies --    834.9362               845.6058               867.1461
 Red. masses --      1.5564                 1.5565                 2.3220
 Frc consts  --      0.6392                 0.6557                 1.0287
 IR Inten    --     87.0597                39.1931                27.2625

                     34                     35                     36
                      A                      A                      A
 Frequencies --    882.1109               916.6199               945.2999
 Red. masses --      2.1899                 2.0139                 2.5288
 Frc consts  --      1.0040                 0.9969                 1.3314
 IR Inten    --     20.5675                 3.8262                32.7484

                     37                     38                     39
                      A                      A                      A
 Frequencies --    971.3292               997.3196              1008.0613
 Red. masses --      2.1158                 1.6116                 1.7593
 Frc consts  --      1.1762                 0.9444                 1.0533
 IR Inten    --     31.3930                 0.9193                 4.9188

                     40                     41                     42
                      A                      A                      A
 Frequencies --   1009.9159              1035.9788              1043.5194
 Red. masses --      3.7825                 2.6192                 1.8678
 Frc consts  --      2.2730                 1.6563                 1.1984
 IR Inten    --      7.4971                27.9420                 1.5161

                     43                     44                     45
                      A                      A                      A
 Frequencies --   1060.5846              1065.2725              1075.3560
 Red. masses --      3.2615                 1.7090                 1.4667
 Frc consts  --      2.1615                 1.1426                 0.9993
 IR Inten    --      6.4188                16.0536                 1.7537

                     46                     47                     48
                      A                      A                      A
 Frequencies --   1088.2256              1118.9611              1135.7413
 Red. masses --      2.7803                 3.0863                 3.0317
 Frc consts  --      1.9399                 2.2768                 2.3041
 IR Inten    --     59.9268                40.1312                75.5569

                     49                     50                     51
                      A                      A                      A
 Frequencies --   1142.9232              1173.2446              1188.3438
 Red. masses --      2.5691                 2.1181                 2.1314
 Frc consts  --      1.9772                 1.7178                 1.7734
 IR Inten    --     26.9358                34.9084                29.4724

                     52                     53                     54
                      A                      A                      A
 Frequencies --   1201.6638              1214.9094              1237.4608
 Red. masses --      1.9775                 1.7805                 1.4548
 Frc consts  --      1.6824                 1.5484                 1.3126
 IR Inten    --      7.1785                 8.1427                14.7850

                     55                     56                     57
                      A                      A                      A
 Frequencies --   1255.6236              1291.4881              1299.9626
 Red. masses --      1.3925                 1.8212                 1.9575
 Frc consts  --      1.2935                 1.7898                 1.9490
 IR Inten    --      6.0530                 5.2870                13.2423

                     58                     59                     60
                      A                      A                      A
 Frequencies --   1327.8893              1340.2437              1368.9295
 Red. masses --      1.3137                 1.3780                 1.3151
 Frc consts  --      1.3648                 1.4584                 1.4520
 IR Inten    --     52.6907                10.9163                20.7118

                     61                     62                     63
                      A                      A                      A
 Frequencies --   1380.5033              1389.7803              1400.6908
 Red. masses --      1.2973                 1.3175                 1.3947
 Frc consts  --      1.4567                 1.4993                 1.6122
 IR Inten    --     23.6912                 8.5302                 3.3950

                     64                     65                     66
                      A                      A                      A
 Frequencies --   1407.5232              1416.2501              1433.8113
 Red. masses --      1.3162                 2.1072                 1.3118
 Frc consts  --      1.5363                 2.4902                 1.5889
 IR Inten    --     13.2891                 4.4459                 9.8908

                     67                     68                     69
                      A                      A                      A
 Frequencies --   1442.8024              1447.3766              1453.3539
 Red. masses --      1.6078                 2.4779                 1.6510
 Frc consts  --      1.9719                 3.0584                 2.0547
 IR Inten    --      5.3103                48.4767                81.6532

                     70                     71                     72
                      A                      A                      A
 Frequencies --   1494.9570              1502.8305              1509.4822
 Red. masses --      1.0900                 1.1177                 1.1656
 Frc consts  --      1.4353                 1.4873                 1.5648
 IR Inten    --      3.2205                 4.1657                 9.3033

                     73                     74                     75
                      A                      A                      A
 Frequencies --   1513.2690              1517.1310              1523.1386
 Red. masses --      1.0437                 1.0542                 1.2638
 Frc consts  --      1.4082                 1.4296                 1.7275
 IR Inten    --      8.2174                 1.0258                 1.5012

                     76                     77                     78
                      A                      A                      A
 Frequencies --   1528.3671              1532.3646              1553.2359
 Red. masses --      1.0655                 1.1035                 1.0950
 Frc consts  --      1.4665                 1.5266                 1.5565
 IR Inten    --      0.8965                33.4410                 0.7318

                     79                     80                     81
                      A                      A                      A
 Frequencies --   1560.6856              1635.9270              2987.9029
 Red. masses --      5.0653                 4.4965                 1.0840
 Frc consts  --      7.2692                 7.0902                 5.7018
 IR Inten    --     29.9607                18.7122                56.6383

                     82                     83                     84
                      A                      A                      A
 Frequencies --   3020.7053              3027.4120              3043.8583
 Red. masses --      1.0656                 1.0687                 1.0412
 Frc consts  --      5.7289                 5.7708                 5.6835
 IR Inten    --     36.1797                56.4407                35.3253

                     85                     86                     87
                      A                      A                      A
 Frequencies --   3046.2469              3056.5034              3064.7223
 Red. masses --      1.0651                 1.0403                 1.0651
 Frc consts  --      5.8234                 5.7258                 5.8943
 IR Inten    --     41.8781                26.9015                22.2437

                     88                     89                     90
                      A                      A                      A
 Frequencies --   3083.1416              3091.8522              3102.9167
 Red. masses --      1.0979                 1.1015                 1.0973
 Frc consts  --      6.1488                 6.2042                 6.2247
 IR Inten    --     19.4681                20.3131                53.6417

                     91                     92                     93
                      A                      A                      A
 Frequencies --   3105.9703              3122.4770              3137.5082
 Red. masses --      1.0987                 1.0967                 1.1010
 Frc consts  --      6.2447                 6.3001                 6.3857
 IR Inten    --     14.3365                37.7283                19.2720

                     94                     95                     96
                      A                      A                      A
 Frequencies --   3158.4408              3164.1515              3254.8560
 Red. masses --      1.1020                 1.0972                 1.0968
 Frc consts  --      6.4771                 6.4723                 6.8458
 IR Inten    --     13.6065                 3.8061                 8.5089

                     97                     98                     99
                      A                      A                      A
 Frequencies --   3484.8230              3608.6732              3634.7643
 Red. masses --      1.0736                 1.0647                 1.0801
 Frc consts  --      7.6815                 8.1691                 8.4072
 IR Inten    --      0.3602               113.6850                28.2095

 - Thermochemistry -
 -------------------
 Temperature   298.150 Kelvin.  Pressure   1.00000 Atm.
 Atom     1 has atomic number  6 and mass  12.00000

 Molecular mass:   225.14773 amu.
 Principal axes and moments of inertia in atomic units:
                           1         2         3
     Eigenvalues --  1712.143007888.472458064.50692
           X            0.99995   0.00841   0.00529
           Y           -0.00906   0.99030   0.13866
           Z           -0.00407  -0.13870   0.99033
 This molecule is an asymmetric top.
 Rotational symmetry number  1.
 Warning -- assumption of classical behavior for rotation
           may cause significant error
 Rotational temperatures (Kelvin)      0.05059     0.01098     0.01074
 Rotational constants (GHZ):           1.05408     0.22878     0.22379
 Zero-point vibrational energy     800507.7 (Joules/Mol)
                                  191.32594 (Kcal/Mol)
 Warning -- explicit consideration of  23 degrees of freedom as
           vibrations may cause significant error
 Vibrational temperatures:     30.05    35.17    59.98    80.20   122.84
          (Kelvin)            130.38   180.13   245.90   270.99   303.40
                              338.24   393.83   423.91   437.67   449.38
                              547.60   575.78   580.96   646.00   682.58
                              726.76   775.70   840.21   903.62   938.63
                              989.74   998.63  1017.00  1080.32  1091.96
                             1201.29  1216.64  1247.63  1269.16  1318.81
                             1360.08  1397.53  1434.92  1450.38  1453.04
                             1490.54  1501.39  1525.94  1532.69  1547.20
                             1565.71  1609.94  1634.08  1644.41  1688.04
                             1709.76  1728.93  1747.98  1780.43  1806.56
                             1858.16  1870.36  1910.54  1928.31  1969.58
                             1986.24  1999.58  2015.28  2025.11  2037.67
                             2062.93  2075.87  2082.45  2091.05  2150.91
                             2162.24  2171.81  2177.26  2182.81  2191.46
                             2198.98  2204.73  2234.76  2245.48  2353.73
                             4298.93  4346.12  4355.77  4379.43  4382.87
                             4397.63  4409.45  4435.95  4448.49  4464.41
                             4468.80  4492.55  4514.17  4544.29  4552.51
                             4683.01  5013.88  5192.08  5229.62

 Zero-point correction=                           0.304897 (Hartree/Particle)
 Thermal correction to Energy=                    0.321176
 Thermal correction to Enthalpy=                  0.322120
 Thermal correction to Gibbs Free Energy=         0.258751
 Sum of electronic and zero-point Energies=           -745.047827
 Sum of electronic and thermal Energies=              -745.031548
 Sum of electronic and thermal Enthalpies=            -745.030604
 Sum of electronic and thermal Free Energies=         -745.093973

                     E (Thermal)             CV                S
                      KCal/Mol        Cal/Mol-Kelvin    Cal/Mol-Kelvin
 Total                  201.541             61.084            133.370
 Electronic               0.000              0.000              0.000
 Translational            0.889              2.981             42.137
 Rotational               0.889              2.981             33.054
 Vibrational            199.763             55.122             58.179
 Vibration     1          0.593              1.986              6.548
 Vibration     2          0.593              1.985              6.236
 Vibration     3          0.594              1.981              5.177
 Vibration     4          0.596              1.975              4.603
 Vibration     5          0.601              1.959              3.763
 Vibration     6          0.602              1.956              3.647
 Vibration     7          0.610              1.928              3.019
 Vibration     8          0.626              1.878              2.425
 Vibration     9          0.633              1.856              2.244
 Vibration    10          0.643              1.824              2.036
 Vibration    11          0.655              1.787              1.840
 Vibration    12          0.676              1.722              1.573
 Vibration    13          0.689              1.684              1.447
 Vibration    14          0.695              1.666              1.394
 Vibration    15          0.701              1.650              1.350
 Vibration    16          0.750              1.512              1.037
 Vibration    17          0.766              1.470              0.962
 Vibration    18          0.769              1.462              0.949
 Vibration    19          0.808              1.363              0.799
 Vibration    20          0.831              1.307              0.725
 Vibration    21          0.860              1.239              0.645
 Vibration    22          0.894              1.163              0.567
 Vibration    23          0.941              1.066              0.478

                           ! Non-Optimized Parameters !
 Normal termination of Gaussian 16 at Fri Dec 11 00:38:10 2020.

 ----------------------------------------------------------------------
 # B3LYP/6-311++G(d,p) empiricaldispersion=gd3bj scf=xqc pop=npa geom=c
 heck
 ----------------------------------------------------------------------

 ---------------------------------------
 CID_107268294_JID_6718_Energie_neutraal
 ---------------------------------------
 Structure from the checkpoint file:  "JID_6718.chk"
 Charge =  0 Multiplicity = 1

 SCF Done:  E(RB3LYP) =  -745.575052109     A.U. after   14 cycles
 Normal termination of Gaussian 16 at Fri Dec 11 00:42:52 2020.

 ----------------------------------------------------------------------
 # B3LYP/6-311++G(d,p) empiricaldispersion=gd3bj scf=xqc pop=npa geom=c
 heck
 ----------------------------------------------------------------------

 -------------------------------------
 CID_107268294_JID_6718_Energie_kation
 -------------------------------------
 Structure from the checkpoint file:  "JID_6718.chk"
 Charge =  1 Multiplicity = 2

 SCF Done:  E(UB3LYP) =  -745.278892801     A.U. after   33 cycles
 SCF Done:  E(UB3LYP) =  -745.278892801     a.u. after    1 cycles
 Normal termination of Gaussian 16 at Fri Dec 11 00:57:50 2020.
 Gaussian 16:  ES64L-G16RevA.03 25-Dec-2016

 ----------------------------------------------------------------------
 # B3LYP/6-311++G(d,p) empiricaldispersion=gd3bj scf=xqc pop=npa geom=c
 heck
 ----------------------------------------------------------------------

 ------------------------------------
 CID_107268294_JID_6718_Energie_anion
 ------------------------------------
 Structure from the checkpoint file:  "JID_6718.chk"
 Charge = -1 Multiplicity = 2

                         Standard orientation:
 ---------------------------------------------------------------------
 Center     Atomic      Atomic             Coordinates (Angstroms)
 Number     Number       Type             X           Y           Z
 ---------------------------------------------------------------------
      1          6           0       -2.614854    1.302861    1.718908
      2          6           0       -2.370827    1.078348    0.233022
      3          6           0       -2.089659   -0.404963   -0.176426
      4          6           0       -2.832255   -0.500765   -1.512687
      5          6           0       -4.040375    0.395712   -1.263108
      6          8           0       -3.532694    1.493420   -0.502947
      7          6           0       -0.598520   -0.739365   -0.289446
      8          7           0       -0.016571   -0.824181    1.055361
      9          6           0        1.293890   -1.497251    1.103438
     10          6           0        2.381998   -0.856282    0.299839
     11          6           0        2.879942   -1.102771   -0.957083
     12          7           0        3.836658   -0.173586   -1.307610
     13          6           0        3.931883    0.648397   -0.280287
     14          7           0        3.063597    0.280308    0.717646
     15          6           0        4.847318    1.822897   -0.177431
     16          8           0       -2.693774   -1.327650    0.723289
     17          1           0       -1.719230    1.085839    2.313998
     18          1           0       -3.420798    0.652222    2.065361
     19          1           0       -2.896916    2.345565    1.892415
     20          1           0       -1.532842    1.709075   -0.104645
     21          1           0       -3.084645   -1.537773   -1.747409
     22          1           0       -2.212144   -0.087435   -2.317129
     23          1           0       -4.811643   -0.144268   -0.695551
     24          1           0       -4.491690    0.797951   -2.175396
     25          1           0       -0.504102   -1.731872   -0.745431
     26          1           0       -0.083839   -0.025768   -0.949715
     27          1           0        0.084532    0.118645    1.428825
     28          1           0        1.583586   -1.572653    2.159601
     29          1           0        1.149223   -2.520732    0.742574
     30          1           0        2.601009   -1.904419   -1.628246
     31          1           0        2.977168    0.723185    1.621516
     32          1           0        4.296457    2.760534   -0.031462
     33          1           0        5.555527    1.719186    0.654342
     34          1           0        5.416516    1.898510   -1.105674
     35          1           0       -2.011461   -1.470636    1.409076
 ---------------------------------------------------------------------

 SCF Done:  E(UB3LYP) =  -745.572874151     A.U. after   29 cycles

 The electronic state is 2-A.
 Alpha  occ. eigenvalues --  -19.02933 -19.02418 -14.25237 -14.21655 -14.18699
 Alpha  occ. eigenvalues --  -10.13973 -10.13024 -10.12647 -10.12611 -10.11180
 Alpha  occ. eigenvalues --  -10.10589 -10.09788 -10.08702 -10.07873 -10.07297
 Alpha  occ. eigenvalues --  -10.06154  -0.95359  -0.92838  -0.90796  -0.81999
 Alpha  occ. eigenvalues --   -0.76313  -0.69984  -0.68214  -0.67462  -0.63188
 Alpha  occ. eigenvalues --   -0.60105  -0.57139  -0.54049  -0.50699  -0.49984
 Alpha  occ. eigenvalues --   -0.48182  -0.47854  -0.43552  -0.41862  -0.40792
 Alpha  occ. eigenvalues --   -0.39317  -0.38135  -0.35873  -0.35290  -0.34944
 Alpha  occ. eigenvalues --   -0.34545  -0.33618  -0.33045  -0.31726  -0.30568
 Alpha  occ. eigenvalues --   -0.30171  -0.29599  -0.28789  -0.28609  -0.28285
 Alpha  occ. eigenvalues --   -0.27649  -0.26459  -0.25431  -0.24775  -0.23122
 Alpha  occ. eigenvalues --   -0.18325  -0.18032  -0.17429  -0.16389  -0.15358
 Alpha  occ. eigenvalues --   -0.12070   0.04006
 Alpha virt. eigenvalues --    0.06623   0.07524   0.07664   0.08469   0.08864
 Alpha virt. eigenvalues --    0.09572   0.10121   0.10138   0.10833   0.11016
 Alpha virt. eigenvalues --    0.11345   0.11630   0.12517   0.12802   0.13274

  Beta  occ. eigenvalues --  -19.02932 -19.02410 -14.25145 -14.21621 -14.18696
  Beta  occ. eigenvalues --  -10.13973 -10.13022 -10.12646 -10.12600 -10.11153
  Beta  occ. eigenvalues --  -10.10582 -10.09789 -10.08700 -10.07866 -10.07258
  Beta  occ. eigenvalues --  -10.06131  -0.95350  -0.92823  -0.90745  -0.81947
  Beta  occ. eigenvalues --   -0.76226  -0.69970  -0.68189  -0.67434  -0.63142
  Beta  occ. eigenvalues --   -0.60058  -0.57100  -0.53986  -0.50685  -0.49838
  Beta  occ. eigenvalues --   -0.48133  -0.47827  -0.43525  -0.41806  -0.40772
  Beta  occ. eigenvalues --   -0.39278  -0.38105  -0.35844  -0.35253  -0.34922
  Beta  occ. eigenvalues --   -0.34513  -0.33571  -0.32996  -0.31695  -0.30543
  Beta  occ. eigenvalues --   -0.30140  -0.29572  -0.28748  -0.28569  -0.28252
  Beta  occ. eigenvalues --   -0.27614  -0.26434  -0.25414  -0.24766  -0.23109
  Beta  occ. eigenvalues --   -0.18309  -0.17987  -0.17411  -0.16375  -0.15329
  Beta  occ. eigenvalues --   -0.12046
  Beta virt. eigenvalues --    0.06395   0.07318   0.07737   0.07938   0.08754
  Beta virt. eigenvalues --    0.09356   0.09738   0.10368   0.10506   0.10883
  Beta virt. eigenvalues --    0.11153   0.11595   0.11800   0.12689   0.13004

 Mulliken charges and spin densities:
               1          2
     1  C    0.343987  -0.840765
     2  C   -0.701606   0.384611
     3  C    0.253232  -0.211244
     4  C   -0.169144   0.060620
     5  C   -0.176248  -0.055382
     6  O   -0.118810   0.011939
     7  C   -0.707382  -0.223329
     8  N   -0.079437   0.075519
     9  C    0.121562  -1.125994
    10  C    0.807783  -0.289007
    11  C   -0.884082   0.775119
    12  N   -0.095150  -0.011266
    13  C   -0.571466   0.708472
    14  N   -0.104349   0.001460
    15  C    1.490663  -2.135696
    16  O   -0.127423  -0.004984
    17  H   -0.389884   0.536413
    18  H    0.119270   0.059334
    19  H    0.044282   0.110179
    20  H   -0.092654   0.302014
    21  H    0.131448   0.030157
    22  H    0.099359   0.041944
    23  H    0.121250   0.022895
    24  H    0.145622   0.020928
    25  H    0.160143   0.025331
    26  H    0.289450  -0.048532
    27  H    0.373764  -0.131432
    28  H   -0.457655   0.680640
    29  H    0.097862   0.051736
    30  H    0.000820   0.134443
    31  H   -0.682625   1.032924
    32  H   -0.297768   0.460133
    33  H   -0.282475   0.441662
    34  H    0.094369   0.055939
    35  H    0.243292   0.053219
 Sum of Mulliken charges =  -1.00000   1.00000

 Dipole moment (field-independent basis, Debye):
    X=             -6.9528    Y=             -4.1051    Z=             -5.7202  Tot=              9.8951
 Quadrupole moment (field-independent basis, Debye-Ang):
   XX=           -177.3335   YY=           -131.5235   ZZ=           -140.2631
   XY=             -4.5687   XZ=             -3.6847   YZ=             -4.4294

 Summary of Natural Population Analysis:

                                       Natural Population
                Natural  -----------------------------------------------
    Atom  No    Charge         Core      Valence    Rydberg      Total
 -----------------------------------------------------------------------
      C    1   -0.29755      0.99963     2.29035    0.00757     3.29755
      C    2    0.05596      0.99951     1.92834    0.01618     2.94404
      C    3    0.12011      0.99949     1.86199    0.01842     2.87989
      C    4   -0.20819      0.99958     2.20091    0.00769     3.20819
      C    5   -0.00844      0.99960     1.99746    0.01138     3.00844
      O    6   -0.30682      0.99989     3.29875    0.00817     4.30682
      C    7   -0.09813      0.99956     2.08660    0.01198     3.09813
      N    8   -0.35155      0.99974     2.83896    0.01284     3.85155
      C    9   -0.10109      0.99959     2.08834    0.01317     3.10109
      C   10    0.03962      0.99952     1.94788    0.01299     2.96038
      C   11   -0.03311      0.99950     2.02137    0.01225     3.03311
      N   12   -0.26663      0.99970     2.75723    0.00970     3.76663
      C   13    0.19143      0.99963     1.79118    0.01776     2.80857
      N   14   -0.27490      0.99963     2.76376    0.01152     3.77490
      C   15   -0.30640      0.99963     2.30101    0.00575     3.30640
      O   16   -0.38732      0.99989     3.38102    0.00641     4.38732
      H   17    0.10341      0.00000     0.39523    0.00136     0.39659
      H   18    0.10407      0.00000     0.39471    0.00123     0.39593
      H   19    0.10269      0.00000     0.39633    0.00098     0.39731
      H   20    0.08849      0.00000     0.40974    0.00177     0.41151
      H   21    0.10789      0.00000     0.39105    0.00107     0.39211
      H   22    0.10085      0.00000     0.39798    0.00116     0.39915
      H   23    0.08111      0.00000     0.41746    0.00143     0.41889
      H   24    0.08522      0.00000     0.41347    0.00131     0.41478
      H   25    0.09518      0.00000     0.40364    0.00118     0.40482
      H   26    0.09519      0.00000     0.40328    0.00153     0.40481
      H   27    0.18317      0.00000     0.31038    0.00645     0.31683
      H   28    0.10744      0.00000     0.39109    0.00147     0.39256
      H   29    0.09831      0.00000     0.40059    0.00110     0.40169
      H   30    0.09309      0.00000     0.40591    0.00100     0.40691
      H   31    0.21838      0.00000     0.24097    0.04064     0.28162
      H   32    0.10884      0.00000     0.38986    0.00130     0.39116
      H   33    0.10767      0.00000     0.39098    0.00135     0.39233
      H   34    0.11029      0.00000     0.38855    0.00116     0.38971
      H   35    0.24171      0.00000     0.25511    0.00317     0.25829
 =======================================================================
   * Total *   -0.00000     15.99409    44.75148    0.25443    61.00000

 Normal termination of Gaussian 16 at Fri Dec 11 01:10:26 2020.
