 Gaussian 16, Revision A.03,

 -----------------------------------------------------------
 # opt freq B3LYP/6-31G(d) empiricaldispersion=gd3bj scf=xqc
 -----------------------------------------------------------

 ------------------------------
 CID_61563154_JID_4796_neutraal
 ------------------------------
 Symbolic Z-matrix:
 Charge =  0 Multiplicity = 1

 SCF Done:  E(RB3LYP) =  -1032.99961757     A.U. after   14 cycles
 SCF Done:  E(RB3LYP) =  -1033.00503647     A.U. after   12 cycles
 SCF Done:  E(RB3LYP) =  -1033.00580424     A.U. after   12 cycles
 SCF Done:  E(RB3LYP) =  -1033.00592976     A.U. after   11 cycles
 SCF Done:  E(RB3LYP) =  -1033.00599297     A.U. after   11 cycles
 SCF Done:  E(RB3LYP) =  -1033.00595521     A.U. after   11 cycles
 SCF Done:  E(RB3LYP) =  -1033.00601605     A.U. after   10 cycles
 SCF Done:  E(RB3LYP) =  -1033.00603497     A.U. after    9 cycles
 SCF Done:  E(RB3LYP) =  -1033.00603674     A.U. after    8 cycles
 SCF Done:  E(RB3LYP) =  -1033.00603707     A.U. after    8 cycles
 SCF Done:  E(RB3LYP) =  -1033.00603717     A.U. after    7 cycles
 Optimization completed.
    -- Stationary point found.
 Normal termination of Gaussian 16 at Thu Dec 10 10:37:23 2020.

 --------------------------------------------------------------------
 #N Geom=AllCheck Guess=TCheck SCRF=Check GenChk RB3LYP/6-31G(d) Freq
 --------------------------------------------------------------------

 Structure from the checkpoint file:  "JID_4796.chk"
 ------------------------------
 CID_61563154_JID_4796_neutraal
 ------------------------------
 Charge =  0 Multiplicity = 1

 SCF Done:  E(RB3LYP) =  -1033.00603717     A.U. after    1 cycles

  Exact polarizability: 138.158   2.099 119.325  -0.098  -1.112 111.916
 Approx polarizability: 180.704   2.512 182.083  -0.165   3.343 173.334

                      1                      2                      3
                      A                      A                      A
 Frequencies --     47.7887                56.4142               100.9065
 Red. masses --      2.8839                 4.2527                 3.9593
 Frc consts  --      0.0039                 0.0080                 0.0238
 IR Inten    --      0.2662                 2.3368                 2.3696

                      4                      5                      6
                      A                      A                      A
 Frequencies --    138.9872               142.7695               180.6580
 Red. masses --      3.9427                 3.6660                 5.1987
 Frc consts  --      0.0449                 0.0440                 0.1000
 IR Inten    --      3.9509                 6.0650                 4.7091

                      7                      8                      9
                      A                      A                      A
 Frequencies --    186.6383               226.0019               236.8671
 Red. masses --      6.1623                 1.2521                 1.6548
 Frc consts  --      0.1265                 0.0377                 0.0547
 IR Inten    --      2.1019                 0.6560                 0.1446

                     10                     11                     12
                      A                      A                      A
 Frequencies --    253.0347               258.5615               281.2902
 Red. masses --      1.9024                 1.9768                 1.9400
 Frc consts  --      0.0718                 0.0779                 0.0904
 IR Inten    --      3.2152                12.9453                 7.1114

                     13                     14                     15
                      A                      A                      A
 Frequencies --    299.9280               318.5269               340.9711
 Red. masses --      2.0663                 1.5571                 2.0292
 Frc consts  --      0.1095                 0.0931                 0.1390
 IR Inten    --     52.7763                74.7635                10.0893

                     16                     17                     18
                      A                      A                      A
 Frequencies --    345.6924               406.4356               417.3828
 Red. masses --      2.5298                 3.1177                 3.8009
 Frc consts  --      0.1781                 0.3034                 0.3901
 IR Inten    --      2.6017                 4.9407                20.5684

                     19                     20                     21
                      A                      A                      A
 Frequencies --    422.4255               441.1856               458.8197
 Red. masses --      2.0909                 2.0282                 4.9529
 Frc consts  --      0.2198                 0.2326                 0.6143
 IR Inten    --      0.7475                 6.1108                17.3581

                     22                     23                     24
                      A                      A                      A
 Frequencies --    480.6243               499.4371               540.2570
 Red. masses --      2.6383                 2.9092                 4.5763
 Frc consts  --      0.3591                 0.4276                 0.7870
 IR Inten    --      1.1354                 5.8547                 7.7447

                     25                     26                     27
                      A                      A                      A
 Frequencies --    612.4968               649.1352               699.1660
 Red. masses --      2.5599                 3.6194                 2.3324
 Frc consts  --      0.5658                 0.8986                 0.6718
 IR Inten    --      4.7183                24.9508                24.3800

                     28                     29                     30
                      A                      A                      A
 Frequencies --    716.0448               753.2723               853.7862
 Red. masses --      2.5671                 2.2078                 2.3357
 Frc consts  --      0.7755                 0.7381                 1.0031
 IR Inten    --     52.4675                19.0751                24.7622

                     31                     32                     33
                      A                      A                      A
 Frequencies --    870.1395               896.3455               930.2170
 Red. masses --      2.0456                 2.0752                 1.9249
 Frc consts  --      0.9125                 0.9824                 0.9813
 IR Inten    --     12.8630                 5.7038                 9.1833

                     34                     35                     36
                      A                      A                      A
 Frequencies --    936.3430               951.8094               958.6449
 Red. masses --      1.2101                 1.4680                 1.6418
 Frc consts  --      0.6251                 0.7836                 0.8889
 IR Inten    --      1.0879                 0.3825                16.7778

                     37                     38                     39
                      A                      A                      A
 Frequencies --    966.5783              1007.7566              1024.8522
 Red. masses --      1.6650                 2.4618                 2.1777
 Frc consts  --      0.9165                 1.4731                 1.3476
 IR Inten    --      7.8023                 3.0220                 4.2034

                     40                     41                     42
                      A                      A                      A
 Frequencies --   1052.5548              1068.1286              1099.7019
 Red. masses --      2.8451                 2.3488                 4.7585
 Frc consts  --      1.8571                 1.5789                 3.3905
 IR Inten    --     47.7795                25.5757               204.2489

                     43                     44                     45
                      A                      A                      A
 Frequencies --   1120.9151              1132.8763              1149.6447
 Red. masses --      3.0328                 2.6371                 2.0320
 Frc consts  --      2.2451                 1.9940                 1.5824
 IR Inten    --     14.7641                23.1505                13.0216

                     46                     47                     48
                      A                      A                      A
 Frequencies --   1153.3775              1159.2854              1203.5993
 Red. masses --      1.5158                 1.4016                 1.6546
 Frc consts  --      1.1880                 1.1098                 1.4123
 IR Inten    --     10.7773                12.4628                35.2976

                     49                     50                     51
                      A                      A                      A
 Frequencies --   1204.1171              1213.1344              1250.9342
 Red. masses --      1.5451                 1.3874                 1.6493
 Frc consts  --      1.3199                 1.2030                 1.5206
 IR Inten    --     23.9872                14.1445                14.2227

                     52                     53                     54
                      A                      A                      A
 Frequencies --   1272.3902              1296.2913              1328.8257
 Red. masses --      1.5731                 3.7064                 2.2998
 Frc consts  --      1.5005                 3.6695                 2.3927
 IR Inten    --      3.4460                78.7722                98.6123

                     55                     56                     57
                      A                      A                      A
 Frequencies --   1335.3534              1347.5862              1368.3155
 Red. masses --      1.3108                 1.3884                 1.3316
 Frc consts  --      1.3771                 1.4856                 1.4690
 IR Inten    --      1.3865                 1.7306                 1.8245

                     58                     59                     60
                      A                      A                      A
 Frequencies --   1376.7201              1395.0265              1404.4154
 Red. masses --      1.4164                 1.3681                 1.4895
 Frc consts  --      1.5817                 1.5686                 1.7310
 IR Inten    --      5.0993                 5.4730                 3.5108

                     61                     62                     63
                      A                      A                      A
 Frequencies --   1418.5388              1428.6893              1432.1684
 Red. masses --      1.2505                 1.2511                 1.2617
 Frc consts  --      1.4826                 1.5046                 1.5248
 IR Inten    --     10.0261                18.6103                27.0327

                     64                     65                     66
                      A                      A                      A
 Frequencies --   1446.4215              1463.7341              1477.3912
 Red. masses --      1.2435                 1.0930                 1.0911
 Frc consts  --      1.5327                 1.3797                 1.4032
 IR Inten    --     14.4232                 5.1874                10.2195

                     67                     68                     69
                      A                      A                      A
 Frequencies --   1503.1323              1510.4620              1515.1283
 Red. masses --      1.1265                 1.0556                 1.0700
 Frc consts  --      1.4996                 1.4189                 1.4472
 IR Inten    --      9.3359                 0.9153                 5.5449

                     70                     71                     72
                      A                      A                      A
 Frequencies --   1520.1568              1521.6805              1531.2363
 Red. masses --      1.0722                 1.0699                 1.0777
 Frc consts  --      1.4598                 1.4596                 1.4888
 IR Inten    --      5.3494                 4.1648                 3.9616

                     73                     74                     75
                      A                      A                      A
 Frequencies --   1537.6492              1550.4243              3006.5111
 Red. masses --      1.0976                 1.1112                 1.0682
 Frc consts  --      1.5290                 1.5738                 5.6890
 IR Inten    --      5.6161                13.0920                53.8268

                     76                     77                     78
                      A                      A                      A
 Frequencies --   3036.2187              3038.1528              3045.5865
 Red. masses --      1.0435                 1.0692                 1.0375
 Frc consts  --      5.6677                 5.8149                 5.6701
 IR Inten    --     16.9444                35.0712                26.8303

                     79                     80                     81
                      A                      A                      A
 Frequencies --   3064.1550              3091.8562              3096.3271
 Red. masses --      1.0600                 1.0882                 1.0955
 Frc consts  --      5.8635                 6.1291                 6.1879
 IR Inten    --     15.6654                16.3117                24.2260

                     82                     83                     84
                      A                      A                      A
 Frequencies --   3098.6720              3100.0120              3100.4434
 Red. masses --      1.0790                 1.0714                 1.0789
 Frc consts  --      6.1040                 6.0664                 6.1104
 IR Inten    --      3.8172                 1.6540                 8.9922

                     85                     86                     87
                      A                      A                      A
 Frequencies --   3106.0979              3111.0798              3119.7826
 Red. masses --      1.0916                 1.0943                 1.0960
 Frc consts  --      6.2053                 6.2403                 6.2853
 IR Inten    --      2.4572                18.1914                71.7193

                     88                     89                     90
                      A                      A                      A
 Frequencies --   3126.0503              3159.8078              3166.6563
 Red. masses --      1.1013                 1.0975                 1.1058
 Frc consts  --      6.3408                 6.4559                 6.5330
 IR Inten    --     44.7012                13.8356                 0.9796

                     91                     92                     93
                      A                      A                      A
 Frequencies --   3169.8462              3485.9337              3763.9414
 Red. masses --      1.1051                 1.0736                 1.0664
 Frc consts  --      6.5425                 7.6869                 8.9016
 IR Inten    --      1.9407                 0.2637                18.5419

 - Thermochemistry -
 -------------------
 Temperature   298.150 Kelvin.  Pressure   1.00000 Atm.
 Atom     1 has atomic number  6 and mass  12.00000

 Molecular mass:   221.10857 amu.
 Principal axes and moments of inertia in atomic units:
                           1         2         3
     Eigenvalues --  1771.270294431.983425188.98579
           X            0.99973   0.02319  -0.00085
           Y           -0.02320   0.99961  -0.01575
           Z            0.00049   0.01576   0.99988
 This molecule is an asymmetric top.
 Rotational symmetry number  1.
 Warning -- assumption of classical behavior for rotation
           may cause significant error
 Rotational temperatures (Kelvin)      0.04890     0.01954     0.01669
 Rotational constants (GHZ):           1.01890     0.40721     0.34780
 Zero-point vibrational energy     757148.4 (Joules/Mol)
                                  180.96281 (Kcal/Mol)
 Warning -- explicit consideration of  25 degrees of freedom as
           vibrations may cause significant error
 Vibrational temperatures:     68.76    81.17   145.18   199.97   205.41
          (Kelvin)            259.93   268.53   325.17   340.80   364.06
                              372.01   404.71   431.53   458.29   490.58
                              497.37   584.77   600.52   607.78   634.77
                              660.14   691.51   718.58   777.31   881.25
                              933.96  1005.94  1030.23  1083.79  1228.41
                             1251.94  1289.64  1338.37  1347.19  1369.44
                             1379.28  1390.69  1449.94  1474.53  1514.39
                             1536.80  1582.23  1612.75  1629.96  1654.08
                             1659.45  1667.95  1731.71  1732.46  1745.43
                             1799.82  1830.69  1865.07  1911.88  1921.28
                             1938.88  1968.70  1980.79  2007.13  2020.64
                             2040.96  2055.57  2060.57  2081.08  2105.99
                             2125.64  2162.67  2173.22  2179.93  2187.17
                             2189.36  2203.11  2212.33  2230.71  4325.70
                             4368.44  4371.22  4381.92  4408.64  4448.49
                             4454.92  4458.30  4460.23  4460.85  4468.98
                             4476.15  4488.67  4497.69  4546.26  4556.11
                             4560.70  5015.48  5415.47

 Zero-point correction=                           0.288383 (Hartree/Particle)
 Thermal correction to Energy=                    0.303637
 Thermal correction to Enthalpy=                  0.304581
 Thermal correction to Gibbs Free Energy=         0.247025
 Sum of electronic and zero-point Energies=          -1032.717655
 Sum of electronic and thermal Energies=             -1032.702400
 Sum of electronic and thermal Enthalpies=           -1032.701456
 Sum of electronic and thermal Free Energies=        -1032.759012

                     E (Thermal)             CV                S
                      KCal/Mol        Cal/Mol-Kelvin    Cal/Mol-Kelvin
 Total                  190.535             59.415            121.137
 Electronic               0.000              0.000              0.000
 Translational            0.889              2.981             42.083
 Rotational               0.889              2.981             32.077
 Vibrational            188.758             53.454             46.977
 Vibration     1          0.595              1.978              4.907
 Vibration     2          0.596              1.975              4.579
 Vibration     3          0.604              1.948              3.437
 Vibration     4          0.615              1.914              2.818
 Vibration     5          0.616              1.910              2.766
 Vibration     6          0.630              1.866              2.322
 Vibration     7          0.632              1.858              2.261
 Vibration     8          0.650              1.801              1.910
 Vibration     9          0.656              1.784              1.826
 Vibration    10          0.664              1.758              1.709
 Vibration    11          0.667              1.748              1.671
 Vibration    12          0.681              1.708              1.526
 Vibration    13          0.692              1.674              1.417
 Vibration    14          0.705              1.638              1.318
 Vibration    15          0.720              1.594              1.208
 Vibration    16          0.724              1.584              1.186
 Vibration    17          0.771              1.456              0.939
 Vibration    18          0.780              1.432              0.901
 Vibration    19          0.785              1.421              0.884
 Vibration    20          0.801              1.380              0.823
 Vibration    21          0.817              1.341              0.770
 Vibration    22          0.837              1.293              0.708
 Vibration    23          0.855              1.251              0.660
 Vibration    24          0.895              1.161              0.565
 Vibration    25          0.972              1.005              0.429

                           ! Non-Optimized Parameters !
 Normal termination of Gaussian 16 at Thu Dec 10 10:48:36 2020.

 ----------------------------------------------------------------------
 # B3LYP/6-311++G(d,p) empiricaldispersion=gd3bj scf=xqc pop=npa geom=c
 heck
 ----------------------------------------------------------------------

 --------------------------------------
 CID_61563154_JID_4796_Energie_neutraal
 --------------------------------------
 Structure from the checkpoint file:  "JID_4796.chk"
 Charge =  0 Multiplicity = 1

 SCF Done:  E(RB3LYP) =  -1033.22864697     A.U. after   14 cycles
 Normal termination of Gaussian 16 at Thu Dec 10 10:53:18 2020.

 ----------------------------------------------------------------------
 # B3LYP/6-311++G(d,p) empiricaldispersion=gd3bj scf=xqc pop=npa geom=c
 heck
 ----------------------------------------------------------------------

 ------------------------------------
 CID_61563154_JID_4796_Energie_kation
 ------------------------------------
 Structure from the checkpoint file:  "JID_4796.chk"
 Charge =  1 Multiplicity = 2

 SCF Done:  E(UB3LYP) =  -1032.91813203     A.U. after   23 cycles
 Normal termination of Gaussian 16 at Thu Dec 10 11:04:35 2020.
 Gaussian 16:  ES64L-G16RevA.03 25-Dec-2016

 ----------------------------------------------------------------------
 # B3LYP/6-311++G(d,p) empiricaldispersion=gd3bj scf=xqc pop=npa geom=c
 heck
 ----------------------------------------------------------------------

 -----------------------------------
 CID_61563154_JID_4796_Energie_anion
 -----------------------------------
 Structure from the checkpoint file:  "JID_4796.chk"
 Charge = -1 Multiplicity = 2

                         Standard orientation:
 ---------------------------------------------------------------------
 Center     Atomic      Atomic             Coordinates (Angstroms)
 Number     Number       Type             X           Y           Z
 ---------------------------------------------------------------------
      1          6           0        2.213877    2.567382   -0.252219
      2          6           0        2.341808    1.041264   -0.175126
      3          6           0        3.697553    0.636280    0.418165
      4          7           0        1.194139    0.513846    0.590659
      5          6           0        0.556966   -0.761869    0.240459
      6          6           0       -0.113241   -0.645025   -1.148711
      7          6           0       -1.117935    0.501283   -1.255637
      8         16           0       -2.478024    0.265119   -0.084999
      9          8           0       -3.292484    1.488677   -0.028818
     10          8           0       -3.101873   -1.039194   -0.383281
     11          6           0       -1.550756    0.088168    1.459810
     12          6           0       -0.514716   -1.028409    1.326969
     13          6           0        1.496700   -1.993656    0.242134
     14          8           0        2.460256   -2.005176   -0.804120
     15          1           0        2.237656    3.005279    0.753470
     16          1           0        1.266803    2.857332   -0.718149
     17          1           0        3.035754    3.005941   -0.829854
     18          1           0        2.281421    0.632757   -1.187330
     19          1           0        3.778464    0.982921    1.457702
     20          1           0        3.833520   -0.446639    0.391304
     21          1           0        4.520544    1.093489   -0.143222
     22          1           0        1.433214    0.508419    1.580620
     23          1           0       -0.623497   -1.587638   -1.378703
     24          1           0        0.653046   -0.496303   -1.916595
     25          1           0       -1.589598    0.548552   -2.241474
     26          1           0       -0.664104    1.464782   -1.017786
     27          1           0       -1.089092    1.056864    1.659399
     28          1           0       -2.300207   -0.131128    2.225790
     29          1           0       -1.032786   -1.967489    1.108808
     30          1           0       -0.015269   -1.156796    2.297454
     31          1           0        2.067545   -1.998032    1.176718
     32          1           0        0.892215   -2.913636    0.219366
     33          1           0        2.015056   -2.284469   -1.617452
 ---------------------------------------------------------------------

 SCF Done:  E(UB3LYP) =  -1033.22233975     A.U. after   27 cycles

 The electronic state is 2-A.
 Alpha  occ. eigenvalues --  -88.94281 -19.02668 -19.01717 -19.01404 -14.20088
 Alpha  occ. eigenvalues --  -10.12300 -10.11870 -10.11301 -10.11230 -10.10326
 Alpha  occ. eigenvalues --  -10.09238 -10.08760 -10.06292 -10.05695  -8.00834
 Alpha  occ. eigenvalues --   -5.97101  -5.96978  -5.96922  -1.00674  -0.92937
 Alpha  occ. eigenvalues --   -0.90392  -0.82274  -0.74108  -0.69015  -0.68124
 Alpha  occ. eigenvalues --   -0.63766  -0.58995  -0.58136  -0.55919  -0.51136
 Alpha  occ. eigenvalues --   -0.49193  -0.46361  -0.42569  -0.41256  -0.40418
 Alpha  occ. eigenvalues --   -0.38431  -0.37732  -0.36946  -0.36131  -0.34770
 Alpha  occ. eigenvalues --   -0.34256  -0.33538  -0.32769  -0.31939  -0.31051
 Alpha  occ. eigenvalues --   -0.29685  -0.29024  -0.28698  -0.28094  -0.26368
 Alpha  occ. eigenvalues --   -0.24848  -0.24423  -0.23990  -0.23408  -0.23200
 Alpha  occ. eigenvalues --   -0.22302  -0.20579  -0.19411  -0.18551  -0.12863
 Alpha  occ. eigenvalues --    0.03959
 Alpha virt. eigenvalues --    0.06107   0.06960   0.07865   0.08923   0.09068
 Alpha virt. eigenvalues --    0.09335   0.09857   0.10626   0.11414   0.11902
 Alpha virt. eigenvalues --    0.12366   0.12720   0.12984   0.13225   0.13815

  Beta  occ. eigenvalues --  -88.94281 -19.02621 -19.01716 -19.01396 -14.20066
  Beta  occ. eigenvalues --  -10.12300 -10.11839 -10.11285 -10.11217 -10.10316
  Beta  occ. eigenvalues --  -10.09215 -10.08715 -10.06272 -10.05670  -8.00833
  Beta  occ. eigenvalues --   -5.97100  -5.96977  -5.96922  -1.00666  -0.92839
  Beta  occ. eigenvalues --   -0.90382  -0.82239  -0.74076  -0.68977  -0.68088
  Beta  occ. eigenvalues --   -0.63712  -0.58943  -0.58051  -0.55853  -0.51090
  Beta  occ. eigenvalues --   -0.49138  -0.46304  -0.42485  -0.41220  -0.40400
  Beta  occ. eigenvalues --   -0.38385  -0.37707  -0.36896  -0.36088  -0.34725
  Beta  occ. eigenvalues --   -0.34225  -0.33503  -0.32739  -0.31893  -0.31007
  Beta  occ. eigenvalues --   -0.29651  -0.28995  -0.28653  -0.28054  -0.26337
  Beta  occ. eigenvalues --   -0.24816  -0.24390  -0.23943  -0.23379  -0.23165
  Beta  occ. eigenvalues --   -0.22295  -0.20563  -0.19360  -0.18529  -0.12835
  Beta virt. eigenvalues --    0.06408   0.07494   0.07619   0.08215   0.09412
  Beta virt. eigenvalues --    0.09485   0.09840   0.10169   0.10756   0.11679
  Beta virt. eigenvalues --    0.12188   0.12582   0.13020   0.13216   0.13544

 Mulliken charges and spin densities:
               1          2
     1  C    0.491330  -0.930787
     2  C   -0.405696   0.508486
     3  C    0.025434  -0.570267
     4  N    0.084161   0.055414
     5  C   -1.752929   1.596995
     6  C    0.930891  -1.311800
     7  C   -1.175383   0.290057
     8  S    1.115345  -0.527458
     9  O   -0.149790   0.017637
    10  O   -0.237299  -0.003948
    11  C   -0.865315   0.073235
    12  C   -0.100795  -0.388679
    13  C    2.057726  -2.327300
    14  O   -0.128810  -0.013853
    15  H   -0.056488   0.192095
    16  H   -0.092030   0.226126
    17  H   -0.019490   0.142534
    18  H    0.241606  -0.063810
    19  H   -0.231525   0.359609
    20  H    0.109723   0.071376
    21  H   -0.041937   0.174773
    22  H    0.247630   0.007882
    23  H   -0.107329   0.358032
    24  H   -0.452148   0.587316
    25  H   -0.039610   0.304790
    26  H    0.397526  -0.196578
    27  H    0.072636   0.157498
    28  H    0.024470   0.247549
    29  H    0.151479   0.059300
    30  H   -0.638751   0.825326
    31  H   -0.024310   0.228310
    32  H   -0.195548   0.352569
    33  H   -0.234775   0.497573
 Sum of Mulliken charges =  -1.00000   1.00000

 Dipole moment (field-independent basis, Debye):
    X=             -0.6155    Y=              2.3943    Z=              0.6382  Tot=              2.5532
 Quadrupole moment (field-independent basis, Debye-Ang):
   XX=           -162.9189   YY=           -138.5492   ZZ=           -135.5082
   XY=              4.9085   XZ=             -0.4693   YZ=             -5.8139

 Summary of Natural Population Analysis:

                                       Natural Population
                Natural  -----------------------------------------------
    Atom  No    Charge         Core      Valence    Rydberg      Total
 -----------------------------------------------------------------------
      C    1   -0.28103      0.99964     2.27628    0.00511     3.28103
      C    2   -0.01811      0.99961     2.00605    0.01244     3.01811
      C    3   -0.28991      0.99964     2.28541    0.00486     3.28991
      N    4   -0.36242      0.99971     2.84916    0.01355     3.86242
      C    5    0.05711      0.99954     1.92661    0.01674     2.94289
      C    6   -0.21282      0.99956     2.20017    0.01308     3.21282
      C    7   -0.28809      0.99958     2.27628    0.01224     3.28809
      S    8    1.02122      4.99924     1.88624    0.09329     6.97878
      O    9   -0.47140      0.99991     3.46630    0.00518     4.47140
      O   10   -0.47469      0.99991     3.46947    0.00531     4.47469
      C   11   -0.28887      0.99958     2.27673    0.01256     3.28887
      C   12   -0.20494      0.99957     2.19365    0.01172     3.20494
      C   13   -0.01302      0.99951     1.99921    0.01430     3.01302
      O   14   -0.37079      0.99990     3.36397    0.00692     4.37079
      H   15    0.09633      0.00000     0.40263    0.00104     0.40367
      H   16    0.09764      0.00000     0.40128    0.00109     0.40236
      H   17    0.09604      0.00000     0.40309    0.00087     0.40396
      H   18    0.09690      0.00000     0.40070    0.00240     0.40310
      H   19    0.09265      0.00000     0.40613    0.00122     0.40735
      H   20    0.11029      0.00000     0.38816    0.00155     0.38971
      H   21    0.09743      0.00000     0.40163    0.00093     0.40257
      H   22    0.17734      0.00000     0.31909    0.00356     0.32266
      H   23    0.11370      0.00000     0.38470    0.00160     0.38630
      H   24    0.11256      0.00000     0.38520    0.00225     0.38744
      H   25    0.11797      0.00000     0.38094    0.00108     0.38203
      H   26    0.11925      0.00000     0.37913    0.00161     0.38075
      H   27    0.12116      0.00000     0.37739    0.00145     0.37884
      H   28    0.11765      0.00000     0.38117    0.00119     0.38235
      H   29    0.11282      0.00000     0.38576    0.00142     0.38718
      H   30    0.10979      0.00000     0.38798    0.00223     0.39021
      H   31    0.08976      0.00000     0.40872    0.00152     0.41024
      H   32    0.08339      0.00000     0.41509    0.00152     0.41661
      H   33    0.23507      0.00000     0.25725    0.00768     0.26493
 =======================================================================
   * Total *   -0.00000     17.99490    41.74159    0.26351    60.00000

 Normal termination of Gaussian 16 at Thu Dec 10 11:17:36 2020.
