 Gaussian 16, Revision A.03,

 -----------------------------------------------------------
 # opt freq B3LYP/6-31G(d) empiricaldispersion=gd3bj scf=xqc
 -----------------------------------------------------------

 ------------------------------
 CID_64286731_JID_8389_neutraal
 ------------------------------
 Symbolic Z-matrix:
 Charge =  0 Multiplicity = 1

 SCF Done:  E(RB3LYP) =  -892.052148604     A.U. after   16 cycles
 SCF Done:  E(RB3LYP) =  -892.058410430     A.U. after   15 cycles
 SCF Done:  E(RB3LYP) =  -892.062108923     A.U. after   15 cycles
 SCF Done:  E(RB3LYP) =  -892.062109452     A.U. after   17 cycles
 SCF Done:  E(RB3LYP) =  -892.066443066     A.U. after   14 cycles
 SCF Done:  E(RB3LYP) =  -892.068015477     A.U. after   15 cycles
 SCF Done:  E(RB3LYP) =  -892.070068782     A.U. after   14 cycles
 SCF Done:  E(RB3LYP) =  -892.071488886     A.U. after   15 cycles
 SCF Done:  E(RB3LYP) =  -892.072170787     A.U. after   15 cycles
 SCF Done:  E(RB3LYP) =  -892.072345516     A.U. after   14 cycles
 SCF Done:  E(RB3LYP) =  -892.075476954     A.U. after   13 cycles
 SCF Done:  E(RB3LYP) =  -892.075684884     A.U. after   12 cycles
 SCF Done:  E(RB3LYP) =  -892.075714638     A.U. after   11 cycles
 SCF Done:  E(RB3LYP) =  -892.075716851     A.U. after   10 cycles
 SCF Done:  E(RB3LYP) =  -892.075717405     A.U. after    9 cycles
 SCF Done:  E(RB3LYP) =  -892.075717465     A.U. after    8 cycles
 Optimization completed.
    -- Stationary point found.
 Normal termination of Gaussian 16 at Fri Dec 11 20:38:29 2020.

 --------------------------------------------------------------------
 #N Geom=AllCheck Guess=TCheck SCRF=Check GenChk RB3LYP/6-31G(d) Freq
 --------------------------------------------------------------------

 Structure from the checkpoint file:  "JID_8389.chk"
 ------------------------------
 CID_64286731_JID_8389_neutraal
 ------------------------------
 Charge =  0 Multiplicity = 1

 SCF Done:  E(RB3LYP) =  -892.075717465     A.U. after    1 cycles

  Exact polarizability: 228.350   6.605 159.370  25.445  -7.208  86.258
 Approx polarizability: 361.697   6.052 267.417  63.536 -15.911 137.799

                      1                      2                      3
                      A                      A                      A
 Frequencies --     25.8337                32.0995                50.9603
 Red. masses --      5.7519                 6.3594                 5.0635
 Frc consts  --      0.0023                 0.0039                 0.0077
 IR Inten    --      0.5057                 2.1718                 1.2552

                      4                      5                      6
                      A                      A                      A
 Frequencies --     66.1183               100.2633               105.8433
 Red. masses --     11.9060                 4.2032                 6.0449
 Frc consts  --      0.0307                 0.0249                 0.0399
 IR Inten    --      0.2131                 2.1917                 4.0098

                      7                      8                      9
                      A                      A                      A
 Frequencies --    117.8179               139.4560               150.2854
 Red. masses --      3.0972                 4.5712                 5.3424
 Frc consts  --      0.0253                 0.0524                 0.0711
 IR Inten    --      6.5197                12.0477                 2.5782

                     10                     11                     12
                      A                      A                      A
 Frequencies --    164.7857               222.5293               230.5439
 Red. masses --      3.5061                 2.4457                 2.5476
 Frc consts  --      0.0561                 0.0714                 0.0798
 IR Inten    --      0.2341                 2.1329                 3.6634

                     13                     14                     15
                      A                      A                      A
 Frequencies --    264.4301               301.9948               323.2849
 Red. masses --      3.0112                 6.8435                 3.4578
 Frc consts  --      0.1241                 0.3677                 0.2129
 IR Inten    --      2.8052                 2.4600                 8.5383

                     16                     17                     18
                      A                      A                      A
 Frequencies --    368.5267               371.9269               387.2277
 Red. masses --      1.8185                 3.0604                 2.1609
 Frc consts  --      0.1455                 0.2494                 0.1909
 IR Inten    --     56.4951                20.3566               101.0913

                     19                     20                     21
                      A                      A                      A
 Frequencies --    406.6237               433.6350               441.2370
 Red. masses --      7.4840                 4.2860                 5.8557
 Frc consts  --      0.7291                 0.4748                 0.6717
 IR Inten    --      9.0688                 0.1067                 6.2768

                     22                     23                     24
                      A                      A                      A
 Frequencies --    446.8061               475.0304               486.1884
 Red. masses --      4.2380                 2.6147                 5.1097
 Frc consts  --      0.4985                 0.3476                 0.7116
 IR Inten    --     23.4814                 2.3192                 0.5729

                     25                     26                     27
                      A                      A                      A
 Frequencies --    542.4730               585.0150               622.4997
 Red. masses --      7.8564                 3.9619                 4.4796
 Frc consts  --      1.3622                 0.7989                 1.0228
 IR Inten    --      0.5257                20.8170                 0.5811

                     28                     29                     30
                      A                      A                      A
 Frequencies --    670.3539               690.9794               708.3617
 Red. masses --      2.7443                 5.9011                 4.6521
 Frc consts  --      0.7266                 1.6600                 1.3753
 IR Inten    --      5.0777                10.2777                 1.5342

                     31                     32                     33
                      A                      A                      A
 Frequencies --    730.7005               760.1165               765.0340
 Red. masses --      1.6417                 8.2627                 2.3753
 Frc consts  --      0.5165                 2.8128                 0.8191
 IR Inten    --     78.4501                19.5140                43.1918

                     34                     35                     36
                      A                      A                      A
 Frequencies --    813.9930               827.5936               840.8908
 Red. masses --      4.0133                 1.6451                 3.7847
 Frc consts  --      1.5667                 0.6639                 1.5767
 IR Inten    --     12.7535                12.1982                 3.5126

                     37                     38                     39
                      A                      A                      A
 Frequencies --    944.3835               948.7187               961.5849
 Red. masses --      6.4138                 1.3938                 2.1172
 Frc consts  --      3.3703                 0.7392                 1.1534
 IR Inten    --     20.8080                 9.4241                 0.4361

                     40                     41                     42
                      A                      A                      A
 Frequencies --    977.2170              1000.6114              1025.8092
 Red. masses --      1.3027                 4.0917                 1.7376
 Frc consts  --      0.7329                 2.4137                 1.0773
 IR Inten    --      0.4586                27.0011                 2.3952

                     43                     44                     45
                      A                      A                      A
 Frequencies --   1077.5401              1104.1661              1125.7704
 Red. masses --      3.0807                 2.7408                 2.5956
 Frc consts  --      2.1075                 1.9688                 1.9381
 IR Inten    --     48.5905                10.5174                31.3255

                     46                     47                     48
                      A                      A                      A
 Frequencies --   1139.8942              1168.6529              1191.4375
 Red. masses --      2.6513                 3.7385                 1.3528
 Frc consts  --      2.0297                 3.0083                 1.1314
 IR Inten    --     40.4183               117.4659                 1.8812

                     49                     50                     51
                      A                      A                      A
 Frequencies --   1201.2929              1228.0916              1233.1786
 Red. masses --      1.4945                 2.0315                 1.6000
 Frc consts  --      1.2707                 1.8052                 1.4336
 IR Inten    --     17.9818                61.0606                17.2466

                     52                     53                     54
                      A                      A                      A
 Frequencies --   1256.4364              1286.2573              1293.0367
 Red. masses --      1.3126                 1.8601                 1.3176
 Frc consts  --      1.2208                 1.8132                 1.2979
 IR Inten    --      8.0304                67.5678                52.5542

                     55                     56                     57
                      A                      A                      A
 Frequencies --   1303.3637              1326.0051              1355.9166
 Red. masses --      1.6803                 2.3208                 2.2627
 Frc consts  --      1.6818                 2.4043                 2.4510
 IR Inten    --     89.1532               142.4446                20.5225

                     58                     59                     60
                      A                      A                      A
 Frequencies --   1365.3480              1399.2506              1416.0012
 Red. masses --      1.5832                 1.5461                 2.3766
 Frc consts  --      1.7389                 1.7835                 2.8075
 IR Inten    --      2.0639               114.5154                52.1035

                     61                     62                     63
                      A                      A                      A
 Frequencies --   1430.2555              1451.7730              1466.0435
 Red. masses --      1.2186                 1.4067                 3.7908
 Frc consts  --      1.4687                 1.7468                 4.8004
 IR Inten    --     25.2728                 4.0292                61.0194

                     64                     65                     66
                      A                      A                      A
 Frequencies --   1497.1847              1504.2136              1518.2076
 Red. masses --      2.1376                 1.2218                 1.0470
 Frc consts  --      2.8231                 1.6288                 1.4219
 IR Inten    --     29.2834                 7.2852                 7.2270

                     67                     68                     69
                      A                      A                      A
 Frequencies --   1521.6326              1529.1896              1551.4512
 Red. masses --      1.1611                 1.0609                 1.0924
 Frc consts  --      1.5840                 1.4617                 1.5492
 IR Inten    --     15.0830                 9.3975                 5.3740

                     70                     71                     72
                      A                      A                      A
 Frequencies --   1574.2042              1605.7388              1631.6424
 Red. masses --      4.4553                 7.7078                 2.6648
 Frc consts  --      6.5050                11.7094                 4.1799
 IR Inten    --     75.5294               328.2887                25.6435

                     73                     74                     75
                      A                      A                      A
 Frequencies --   1687.3377              2348.9475              2968.0061
 Red. masses --      6.5202                12.6733                 1.0665
 Frc consts  --     10.9375                41.1991                 5.5352
 IR Inten    --    426.7118                70.6895                50.0255

                     76                     77                     78
                      A                      A                      A
 Frequencies --   3011.1277              3037.1341              3066.3251
 Red. masses --      1.0370                 1.0925                 1.1060
 Frc consts  --      5.5398                 5.9376                 6.1266
 IR Inten    --     47.1763                61.7350                50.1443

                     79                     80                     81
                      A                      A                      A
 Frequencies --   3090.7873              3103.1280              3151.3261
 Red. masses --      1.0802                 1.0679                 1.0989
 Frc consts  --      6.0796                 6.0589                 6.4300
 IR Inten    --     19.1510                57.4391                28.6176

                     82                     83                     84
                      A                      A                      A
 Frequencies --   3151.9641              3219.3743              3250.7126
 Red. masses --      1.1057                 1.0907                 1.0919
 Frc consts  --      6.4721                 6.6606                 6.7979
 IR Inten    --      6.2277                 2.0309                 0.7298

                     85                     86                     87
                      A                      A                      A
 Frequencies --   3262.5048              3536.3315              3723.4453
 Red. masses --      1.0914                 1.0763                 1.0659
 Frc consts  --      6.8447                 7.9305                 8.7066
 IR Inten    --      7.1284               118.8523                10.0501

 - Thermochemistry -
 -------------------
 Temperature   298.150 Kelvin.  Pressure   1.00000 Atm.
 Atom     1 has atomic number  6 and mass  12.00000

 Molecular mass:   251.09061 amu.
 Principal axes and moments of inertia in atomic units:
                           1         2         3
     Eigenvalues --  2701.812116776.062488715.98356
           X            0.99996   0.00568  -0.00713
           Y           -0.00579   0.99986  -0.01566
           Z            0.00704   0.01570   0.99985
 This molecule is an asymmetric top.
 Rotational symmetry number  1.
 Warning -- assumption of classical behavior for rotation
           may cause significant error
 Rotational temperatures (Kelvin)      0.03206     0.01278     0.00994
 Rotational constants (GHZ):           0.66797     0.26634     0.20706
 Zero-point vibrational energy     639352.6 (Joules/Mol)
                                  152.80895 (Kcal/Mol)
 Warning -- explicit consideration of  26 degrees of freedom as
           vibrations may cause significant error
 Vibrational temperatures:     37.17    46.18    73.32    95.13   144.26
          (Kelvin)            152.28   169.51   200.65   216.23   237.09
                              320.17   331.70   380.46   434.50   465.13
                              530.23   535.12   557.13   585.04   623.90
                              634.84   642.85   683.46   699.52   780.50
                              841.71   895.64   964.49   994.17  1019.17
                             1051.32  1093.64  1100.71  1171.15  1190.72
                             1209.85  1358.76  1364.99  1383.51  1406.00
                             1439.66  1475.91  1550.34  1588.65  1619.73
                             1640.05  1681.43  1714.21  1728.39  1766.95
                             1774.27  1807.73  1850.64  1860.39  1875.25
                             1907.83  1950.86  1964.43  2013.21  2037.31
                             2057.82  2088.78  2109.31  2154.11  2164.23
                             2184.36  2189.29  2200.16  2232.19  2264.93
                             2310.30  2347.57  2427.70  3379.61  4270.30
                             4332.34  4369.76  4411.76  4446.95  4464.71
                             4534.06  4534.97  4631.96  4677.05  4694.02
                             5087.99  5357.21

 Zero-point correction=                           0.243517 (Hartree/Particle)
 Thermal correction to Energy=                    0.260663
 Thermal correction to Enthalpy=                  0.261607
 Thermal correction to Gibbs Free Energy=         0.197015
 Sum of electronic and zero-point Energies=           -891.832201
 Sum of electronic and thermal Energies=              -891.815055
 Sum of electronic and thermal Enthalpies=            -891.814111
 Sum of electronic and thermal Free Energies=         -891.878702

                     E (Thermal)             CV                S
                      KCal/Mol        Cal/Mol-Kelvin    Cal/Mol-Kelvin
 Total                  163.568             63.186            135.945
 Electronic               0.000              0.000              0.000
 Translational            0.889              2.981             42.462
 Rotational               0.889              2.981             33.434
 Vibrational            161.791             57.225             60.049
 Vibration     1          0.593              1.985              6.126
 Vibration     2          0.594              1.983              5.695
 Vibration     3          0.595              1.977              4.780
 Vibration     4          0.598              1.970              4.266
 Vibration     5          0.604              1.949              3.449
 Vibration     6          0.605              1.945              3.344
 Vibration     7          0.608              1.935              3.136
 Vibration     8          0.615              1.914              2.811
 Vibration     9          0.618              1.902              2.669
 Vibration    10          0.623              1.886              2.494
 Vibration    11          0.648              1.807              1.938
 Vibration    12          0.652              1.794              1.875
 Vibration    13          0.671              1.738              1.632
 Vibration    14          0.694              1.670              1.406
 Vibration    15          0.708              1.629              1.293
 Vibration    16          0.741              1.537              1.086
 Vibration    17          0.744              1.530              1.072
 Vibration    18          0.756              1.497              1.011
 Vibration    19          0.771              1.456              0.939
 Vibration    20          0.794              1.397              0.847
 Vibration    21          0.801              1.380              0.823
 Vibration    22          0.806              1.368              0.805
 Vibration    23          0.832              1.305              0.724
 Vibration    24          0.842              1.281              0.694
 Vibration    25          0.898              1.156              0.560
 Vibration    26          0.942              1.064              0.476

 Optimization completed.
    -- Stationary point found.
 Normal termination of Gaussian 16 at Fri Dec 11 20:50:21 2020.

 ----------------------------------------------------------------------
 # B3LYP/6-311++G(d,p) empiricaldispersion=gd3bj scf=xqc pop=npa geom=c
 heck
 ----------------------------------------------------------------------

 --------------------------------------
 CID_64286731_JID_8389_Energie_neutraal
 --------------------------------------
 Structure from the checkpoint file:  "JID_8389.chk"
 Charge =  0 Multiplicity = 1

 SCF Done:  E(RB3LYP) =  -892.339290302     A.U. after   16 cycles
 Normal termination of Gaussian 16 at Fri Dec 11 20:55:56 2020.

 ----------------------------------------------------------------------
 # B3LYP/6-311++G(d,p) empiricaldispersion=gd3bj scf=xqc pop=npa geom=c
 heck
 ----------------------------------------------------------------------

 ------------------------------------
 CID_64286731_JID_8389_Energie_kation
 ------------------------------------
 Structure from the checkpoint file:  "JID_8389.chk"
 Charge =  1 Multiplicity = 2

 SCF Done:  E(UB3LYP) =  -892.031977372     A.U. after   28 cycles
 Normal termination of Gaussian 16 at Fri Dec 11 21:09:59 2020.
 Gaussian 16:  ES64L-G16RevA.03 25-Dec-2016

 ----------------------------------------------------------------------
 # B3LYP/6-311++G(d,p) empiricaldispersion=gd3bj scf=xqc pop=npa geom=c
 heck
 ----------------------------------------------------------------------

 -----------------------------------
 CID_64286731_JID_8389_Energie_anion
 -----------------------------------
 Structure from the checkpoint file:  "JID_8389.chk"
 Charge = -1 Multiplicity = 2

                         Standard orientation:
 ---------------------------------------------------------------------
 Center     Atomic      Atomic             Coordinates (Angstroms)
 Number     Number       Type             X           Y           Z
 ---------------------------------------------------------------------
      1          6           0        3.988978    1.491866   -0.768970
      2          8           0        3.661943    0.286553   -0.096722
      3          6           0        2.961036   -0.623263   -0.918263
      4          6           0        2.479396   -1.793929   -0.057449
      5          6           0        1.847181   -1.290586    1.253629
      6          7           0        0.927654   -0.182984    1.048657
      7          6           0       -0.356982   -0.262644    0.641136
      8          6           0       -1.120697    0.889487    0.259921
      9          6           0       -2.467299    0.789298   -0.096517
     10          6           0       -3.109876   -0.442742   -0.111933
     11          6           0       -2.368253   -1.598297    0.229643
     12          6           0       -1.043713   -1.511458    0.588313
     13          6           0       -4.485531   -0.544737   -0.482215
     14          7           0       -5.605490   -0.642030   -0.782496
     15          7           0       -0.539456    2.216460    0.187758
     16          8           0        0.677408    2.356035    0.426893
     17          8           0       -1.263185    3.160485   -0.122990
     18          8           0        1.605877   -2.625889   -0.811845
     19          1           0        4.543991    2.110709   -0.060748
     20          1           0        3.081311    2.028116   -1.081593
     21          1           0        4.616838    1.300428   -1.651730
     22          1           0        2.080648   -0.129653   -1.367610
     23          1           0        3.589489   -0.991670   -1.742673
     24          1           0        3.326291   -2.434511    0.209280
     25          1           0        1.352822   -2.119852    1.765804
     26          1           0        2.639528   -0.917663    1.905256
     27          1           0        1.343514    0.739204    0.968279
     28          1           0       -2.992362    1.694909   -0.369356
     29          1           0       -2.854882   -2.567737    0.204587
     30          1           0       -0.498572   -2.416551    0.820798
     31          1           0        0.890650   -2.071284   -1.164180
 ---------------------------------------------------------------------

 SCF Done:  E(UB3LYP) =  -892.395174463     A.U. after   22 cycles

 The electronic state is 2-A.
 Alpha  occ. eigenvalues --  -19.04895 -19.04242 -18.95996 -18.95709 -14.33529
 Alpha  occ. eigenvalues --  -14.21268 -14.19189 -10.14169 -10.13616 -10.12902
 Alpha  occ. eigenvalues --  -10.11619 -10.11189 -10.09472 -10.08412 -10.08114
 Alpha  occ. eigenvalues --  -10.06326 -10.05658 -10.05626  -1.03807  -0.96316
 Alpha  occ. eigenvalues --   -0.94469  -0.86664  -0.83656  -0.79112  -0.74429
 Alpha  occ. eigenvalues --   -0.68977  -0.66504  -0.64571  -0.61626  -0.57651
 Alpha  occ. eigenvalues --   -0.55467  -0.53232  -0.50734  -0.47731  -0.43667
 Alpha  occ. eigenvalues --   -0.42305  -0.41639  -0.41398  -0.40221  -0.38831
 Alpha  occ. eigenvalues --   -0.36766  -0.36496  -0.36309  -0.35493  -0.33896
 Alpha  occ. eigenvalues --   -0.32832  -0.31837  -0.31541  -0.30256  -0.29635
 Alpha  occ. eigenvalues --   -0.28182  -0.28082  -0.26104  -0.25368  -0.24820
 Alpha  occ. eigenvalues --   -0.24699  -0.24115  -0.21848  -0.20924  -0.18686
 Alpha  occ. eigenvalues --   -0.18440  -0.15558  -0.14818  -0.14079  -0.11773
 Alpha  occ. eigenvalues --   -0.09747   0.00853
 Alpha virt. eigenvalues --    0.06552   0.07709   0.08141   0.08632   0.08985
 Alpha virt. eigenvalues --    0.10336   0.10564   0.10834   0.11571   0.11863
 Alpha virt. eigenvalues --    0.12763   0.13367   0.13578   0.14145   0.14324

  Beta  occ. eigenvalues --  -19.04894 -19.04235 -18.95492 -18.95205 -14.32819
  Beta  occ. eigenvalues --  -14.21202 -14.19232 -10.14166 -10.13616 -10.12900
  Beta  occ. eigenvalues --  -10.11527 -10.11191 -10.09453 -10.08431 -10.08219
  Beta  occ. eigenvalues --  -10.06057 -10.05616 -10.05401  -1.02671  -0.96313
  Beta  occ. eigenvalues --   -0.94454  -0.85777  -0.83436  -0.79157  -0.74184
  Beta  occ. eigenvalues --   -0.68924  -0.66060  -0.64367  -0.61565  -0.57600
  Beta  occ. eigenvalues --   -0.54581  -0.53142  -0.50499  -0.47483  -0.43605
  Beta  occ. eigenvalues --   -0.42159  -0.41579  -0.41040  -0.40172  -0.38675
  Beta  occ. eigenvalues --   -0.36692  -0.35977  -0.35318  -0.33619  -0.33418
  Beta  occ. eigenvalues --   -0.32660  -0.31612  -0.31378  -0.30105  -0.29462
  Beta  occ. eigenvalues --   -0.28098  -0.27550  -0.26040  -0.25365  -0.24782
  Beta  occ. eigenvalues --   -0.24509  -0.24044  -0.21820  -0.20765  -0.18613
  Beta  occ. eigenvalues --   -0.18077  -0.13935  -0.13617  -0.11763  -0.11272
  Beta  occ. eigenvalues --   -0.09230
  Beta virt. eigenvalues --    0.06541   0.07504   0.07983   0.08658   0.08743
  Beta virt. eigenvalues --    0.09029   0.10448   0.10652   0.10868   0.11848
  Beta virt. eigenvalues --    0.12636   0.13088   0.13471   0.14026   0.14333

 Mulliken charges and spin densities:
               1          2
     1  C   -0.275465  -0.009242
     2  O   -0.154573   0.001524
     3  C   -0.459157  -0.013586
     4  C   -0.082825   0.007244
     5  C   -0.384028  -0.001412
     6  N   -0.073122   0.023861
     7  C   -0.062143   0.072641
     8  C   -0.117323  -0.080290
     9  C   -0.099028   0.258560
    10  C    1.892693  -0.091166
    11  C   -1.143148   0.202378
    12  C    0.209096   0.010876
    13  C   -1.537758   0.028977
    14  N   -0.248203  -0.022533
    15  N   -0.333694   0.236781
    16  O   -0.209377   0.188674
    17  O   -0.143982   0.195787
    18  O   -0.200958   0.001955
    19  H    0.131322  -0.000979
    20  H    0.175945   0.012802
    21  H    0.102781   0.001182
    22  H    0.167212   0.008024
    23  H    0.143793  -0.000633
    24  H    0.177425   0.002427
    25  H    0.188942   0.003153
    26  H    0.179954  -0.000069
    27  H    0.368380  -0.005226
    28  H    0.259920  -0.014390
    29  H    0.158721  -0.016533
    30  H    0.118408  -0.000974
    31  H    0.250193   0.000187
 Sum of Mulliken charges =  -1.00000   1.00000

 Dipole moment (field-independent basis, Debye):
    X=              9.9085    Y=             -5.2929    Z=              0.2997  Tot=             11.2376
 Quadrupole moment (field-independent basis, Debye-Ang):
   XX=           -169.8011   YY=           -145.1038   ZZ=           -112.1795
   XY=              1.7044   XZ=             -8.6858   YZ=             -5.0119

 Summary of Natural Population Analysis:

                                       Natural Population
                Natural  -----------------------------------------------
    Atom  No    Charge         Core      Valence    Rydberg      Total
 -----------------------------------------------------------------------
      C    1   -0.10073      0.99963     2.09265    0.00846     3.10073
      O    2   -0.30250      0.99988     3.29213    0.01049     4.30250
      C    3   -0.02166      0.99958     2.01081    0.01127     3.02166
      C    4    0.05433      0.99957     1.93361    0.01249     2.94567
      C    5   -0.10000      0.99961     2.09027    0.01012     3.10000
      N    6   -0.30562      0.99964     2.79381    0.01216     3.80562
      C    7    0.12226      0.99950     1.86668    0.01155     2.87774
      C    8    0.00985      0.99941     1.98003    0.01071     2.99015
      C    9   -0.00905      0.99951     2.00072    0.00882     3.00905
      C   10   -0.14943      0.99942     2.14026    0.00975     3.14943
      C   11   -0.01378      0.99955     2.00610    0.00813     3.01378
      C   12   -0.15331      0.99955     2.14551    0.00825     3.15331
      C   13    0.16785      0.99963     1.81464    0.01787     2.83215
      N   14   -0.21855      0.99979     2.70745    0.01131     3.71855
      N   15    0.31726      0.99971     2.15801    0.02502     3.18274
      O   16   -0.22073      0.99989     3.21158    0.00925     4.22073
      O   17   -0.18171      0.99990     3.17432    0.00749     4.18171
      O   18   -0.37170      0.99990     3.36457    0.00723     4.37170
      H   19    0.08926      0.00000     0.40997    0.00077     0.41074
      H   20    0.09522      0.00000     0.40343    0.00135     0.40478
      H   21    0.07135      0.00000     0.42738    0.00127     0.42865
      H   22    0.08570      0.00000     0.41276    0.00154     0.41430
      H   23    0.08061      0.00000     0.41793    0.00146     0.41939
      H   24    0.08231      0.00000     0.41567    0.00203     0.41769
      H   25    0.09782      0.00000     0.40097    0.00122     0.40218
      H   26    0.10550      0.00000     0.39361    0.00089     0.39450
      H   27    0.21870      0.00000     0.27908    0.00222     0.28130
      H   28    0.11988      0.00000     0.37895    0.00117     0.38012
      H   29    0.09533      0.00000     0.40375    0.00092     0.40467
      H   30    0.10177      0.00000     0.39665    0.00157     0.39823
      H   31    0.23377      0.00000     0.26361    0.00261     0.26623
 =======================================================================
   * Total *   -0.00000     17.99365    47.78693    0.21942    66.00000

 Normal termination of Gaussian 16 at Fri Dec 11 21:21:10 2020.
