 Gaussian 16, Revision A.03,

 -----------------------------------------------------------
 # opt freq B3LYP/6-31G(d) empiricaldispersion=gd3bj scf=xqc
 -----------------------------------------------------------

 ------------------------------
 CID_129939169_JID_958_neutraal
 ------------------------------
 Symbolic Z-matrix:
 Charge =  0 Multiplicity = 1

 SCF Done:  E(RB3LYP) =  -832.418843554     A.U. after   16 cycles
 SCF Done:  E(RB3LYP) =  -832.422529981     A.U. after   13 cycles
 SCF Done:  E(RB3LYP) =  -832.423422089     A.U. after   13 cycles
 SCF Done:  E(RB3LYP) =  -832.424020430     A.U. after   13 cycles
 SCF Done:  E(RB3LYP) =  -832.424531024     A.U. after   12 cycles
 SCF Done:  E(RB3LYP) =  -832.424976124     A.U. after   14 cycles
 SCF Done:  E(RB3LYP) =  -832.425123633     A.U. after   13 cycles
 SCF Done:  E(RB3LYP) =  -832.425281960     A.U. after   13 cycles
 SCF Done:  E(RB3LYP) =  -832.425488988     A.U. after   12 cycles
 SCF Done:  E(RB3LYP) =  -832.425678404     A.U. after   13 cycles
 SCF Done:  E(RB3LYP) =  -832.426210891     A.U. after   12 cycles
 SCF Done:  E(RB3LYP) =  -832.426216890     A.U. after   11 cycles
 SCF Done:  E(RB3LYP) =  -832.426219202     A.U. after   10 cycles
 SCF Done:  E(RB3LYP) =  -832.426219868     A.U. after   10 cycles
 SCF Done:  E(RB3LYP) =  -832.426219972     A.U. after    8 cycles
 SCF Done:  E(RB3LYP) =  -832.426219978     A.U. after    7 cycles
 Optimization completed.
    -- Stationary point found.
 Normal termination of Gaussian 16 at Tue Dec  8 13:44:51 2020.

 --------------------------------------------------------------------
 #N Geom=AllCheck Guess=TCheck SCRF=Check GenChk RB3LYP/6-31G(d) Freq
 --------------------------------------------------------------------

 Structure from the checkpoint file:  "JID_958.chk"
 ------------------------------
 CID_129939169_JID_958_neutraal
 ------------------------------
 Charge =  0 Multiplicity = 1

 SCF Done:  E(RB3LYP) =  -832.426219978     A.U. after    1 cycles

  Exact polarizability: 102.399  -1.521  90.687  -9.273   2.722  64.542
 Approx polarizability: 175.029 -12.965 164.547 -31.299   9.962 105.189

                      1                      2                      3
                      A                      A                      A
 Frequencies --     27.2692                59.6421                80.7564
 Red. masses --      5.6942                 4.7930                 1.0364
 Frc consts  --      0.0025                 0.0100                 0.0040
 IR Inten    --      8.5907                 0.3850                 0.0169

                      4                      5                      6
                      A                      A                      A
 Frequencies --    107.3838               198.1811               239.5054
 Red. masses --      7.5132                 4.4243                 2.3344
 Frc consts  --      0.0510                 0.1024                 0.0789
 IR Inten    --      6.5798                 1.4787                 0.3129

                      7                      8                      9
                      A                      A                      A
 Frequencies --    307.6266               332.5548               337.2233
 Red. masses --      1.3592                 4.6734                 3.3318
 Frc consts  --      0.0758                 0.3045                 0.2232
 IR Inten    --    148.2753                 5.8154                29.9777

                     10                     11                     12
                      A                      A                      A
 Frequencies --    401.2288               480.5981               498.6759
 Red. masses --      4.3834                11.6508                 1.6105
 Frc consts  --      0.4158                 1.5855                 0.2360
 IR Inten    --      6.9465                35.8666                 5.5602

                     13                     14                     15
                      A                      A                      A
 Frequencies --    527.4754               578.3030               601.4491
 Red. masses --      3.6252                 5.2510                 6.1786
 Frc consts  --      0.5943                 1.0347                 1.3169
 IR Inten    --      4.0865                14.8869                 0.2834

                     16                     17                     18
                      A                      A                      A
 Frequencies --    668.0425               674.5105               751.1562
 Red. masses --      1.5794                 5.2229                 5.5209
 Frc consts  --      0.4153                 1.4000                 1.8354
 IR Inten    --     24.1888                 0.9672                 8.6300

                     19                     20                     21
                      A                      A                      A
 Frequencies --    819.5923               850.0366               913.0405
 Red. masses --      5.1413                 3.8023                 3.3803
 Frc consts  --      2.0348                 1.6187                 1.6603
 IR Inten    --     14.3136                 9.1628                10.6922

                     22                     23                     24
                      A                      A                      A
 Frequencies --    994.2822              1056.1398              1078.5685
 Red. masses --      1.8536                 2.9298                 1.4518
 Frc consts  --      1.0797                 1.9255                 0.9950
 IR Inten    --      9.0690                12.6308                 1.5664

                     25                     26                     27
                      A                      A                      A
 Frequencies --   1106.8188              1198.8763              1255.9797
 Red. masses --      1.8231                 3.3208                 1.2688
 Frc consts  --      1.3159                 2.8122                 1.1793
 IR Inten    --      1.4007                 2.2737                 1.4606

                     28                     29                     30
                      A                      A                      A
 Frequencies --   1313.8486              1342.9838              1372.5951
 Red. masses --      1.7362                 4.1087                 3.0030
 Frc consts  --      1.7658                 4.3661                 3.3334
 IR Inten    --     23.8489                73.5746                51.2607

                     31                     32                     33
                      A                      A                      A
 Frequencies --   1385.7213              1445.5500              1490.0230
 Red. masses --      6.7455                 1.3666                 1.1076
 Frc consts  --      7.6316                 1.6825                 1.4488
 IR Inten    --     76.8033                 2.9341                 5.2943

                     34                     35                     36
                      A                      A                      A
 Frequencies --   1514.9127              1519.4302              1558.2707
 Red. masses --      1.0489                 1.1446                 5.3907
 Frc consts  --      1.4183                 1.5569                 7.7123
 IR Inten    --      9.3042                11.3520                 7.7828

                     37                     38                     39
                      A                      A                      A
 Frequencies --   1638.0497              1820.2146              3055.1955
 Red. masses --      1.2565                 9.5192                 1.0387
 Frc consts  --      1.9864                18.5822                 5.7122
 IR Inten    --    120.5355               379.5161                15.5181

                     40                     41                     42
                      A                      A                      A
 Frequencies --   3074.5732              3108.7055              3129.7373
 Red. masses --      1.0654                 1.1011                 1.0983
 Frc consts  --      5.9339                 6.2694                 6.3382
 IR Inten    --      6.3351                 9.8610                 1.5208

                     43                     44                     45
                      A                      A                      A
 Frequencies --   3159.4763              3592.2088              3715.8342
 Red. masses --      1.0999                 1.0449                 1.1051
 Frc consts  --      6.4692                 7.9439                 8.9897
 IR Inten    --      4.3497                28.5015                56.8310

 - Thermochemistry -
 -------------------
 Temperature   298.150 Kelvin.  Pressure   1.00000 Atm.
 Atom     1 has atomic number  6 and mass  12.00000

 Molecular mass:   157.03098 amu.
 Principal axes and moments of inertia in atomic units:
                           1         2         3
     Eigenvalues --   905.953352196.691792668.97591
           X            0.99993  -0.00967   0.00613
           Y            0.00973   0.99990  -0.01050
           Z           -0.00603   0.01056   0.99993
 This molecule is an asymmetric top.
 Rotational symmetry number  1.
 Warning -- assumption of classical behavior for rotation
           may cause significant error
 Rotational temperatures (Kelvin)      0.09561     0.03943     0.03245
 Rotational constants (GHZ):           1.99209     0.82157     0.67619
 Zero-point vibrational energy     331259.4 (Joules/Mol)
                                   79.17290 (Kcal/Mol)
 Warning -- explicit consideration of  15 degrees of freedom as
           vibrations may cause significant error
 Vibrational temperatures:     39.23    85.81   116.19   154.50   285.14
          (Kelvin)            344.59   442.61   478.47   485.19   577.28
                              691.47   717.48   758.92   832.05   865.35
                              961.16   970.47  1080.75  1179.21  1223.01
                             1313.66  1430.55  1519.55  1551.82  1592.47
                             1724.92  1807.07  1890.34  1932.25  1974.86
                             1993.74  2079.82  2143.81  2179.62  2186.12
                             2242.00  2356.79  2618.88  4395.74  4423.63
                             4472.73  4502.99  4545.78  5168.39  5346.26

 Zero-point correction=                           0.126170 (Hartree/Particle)
 Thermal correction to Energy=                    0.136480
 Thermal correction to Enthalpy=                  0.137424
 Thermal correction to Gibbs Free Energy=         0.088765
 Sum of electronic and zero-point Energies=           -832.300050
 Sum of electronic and thermal Energies=              -832.289740
 Sum of electronic and thermal Enthalpies=            -832.288796
 Sum of electronic and thermal Free Energies=         -832.337455

                     E (Thermal)             CV                S
                      KCal/Mol        Cal/Mol-Kelvin    Cal/Mol-Kelvin
 Total                   85.643             36.396            102.411
 Electronic               0.000              0.000              0.000
 Translational            0.889              2.981             41.063
 Rotational               0.889              2.981             30.053
 Vibrational             83.865             30.435             31.295
 Vibration     1          0.593              1.984              6.019
 Vibration     2          0.597              1.974              4.469
 Vibration     3          0.600              1.962              3.872
 Vibration     4          0.606              1.943              3.316
 Vibration     5          0.637              1.842              2.150
 Vibration     6          0.657              1.780              1.807
 Vibration     7          0.697              1.659              1.375
 Vibration     8          0.714              1.610              1.248
 Vibration     9          0.718              1.601              1.225
 Vibration    10          0.767              1.467              0.958
 Vibration    11          0.837              1.293              0.708
 Vibration    12          0.854              1.253              0.661
 Vibration    13          0.882              1.189              0.593
 Vibration    14          0.935              1.078              0.489
 Vibration    15          0.960              1.029              0.447

 Optimization completed.
    -- Stationary point found.
 Normal termination of Gaussian 16 at Tue Dec  8 13:48:34 2020.

 ----------------------------------------------------------------------
 # B3LYP/6-311++G(d,p) empiricaldispersion=gd3bj scf=xqc pop=npa geom=c
 heck
 ----------------------------------------------------------------------

 --------------------------------------
 CID_129939169_JID_958_Energie_neutraal
 --------------------------------------
 Structure from the checkpoint file:  "JID_958.chk"
 Charge =  0 Multiplicity = 1

 SCF Done:  E(RB3LYP) =  -832.582675608     A.U. after   16 cycles
 Normal termination of Gaussian 16 at Tue Dec  8 13:51:24 2020.

 ----------------------------------------------------------------------
 # B3LYP/6-311++G(d,p) empiricaldispersion=gd3bj scf=xqc pop=npa geom=c
 heck
 ----------------------------------------------------------------------

 ------------------------------------
 CID_129939169_JID_958_Energie_kation
 ------------------------------------
 Structure from the checkpoint file:  "JID_958.chk"
 Charge =  1 Multiplicity = 2

 SCF Done:  E(UB3LYP) =  -832.242670171     A.U. after   29 cycles
 Normal termination of Gaussian 16 at Tue Dec  8 13:58:30 2020.
 Gaussian 16:  ES64L-G16RevA.03 25-Dec-2016

 ----------------------------------------------------------------------
 # B3LYP/6-311++G(d,p) empiricaldispersion=gd3bj scf=xqc pop=npa geom=c
 heck
 ----------------------------------------------------------------------

 -----------------------------------
 CID_129939169_JID_958_Energie_anion
 -----------------------------------
 Structure from the checkpoint file:  "JID_958.chk"
 Charge = -1 Multiplicity = 2

                         Standard orientation:
 ---------------------------------------------------------------------
 Center     Atomic      Atomic             Coordinates (Angstroms)
 Number     Number       Type             X           Y           Z
 ---------------------------------------------------------------------
      1          6           0       -0.484767    2.387063   -0.301389
      2          6           0       -0.985556    0.981606   -0.153953
      3          6           0       -0.294172   -0.173663   -0.462729
      4         16           0       -1.294323   -1.520496   -0.102798
      5          7           0       -2.595106   -0.473877    0.440032
      6          7           0       -2.249092    0.747378    0.338058
      7          6           0        1.111095   -0.265404   -0.968573
      8          6           0        2.237439   -0.182584    0.085057
      9          8           0        3.398531   -0.345720   -0.247276
     10          7           0        1.852935    0.121723    1.356023
     11          1           0       -0.241299    2.617968   -1.345181
     12          1           0       -1.254486    3.085110    0.034172
     13          1           0        0.421140    2.551168    0.292775
     14          1           0        1.282939   -1.191582   -1.522891
     15          1           0        1.301501    0.553365   -1.672144
     16          1           0        0.882497    0.118269    1.632491
     17          1           0        2.563235    0.110732    2.074489
 ---------------------------------------------------------------------

 SCF Done:  E(UB3LYP) =  -832.592444273     A.U. after   28 cycles

 The electronic state is 2-A.
 Alpha  occ. eigenvalues --  -88.70960 -18.97544 -14.21952 -14.16808 -14.16746
 Alpha  occ. eigenvalues --  -10.15879 -10.06415 -10.04728 -10.04524 -10.03198
 Alpha  occ. eigenvalues --   -7.79566  -5.75886  -5.75495  -5.75174  -0.92707
 Alpha  occ. eigenvalues --   -0.86173  -0.79329  -0.67918  -0.64201  -0.59833
 Alpha  occ. eigenvalues --   -0.54968  -0.47982  -0.44214  -0.42804  -0.39472
 Alpha  occ. eigenvalues --   -0.34651  -0.32898  -0.31055  -0.30460  -0.29211
 Alpha  occ. eigenvalues --   -0.28598  -0.26479  -0.25457  -0.25317  -0.19962
 Alpha  occ. eigenvalues --   -0.17345  -0.16553  -0.15582  -0.12897  -0.09993
 Alpha  occ. eigenvalues --   -0.08410   0.05361
 Alpha virt. eigenvalues --    0.07803   0.09503   0.10805   0.11826   0.13001
 Alpha virt. eigenvalues --    0.13078   0.13910   0.14520   0.14926   0.15565
 Alpha virt. eigenvalues --    0.16389   0.16783   0.18122   0.18694   0.18963

  Beta  occ. eigenvalues --  -88.70886 -18.97544 -14.21939 -14.16544 -14.15987
  Beta  occ. eigenvalues --  -10.15810 -10.06448 -10.04802 -10.04524 -10.02710
  Beta  occ. eigenvalues --   -7.79500  -5.75863  -5.75471  -5.74910  -0.92680
  Beta  occ. eigenvalues --   -0.85317  -0.79284  -0.67370  -0.63814  -0.59620
  Beta  occ. eigenvalues --   -0.54468  -0.47837  -0.43565  -0.42712  -0.39100
  Beta  occ. eigenvalues --   -0.34478  -0.32740  -0.30811  -0.30192  -0.29086
  Beta  occ. eigenvalues --   -0.28366  -0.26265  -0.25279  -0.23566  -0.19621
  Beta  occ. eigenvalues --   -0.16666  -0.16466  -0.15018  -0.11293  -0.07867
  Beta  occ. eigenvalues --   -0.07795
  Beta virt. eigenvalues --    0.08115   0.09557   0.10657   0.11815   0.12501
  Beta virt. eigenvalues --    0.13150   0.13423   0.13968   0.14646   0.14886
  Beta virt. eigenvalues --    0.15682   0.16470   0.16759   0.18659   0.18829

 Mulliken charges and spin densities:
               1          2
     1  C   -0.674275  -0.108845
     2  C   -0.689175  -0.077109
     3  C    0.802037   0.198990
     4  S   -0.214692   0.224519
     5  N   -0.204581   0.302985
     6  N   -0.064834   0.142126
     7  C   -0.282205   0.080461
     8  C    0.081938  -0.094157
     9  O   -0.381406   0.002655
    10  N   -0.356629  -0.043790
    11  H    0.107850   0.015280
    12  H    0.126597   0.015467
    13  H    0.133209  -0.002222
    14  H    0.175499   0.016167
    15  H    0.156759   0.003821
    16  H    0.213831   0.102033
    17  H    0.070077   0.221617
 Sum of Mulliken charges =  -1.00000   1.00000

 Dipole moment (field-independent basis, Debye):
    X=              2.9392    Y=              1.6281    Z=             -0.9751  Tot=              3.4986
 Quadrupole moment (field-independent basis, Debye-Ang):
   XX=           -117.5233   YY=            -79.2096   ZZ=            -75.1045
   XY=              0.8524   XZ=              4.9878   YZ=             -0.9245

 Summary of Natural Population Analysis:

                                       Natural Population
                Natural  -----------------------------------------------
    Atom  No    Charge         Core      Valence    Rydberg      Total
 -----------------------------------------------------------------------
      C    1   -0.29588      0.99963     2.29102    0.00522     3.29588
      C    2    0.01058      0.99943     1.97333    0.01666     2.98942
      C    3   -0.05905      0.99944     2.04563    0.01397     3.05905
      S    4    0.23840      4.99943     2.73669    0.02548     7.76160
      N    5   -0.07029      0.99982     2.55134    0.01913     3.57029
      N    6   -0.11199      0.99969     2.59193    0.02036     3.61199
      C    7   -0.24802      0.99955     2.23814    0.01033     3.24802
      C    8    0.35078      0.99971     1.62457    0.02494     2.64922
      O    9   -0.33436      0.99987     3.32817    0.00632     4.33436
      N   10   -0.40590      0.99970     2.89890    0.00730     3.90590
      H   11    0.09503      0.00000     0.40383    0.00114     0.40497
      H   12    0.10663      0.00000     0.39194    0.00143     0.39337
      H   13    0.09776      0.00000     0.40076    0.00148     0.40224
      H   14    0.11504      0.00000     0.38414    0.00082     0.38496
      H   15    0.11364      0.00000     0.38546    0.00090     0.38636
      H   16    0.20679      0.00000     0.29082    0.00239     0.29321
      H   17    0.19083      0.00000     0.30678    0.00240     0.30917
 =======================================================================
   * Total *    0.00000     13.99626    26.84346    0.16028    41.00000

 Normal termination of Gaussian 16 at Tue Dec  8 14:08:32 2020.
