 Gaussian 16, Revision A.03,

 -----------------------------------------------------------
 # opt freq B3LYP/6-31G(d) empiricaldispersion=gd3bj scf=xqc
 -----------------------------------------------------------

 ------------------------------
 CID_61386622_JID_7148_neutraal
 ------------------------------
 Symbolic Z-matrix:
 Charge =  0 Multiplicity = 1

 SCF Done:  E(RB3LYP) =  -771.067967606     A.U. after   14 cycles
 SCF Done:  E(RB3LYP) =  -771.070932549     A.U. after   12 cycles
 SCF Done:  E(RB3LYP) =  -771.068780927     A.U. after   13 cycles
 SCF Done:  E(RB3LYP) =  -771.071372194     A.U. after   12 cycles
 SCF Done:  E(RB3LYP) =  -771.071573744     A.U. after   14 cycles
 SCF Done:  E(RB3LYP) =  -771.073394415     A.U. after   12 cycles
 SCF Done:  E(RB3LYP) =  -771.073441913     A.U. after   11 cycles
 SCF Done:  E(RB3LYP) =  -771.073643207     A.U. after   11 cycles
 SCF Done:  E(RB3LYP) =  -771.073818787     A.U. after   11 cycles
 SCF Done:  E(RB3LYP) =  -771.073908745     A.U. after   12 cycles
 SCF Done:  E(RB3LYP) =  -771.075193419     A.U. after    9 cycles
 SCF Done:  E(RB3LYP) =  -771.075196289     A.U. after   10 cycles
 SCF Done:  E(RB3LYP) =  -771.075198518     A.U. after    9 cycles
 SCF Done:  E(RB3LYP) =  -771.075198575     A.U. after    8 cycles
 SCF Done:  E(RB3LYP) =  -771.075198554     A.U. after    6 cycles
 Optimization completed.
    -- Stationary point found.
 Normal termination of Gaussian 16 at Fri Dec 11 12:19:30 2020.

 --------------------------------------------------------------------
 #N Geom=AllCheck Guess=TCheck SCRF=Check GenChk RB3LYP/6-31G(d) Freq
 --------------------------------------------------------------------

 Structure from the checkpoint file:  "JID_7148.chk"
 ------------------------------
 CID_61386622_JID_7148_neutraal
 ------------------------------
 Charge =  0 Multiplicity = 1

 SCF Done:  E(RB3LYP) =  -771.075198553     A.U. after    1 cycles

  Exact polarizability: 163.977   2.705 164.185  -3.499  -2.203 133.491
 Approx polarizability: 222.072   1.388 214.420  -8.496  -0.035 200.122

                      1                      2                      3
                      A                      A                      A
 Frequencies --     27.9788                35.2071                48.6532
 Red. masses --      3.9955                 3.3226                 3.0666
 Frc consts  --      0.0018                 0.0024                 0.0043
 IR Inten    --      0.4879                 1.8348                 0.5039

                      4                      5                      6
                      A                      A                      A
 Frequencies --     51.4832                72.9902                95.6757
 Red. masses --      3.8523                 3.1606                 4.6215
 Frc consts  --      0.0060                 0.0099                 0.0249
 IR Inten    --      0.5589                 0.1283                 1.7780

                      7                      8                      9
                      A                      A                      A
 Frequencies --    114.2373               145.1133               173.2032
 Red. masses --      3.3777                 2.9019                 3.3347
 Frc consts  --      0.0260                 0.0360                 0.0589
 IR Inten    --      0.8312                 0.1462                 0.9563

                     10                     11                     12
                      A                      A                      A
 Frequencies --    195.8033               215.0837               234.9230
 Red. masses --      2.2596                 2.0138                 1.6400
 Frc consts  --      0.0510                 0.0549                 0.0533
 IR Inten    --      2.9158                 1.6806                 1.4548

                     13                     14                     15
                      A                      A                      A
 Frequencies --    241.8416               245.1989               271.9935
 Red. masses --      1.5418                 1.5313                 1.9488
 Frc consts  --      0.0531                 0.0542                 0.0849
 IR Inten    --      0.8392                 0.3024                 2.3837

                     16                     17                     18
                      A                      A                      A
 Frequencies --    280.1736               309.9993               315.2144
 Red. masses --      1.2167                 2.7843                 2.4819
 Frc consts  --      0.0563                 0.1576                 0.1453
 IR Inten    --      0.1613                 4.3537                 4.0188

                     19                     20                     21
                      A                      A                      A
 Frequencies --    358.0407               363.0275               369.9002
 Red. masses --      2.1399                 3.5105                 2.1408
 Frc consts  --      0.1616                 0.2726                 0.1726
 IR Inten    --      2.2765                12.9883                 3.0760

                     22                     23                     24
                      A                      A                      A
 Frequencies --    386.8999               427.4126               455.2073
 Red. masses --      2.0827                 3.1113                 3.1408
 Frc consts  --      0.1837                 0.3349                 0.3835
 IR Inten    --      0.1807                 5.2152                 4.9333

                     25                     26                     27
                      A                      A                      A
 Frequencies --    470.8226               479.5281               504.6136
 Red. masses --      3.4993                 2.2649                 2.9207
 Frc consts  --      0.4570                 0.3068                 0.4382
 IR Inten    --      2.2274                 1.8045                 0.7565

                     28                     29                     30
                      A                      A                      A
 Frequencies --    563.8399               619.7019               712.1226
 Red. masses --      2.5821                 2.4210                 3.9918
 Frc consts  --      0.4836                 0.5478                 1.1927
 IR Inten    --      0.9025                 5.9129                 8.6482

                     31                     32                     33
                      A                      A                      A
 Frequencies --    752.6064               779.4852               794.2640
 Red. masses --      3.1725                 2.1412                 2.1674
 Frc consts  --      1.0588                 0.7665                 0.8056
 IR Inten    --      4.5208                 1.3907                28.8060

                     34                     35                     36
                      A                      A                      A
 Frequencies --    823.7578               833.0371               857.2558
 Red. masses --      1.5536                 1.5054                 2.5236
 Frc consts  --      0.6211                 0.6155                 1.0927
 IR Inten    --      2.3923                 1.5981                 9.4387

                     37                     38                     39
                      A                      A                      A
 Frequencies --    874.2060               876.8017               888.3288
 Red. masses --      1.6823                 2.0179                 2.5096
 Frc consts  --      0.7575                 0.9140                 1.1668
 IR Inten    --     40.0830                 1.7295                10.8580

                     40                     41                     42
                      A                      A                      A
 Frequencies --    919.0866               936.0247               940.2808
 Red. masses --      2.4477                 1.9688                 1.4781
 Frc consts  --      1.2182                 1.0163                 0.7700
 IR Inten    --      0.1341                 1.3821                 1.2615

                     43                     44                     45
                      A                      A                      A
 Frequencies --    948.5313               959.2298               994.7745
 Red. masses --      1.8476                 1.5158                 1.7426
 Frc consts  --      0.9794                 0.8217                 1.0160
 IR Inten    --     11.9623                 2.3869                 0.4140

                     46                     47                     48
                      A                      A                      A
 Frequencies --   1029.6868              1044.3555              1046.5817
 Red. masses --      2.3057                 3.0706                 1.4571
 Frc consts  --      1.4403                 1.9732                 0.9404
 IR Inten    --     15.2897                12.7694                 3.7325

                     49                     50                     51
                      A                      A                      A
 Frequencies --   1074.6741              1080.8819              1124.0641
 Red. masses --      2.3408                 1.8899                 1.9870
 Frc consts  --      1.5928                 1.3009                 1.4792
 IR Inten    --     19.3521                19.9547                17.4015

                     52                     53                     54
                      A                      A                      A
 Frequencies --   1129.5949              1133.4731              1140.1289
 Red. masses --      1.6838                 1.7668                 2.6127
 Frc consts  --      1.2659                 1.3374                 2.0010
 IR Inten    --      5.3551                47.3557                14.3028

                     55                     56                     57
                      A                      A                      A
 Frequencies --   1155.0988              1166.0221              1171.3152
 Red. masses --      2.4912                 2.5661                 2.5767
 Frc consts  --      1.9584                 2.0556                 2.0829
 IR Inten    --     15.4205                19.2949                27.7215

                     58                     59                     60
                      A                      A                      A
 Frequencies --   1201.0124              1204.2934              1208.8718
 Red. masses --      1.7009                 1.8154                 1.9314
 Frc consts  --      1.4455                 1.5513                 1.6629
 IR Inten    --     25.4793                75.7813                27.6216

                     61                     62                     63
                      A                      A                      A
 Frequencies --   1221.5148              1242.4370              1247.7938
 Red. masses --      2.1822                 1.2334                 1.6091
 Frc consts  --      1.9184                 1.1217                 1.4761
 IR Inten    --    273.5932                15.8259                13.5933

                     64                     65                     66
                      A                      A                      A
 Frequencies --   1273.6649              1304.3294              1328.5549
 Red. masses --      1.2559                 1.4474                 1.4471
 Frc consts  --      1.2004                 1.4508                 1.5049
 IR Inten    --     30.0676                 3.1770                 0.6999

                     67                     68                     69
                      A                      A                      A
 Frequencies --   1340.4650              1342.2260              1363.0211
 Red. masses --      1.1775                 1.2670                 1.4188
 Frc consts  --      1.2466                 1.3449                 1.5530
 IR Inten    --     14.7865                 9.7585                 9.2677

                     70                     71                     72
                      A                      A                      A
 Frequencies --   1370.5046              1378.7287              1381.0180
 Red. masses --      1.4543                 1.2595                 1.3066
 Frc consts  --      1.6094                 1.4106                 1.4683
 IR Inten    --     19.3382                10.6668                 7.4606

                     73                     74                     75
                      A                      A                      A
 Frequencies --   1389.1497              1405.0381              1411.1113
 Red. masses --      1.6221                 1.3362                 1.3138
 Frc consts  --      1.8443                 1.5541                 1.5413
 IR Inten    --     23.8807                20.8698                11.5329

                     76                     77                     78
                      A                      A                      A
 Frequencies --   1416.8275              1425.7821              1432.1373
 Red. masses --      1.2943                 1.3599                 1.4183
 Frc consts  --      1.5308                 1.6288                 1.7140
 IR Inten    --     11.9054                 5.7635                13.7697

                     79                     80                     81
                      A                      A                      A
 Frequencies --   1435.0877              1440.6635              1445.4872
 Red. masses --      1.3390                 1.2524                 1.3486
 Frc consts  --      1.6248                 1.5315                 1.6602
 IR Inten    --      1.1574                12.9306                 6.4698

                     82                     83                     84
                      A                      A                      A
 Frequencies --   1462.2303              1504.3687              1506.5783
 Red. masses --      1.4270                 1.0966                 1.0980
 Frc consts  --      1.7977                 1.4621                 1.4684
 IR Inten    --     15.7813                 3.8517                 1.1804

                     85                     86                     87
                      A                      A                      A
 Frequencies --   1513.5721              1515.9301              1518.5538
 Red. masses --      1.0538                 1.0659                 1.0600
 Frc consts  --      1.4224                 1.4431                 1.4402
 IR Inten    --      3.9206                 5.2276                 9.8506

                     88                     89                     90
                      A                      A                      A
 Frequencies --   1518.8300              1521.5302              1522.7999
 Red. masses --      1.0639                 1.0847                 1.0741
 Frc consts  --      1.4459                 1.4795                 1.4675
 IR Inten    --      0.6563                 3.1465                18.6984

                     91                     92                     93
                      A                      A                      A
 Frequencies --   1534.8237              1538.2925              1543.5957
 Red. masses --      1.0636                 1.0769                 1.0605
 Frc consts  --      1.4762                 1.5014                 1.4887
 IR Inten    --      6.3417                 1.4597                 3.7503

                     94                     95                     96
                      A                      A                      A
 Frequencies --   1548.8199              1551.5518              1568.6958
 Red. masses --      1.0866                 1.1081                 1.1263
 Frc consts  --      1.5357                 1.5716                 1.6330
 IR Inten    --     11.2348                 8.8649                23.1680

                     97                     98                     99
                      A                      A                      A
 Frequencies --   1788.4884              2960.6880              3010.6644
 Red. masses --     10.4431                 1.0715                 1.0673
 Frc consts  --     19.6812                 5.5337                 5.6996
 IR Inten    --    220.9330                40.4614               101.3221

                    100                    101                    102
                      A                      A                      A
 Frequencies --   3013.1785              3019.7861              3028.5681
 Red. masses --      1.0682                 1.0842                 1.0586
 Frc consts  --      5.7143                 5.8251                 5.7209
 IR Inten    --     16.6532                26.2632                46.3488

                    103                    104                    105
                      A                      A                      A
 Frequencies --   3039.3790              3045.0299              3045.3073
 Red. masses --      1.0365                 1.0538                 1.0697
 Frc consts  --      5.6412                 5.7570                 5.8448
 IR Inten    --     27.4241                 3.7280                21.9353

                    106                    107                    108
                      A                      A                      A
 Frequencies --   3050.3214              3054.1148              3059.0260
 Red. masses --      1.0879                 1.0712                 1.0780
 Frc consts  --      5.9639                 5.8870                 5.9435
 IR Inten    --     56.7721                 7.3266                56.1972

                    109                    110                    111
                      A                      A                      A
 Frequencies --   3062.3009              3067.1003              3078.4995
 Red. masses --      1.0365                 1.0848                 1.0814
 Frc consts  --      5.7267                 6.0125                 6.0386
 IR Inten    --     11.6613                49.1122                42.7319

                    112                    113                    114
                      A                      A                      A
 Frequencies --   3093.0238              3098.2623              3099.1906
 Red. masses --      1.0952                 1.0598                 1.1032
 Frc consts  --      6.1734                 5.9941                 6.2432
 IR Inten    --     42.4478                25.4319                40.0622

                    115                    116                    117
                      A                      A                      A
 Frequencies --   3103.0595              3108.7518              3111.7684
 Red. masses --      1.1019                 1.1041                 1.1004
 Frc consts  --      6.2514                 6.2867                 6.2777
 IR Inten    --      3.9032                33.4048                84.1853

                    118                    119                    120
                      A                      A                      A
 Frequencies --   3119.1926              3128.3825              3128.7016
 Red. masses --      1.1007                 1.1016                 1.1027
 Frc consts  --      6.3098                 6.3518                 6.3595
 IR Inten    --     34.2760                16.6987                37.5992

                    121                    122                    123
                      A                      A                      A
 Frequencies --   3142.1535              3161.3023              3490.7013
 Red. masses --      1.1033                 1.1080                 1.0735
 Frc consts  --      6.4181                 6.5242                 7.7072
 IR Inten    --      7.3661                27.7082                18.4873

 - Thermochemistry -
 -------------------
 Temperature   298.150 Kelvin.  Pressure   1.00000 Atm.
 Atom     1 has atomic number  6 and mass  12.00000

 Molecular mass:   242.19943 amu.
 Principal axes and moments of inertia in atomic units:
                           1         2         3
     Eigenvalues --  3526.489814550.448516649.39858
           X            0.99968  -0.02074  -0.01457
           Y            0.02059   0.99973  -0.01031
           Z            0.01478   0.01001   0.99984
 This molecule is an asymmetric top.
 Rotational symmetry number  1.
 Warning -- assumption of classical behavior for rotation
           may cause significant error
 Rotational temperatures (Kelvin)      0.02456     0.01903     0.01303
 Rotational constants (GHZ):           0.51177     0.39661     0.27141
 Zero-point vibrational energy    1031457.8 (Joules/Mol)
                                  246.52432 (Kcal/Mol)
 Warning -- explicit consideration of  29 degrees of freedom as
           vibrations may cause significant error
 Vibrational temperatures:     40.26    50.66    70.00    74.07   105.02
          (Kelvin)            137.66   164.36   208.79   249.20   281.72
                              309.46   338.00   347.96   352.79   391.34
                              403.11   446.02   453.52   515.14   522.32
                              532.20   556.66   614.95   654.94   677.41
                              689.93   726.03   811.24   891.61  1024.59
                             1082.83  1121.51  1142.77  1185.20  1198.55
                             1233.40  1257.79  1261.52  1278.11  1322.36
                             1346.73  1352.85  1364.72  1380.12  1431.26
                             1481.49  1502.59  1505.80  1546.22  1555.15
                             1617.28  1625.24  1630.81  1640.39  1661.93
                             1677.65  1685.26  1727.99  1732.71  1739.30
                             1757.49  1787.59  1795.30  1832.52  1876.64
                             1911.49  1928.63  1931.16  1961.08  1971.85
                             1983.68  1986.98  1998.68  2021.54  2030.27
                             2038.50  2051.38  2060.53  2064.77  2072.79
                             2079.73  2103.82  2164.45  2167.63  2177.69
                             2181.09  2184.86  2185.26  2189.14  2190.97
                             2208.27  2213.26  2220.89  2228.41  2232.34
                             2257.00  2573.24  4259.77  4331.67  4335.29
                             4344.80  4357.43  4372.99  4381.12  4381.52
                             4388.73  4394.19  4401.26  4405.97  4412.87
                             4429.27  4450.17  4457.71  4459.04  4464.61
                             4472.80  4477.14  4487.82  4501.04  4501.50
                             4520.86  4548.41  5022.34

 Zero-point correction=                           0.392862 (Hartree/Particle)
 Thermal correction to Energy=                    0.411480
 Thermal correction to Enthalpy=                  0.412425
 Thermal correction to Gibbs Free Energy=         0.345444
 Sum of electronic and zero-point Energies=           -770.682337
 Sum of electronic and thermal Energies=              -770.663718
 Sum of electronic and thermal Enthalpies=            -770.662774
 Sum of electronic and thermal Free Energies=         -770.729755

                     E (Thermal)             CV                S
                      KCal/Mol        Cal/Mol-Kelvin    Cal/Mol-Kelvin
 Total                  258.208             70.535            140.972
 Electronic               0.000              0.000              0.000
 Translational            0.889              2.981             42.355
 Rotational               0.889              2.981             33.034
 Vibrational            256.430             64.573             65.584
 Vibration     1          0.593              1.984              5.968
 Vibration     2          0.594              1.982              5.512
 Vibration     3          0.595              1.978              4.871
 Vibration     4          0.596              1.977              4.760
 Vibration     5          0.599              1.967              4.071
 Vibration     6          0.603              1.952              3.541
 Vibration     7          0.607              1.938              3.196
 Vibration     8          0.617              1.908              2.735
 Vibration     9          0.627              1.875              2.400
 Vibration    10          0.636              1.846              2.172
 Vibration    11          0.645              1.818              2.000
 Vibration    12          0.655              1.787              1.841
 Vibration    13          0.658              1.776              1.789
 Vibration    14          0.660              1.771              1.765
 Vibration    15          0.675              1.725              1.584
 Vibration    16          0.680              1.710              1.533
 Vibration    17          0.699              1.655              1.362
 Vibration    18          0.703              1.645              1.335
 Vibration    19          0.733              1.559              1.131
 Vibration    20          0.737              1.548              1.109
 Vibration    21          0.742              1.534              1.080
 Vibration    22          0.755              1.498              1.012
 Vibration    23          0.789              1.411              0.867
 Vibration    24          0.814              1.349              0.780
 Vibration    25          0.828              1.315              0.735
 Vibration    26          0.836              1.295              0.711
 Vibration    27          0.860              1.240              0.647
 Vibration    28          0.920              1.110              0.516
 Vibration    29          0.980              0.990              0.417

                           ! Non-Optimized Parameters !
 Normal termination of Gaussian 16 at Fri Dec 11 12:42:27 2020.

 ----------------------------------------------------------------------
 # B3LYP/6-311++G(d,p) empiricaldispersion=gd3bj scf=xqc pop=npa geom=c
 heck
 ----------------------------------------------------------------------

 --------------------------------------
 CID_61386622_JID_7148_Energie_neutraal
 --------------------------------------
 Structure from the checkpoint file:  "JID_7148.chk"
 Charge =  0 Multiplicity = 1

 SCF Done:  E(RB3LYP) =  -771.294240356     A.U. after   14 cycles
 Normal termination of Gaussian 16 at Fri Dec 11 12:55:24 2020.

 ----------------------------------------------------------------------
 # B3LYP/6-311++G(d,p) empiricaldispersion=gd3bj scf=xqc pop=npa geom=c
 heck
 ----------------------------------------------------------------------

 ------------------------------------
 CID_61386622_JID_7148_Energie_kation
 ------------------------------------
 Structure from the checkpoint file:  "JID_7148.chk"
 Charge =  1 Multiplicity = 2

 SCF Done:  E(UB3LYP) =  -771.029509910     A.U. after   20 cycles
 Normal termination of Gaussian 16 at Fri Dec 11 13:16:57 2020.
 Gaussian 16:  ES64L-G16RevA.03 25-Dec-2016

 ----------------------------------------------------------------------
 # B3LYP/6-311++G(d,p) empiricaldispersion=gd3bj scf=xqc pop=npa geom=c
 heck
 ----------------------------------------------------------------------

 -----------------------------------
 CID_61386622_JID_7148_Energie_anion
 -----------------------------------
 Structure from the checkpoint file:  "JID_7148.chk"
 Charge = -1 Multiplicity = 2

                         Standard orientation:
 ---------------------------------------------------------------------
 Center     Atomic      Atomic             Coordinates (Angstroms)
 Number     Number       Type             X           Y           Z
 ---------------------------------------------------------------------
      1          6           0        2.033873    2.812227   -1.065060
      2          6           0        2.752577    2.376349    0.201718
      3          8           0        2.934567    0.939802    0.218752
      4          6           0        1.890424    0.205626    0.657290
      5          8           0        0.871692    0.699957    1.106391
      6          6           0        2.156607   -1.274214    0.445890
      7          6           0        1.897763   -1.617023   -1.038741
      8          6           0        0.422623   -1.434593   -1.381595
      9          7           0       -0.431970   -2.242725   -0.506856
     10          6           0       -0.204874   -2.115953    0.933490
     11          6           0        1.277700   -2.189425    1.309154
     12          6           0       -1.850669   -2.178542   -0.859161
     13          6           0       -2.672009   -1.024656   -0.248356
     14          7           0       -2.053578    0.277542   -0.477799
     15          6           0       -2.866917    1.441158   -0.106188
     16          6           0       -3.263736    1.489746    1.379491
     17          6           0       -2.092721    2.701011   -0.500756
     18          1           0        2.579969    2.478907   -1.953389
     19          1           0        1.958891    3.905034   -1.095393
     20          1           0        1.021949    2.399477   -1.097545
     21          1           0        3.767027    2.778149    0.249550
     22          1           0        2.200328    2.672159    1.096358
     23          1           0        3.215526   -1.445486    0.668324
     24          1           0        2.513465   -0.988848   -1.690941
     25          1           0        2.188481   -2.661898   -1.199183
     26          1           0        0.172030   -0.362800   -1.370333
     27          1           0        0.246196   -1.774300   -2.409344
     28          1           0       -0.739537   -2.942047    1.421855
     29          1           0       -0.612288   -1.186070    1.352299
     30          1           0        1.642402   -3.213814    1.166840
     31          1           0        1.386143   -1.945984    2.371929
     32          1           0       -1.912993   -2.123669   -1.951232
     33          1           0       -2.329028   -3.120539   -0.550317
     34          1           0       -3.659168   -1.024651   -0.730251
     35          1           0       -2.855436   -1.239288    0.819124
     36          1           0       -1.181857    0.332268    0.047811
     37          1           0       -3.785119    1.389235   -0.709553
     38          1           0       -2.365231    1.524976    2.008816
     39          1           0       -3.866041    2.379640    1.597913
     40          1           0       -3.849158    0.612187    1.672870
     41          1           0       -1.827891    2.669309   -1.562276
     42          1           0       -2.678637    3.606527   -0.307820
     43          1           0       -1.165111    2.769467    0.082276
 ---------------------------------------------------------------------

 SCF Done:  E(UB3LYP) =  -771.279271232     A.U. after   33 cycles
 SCF Done:  E(UB3LYP) =  -771.279271232     a.u. after    1 cycles

 The electronic state is 2-A.
 Alpha  occ. eigenvalues --  -19.07490 -19.02298 -14.20517 -14.19435 -10.21109
 Alpha  occ. eigenvalues --  -10.13371 -10.10435 -10.09647 -10.09541 -10.09427
 Alpha  occ. eigenvalues --  -10.09337 -10.09234 -10.07889 -10.07683 -10.07261
 Alpha  occ. eigenvalues --  -10.06423 -10.06219  -1.01632  -0.92996  -0.83412
 Alpha  occ. eigenvalues --   -0.80533  -0.72694  -0.68219  -0.67279  -0.66367
 Alpha  occ. eigenvalues --   -0.62416  -0.59390  -0.58169  -0.54904  -0.53612
 Alpha  occ. eigenvalues --   -0.50774  -0.49054  -0.47560  -0.45566  -0.41095
 Alpha  occ. eigenvalues --   -0.39971  -0.39210  -0.38926  -0.38228  -0.37703
 Alpha  occ. eigenvalues --   -0.36660  -0.35949  -0.34614  -0.34320  -0.33539
 Alpha  occ. eigenvalues --   -0.32549  -0.31572  -0.30952  -0.30556  -0.29616
 Alpha  occ. eigenvalues --   -0.29461  -0.28873  -0.28610  -0.27999  -0.26719
 Alpha  occ. eigenvalues --   -0.26227  -0.26118  -0.25063  -0.24831  -0.24779
 Alpha  occ. eigenvalues --   -0.23772  -0.22891  -0.22697  -0.21408  -0.18772
 Alpha  occ. eigenvalues --   -0.13350  -0.10979   0.04195
 Alpha virt. eigenvalues --    0.05955   0.06076   0.07125   0.07444   0.08000
 Alpha virt. eigenvalues --    0.08478   0.08645   0.09070   0.09282   0.09779
 Alpha virt. eigenvalues --    0.10072   0.10648   0.11123   0.11356   0.12018

  Beta  occ. eigenvalues --  -19.07484 -19.02293 -14.20517 -14.19433 -10.21108
  Beta  occ. eigenvalues --  -10.13346 -10.10428 -10.09638 -10.09533 -10.09418
  Beta  occ. eigenvalues --  -10.09331 -10.09223 -10.07874 -10.07665 -10.07233
  Beta  occ. eigenvalues --  -10.06409 -10.06206  -1.01621  -0.92984  -0.83403
  Beta  occ. eigenvalues --   -0.80525  -0.72668  -0.68190  -0.67254  -0.66343
  Beta  occ. eigenvalues --   -0.62394  -0.59361  -0.58132  -0.54867  -0.53575
  Beta  occ. eigenvalues --   -0.50735  -0.49030  -0.47528  -0.45539  -0.41058
  Beta  occ. eigenvalues --   -0.39948  -0.39182  -0.38906  -0.38200  -0.37680
  Beta  occ. eigenvalues --   -0.36639  -0.35928  -0.34594  -0.34303  -0.33511
  Beta  occ. eigenvalues --   -0.32529  -0.31546  -0.30926  -0.30529  -0.29591
  Beta  occ. eigenvalues --   -0.29438  -0.28843  -0.28584  -0.27978  -0.26698
  Beta  occ. eigenvalues --   -0.26204  -0.26097  -0.25036  -0.24815  -0.24761
  Beta  occ. eigenvalues --   -0.23748  -0.22864  -0.22669  -0.21382  -0.18760
  Beta  occ. eigenvalues --   -0.13342  -0.10970
  Beta virt. eigenvalues --    0.06004   0.06705   0.06886   0.07443   0.07869
  Beta virt. eigenvalues --    0.08468   0.08724   0.08942   0.09235   0.09476
  Beta virt. eigenvalues --    0.10306   0.10490   0.10825   0.11391   0.11596

 Mulliken charges and spin densities:
               1          2
     1  C    0.236734  -0.607084
     2  C    0.172239  -0.337020
     3  O   -0.006225   0.057737
     4  C    0.056509  -0.746992
     5  O   -0.262579   0.014566
     6  C   -0.545904   1.295892
     7  C    1.235529  -1.998628
     8  C   -0.840101   0.648435
     9  N    0.145951  -0.013358
    10  C   -0.681097   0.421301
    11  C    0.953418  -1.671502
    12  C   -0.175124  -0.174264
    13  C   -0.033782  -0.131772
    14  N    0.038371  -0.050578
    15  C   -0.475706   0.622767
    16  C    0.269816  -0.844773
    17  C   -0.335715  -0.293046
    18  H   -0.030781   0.178206
    19  H   -0.413859   0.570849
    20  H    0.420852  -0.258137
    21  H   -0.660243   0.846918
    22  H    0.120676   0.040688
    23  H   -0.428884   0.718965
    24  H    0.069740   0.104235
    25  H   -0.045767   0.212653
    26  H    0.110765   0.050009
    27  H   -0.113528   0.268121
    28  H   -0.234215   0.383131
    29  H    0.249779  -0.063640
    30  H   -0.040372   0.204807
    31  H   -0.125159   0.297242
    32  H    0.074467   0.055117
    33  H   -0.126297   0.298149
    34  H   -0.190776   0.341863
    35  H    0.242593  -0.137153
    36  H    0.405930  -0.399913
    37  H   -0.003546   0.153651
    38  H   -0.042365   0.196106
    39  H   -0.040879   0.184573
    40  H   -0.075634   0.217529
    41  H    0.025684   0.128552
    42  H   -0.184301   0.323851
    43  H    0.283787  -0.108056
 Sum of Mulliken charges =  -1.00000   1.00000

 Dipole moment (field-independent basis, Debye):
    X=             -3.1557    Y=             -1.6167    Z=             -0.3618  Tot=              3.5641
 Quadrupole moment (field-independent basis, Debye-Ang):
   XX=           -182.3241   YY=           -175.2834   ZZ=           -143.7305
   XY=             -3.9656   XZ=              1.8703   YZ=              3.8572

 Summary of Natural Population Analysis:

                                       Natural Population
                Natural  -----------------------------------------------
    Atom  No    Charge         Core      Valence    Rydberg      Total
 -----------------------------------------------------------------------
      C    1   -0.29897      0.99966     2.29389    0.00542     3.29897
      C    2   -0.01616      0.99957     2.00535    0.01124     3.01616
      O    3   -0.28044      0.99986     3.27058    0.01000     4.28044
      C    4    0.41908      0.99965     1.55429    0.02698     2.58092
      O    5   -0.32051      0.99986     3.31525    0.00539     4.32051
      C    6   -0.15449      0.99954     2.14260    0.01235     3.15449
      C    7   -0.18709      0.99961     2.17797    0.00952     3.18709
      C    8   -0.08594      0.99959     2.07536    0.01099     3.08594
      N    9   -0.28701      0.99972     2.77422    0.01308     3.78701
      C   10   -0.08671      0.99960     2.07597    0.01114     3.08671
      C   11   -0.18951      0.99962     2.17962    0.01028     3.18951
      C   12   -0.07964      0.99961     2.06815    0.01188     3.07964
      C   13   -0.09732      0.99962     2.08725    0.01045     3.09732
      N   14   -0.35801      0.99973     2.84712    0.01116     3.85801
      C   15   -0.00754      0.99963     1.99708    0.01084     3.00754
      C   16   -0.29601      0.99965     2.29179    0.00458     3.29601
      C   17   -0.28779      0.99965     2.28172    0.00643     3.28779
      H   18    0.10069      0.00000     0.39817    0.00114     0.39931
      H   19    0.10380      0.00000     0.39486    0.00134     0.39620
      H   20    0.10461      0.00000     0.39372    0.00167     0.39539
      H   21    0.09302      0.00000     0.40485    0.00213     0.40698
      H   22    0.09459      0.00000     0.40413    0.00128     0.40541
      H   23    0.11645      0.00000     0.38164    0.00191     0.38355
      H   24    0.10573      0.00000     0.39321    0.00106     0.39427
      H   25    0.10070      0.00000     0.39756    0.00173     0.39930
      H   26    0.08845      0.00000     0.40905    0.00249     0.41155
      H   27    0.09580      0.00000     0.40289    0.00131     0.40420
      H   28    0.09452      0.00000     0.40426    0.00122     0.40548
      H   29    0.08890      0.00000     0.40881    0.00229     0.41110
      H   30    0.10051      0.00000     0.39801    0.00148     0.39949
      H   31    0.10358      0.00000     0.39543    0.00099     0.39642
      H   32    0.09395      0.00000     0.40489    0.00116     0.40605
      H   33    0.09101      0.00000     0.40805    0.00094     0.40899
      H   34    0.09304      0.00000     0.40556    0.00140     0.40696
      H   35    0.07941      0.00000     0.41899    0.00159     0.42059
      H   36    0.18360      0.00000     0.31139    0.00500     0.31640
      H   37    0.08496      0.00000     0.41323    0.00181     0.41504
      H   38    0.10039      0.00000     0.39846    0.00115     0.39961
      H   39    0.09773      0.00000     0.40135    0.00092     0.40227
      H   40    0.09850      0.00000     0.40061    0.00089     0.40150
      H   41    0.10238      0.00000     0.39648    0.00114     0.39762
      H   42    0.09687      0.00000     0.40240    0.00073     0.40313
      H   43    0.10083      0.00000     0.39800    0.00117     0.39917
 =======================================================================
   * Total *   -0.00000     16.99416    49.78415    0.22169    67.00000

 Normal termination of Gaussian 16 at Fri Dec 11 13:49:04 2020.
