 Gaussian 16, Revision A.03,

 -----------------------------------------------------------
 # opt freq B3LYP/6-31G(d) empiricaldispersion=gd3bj scf=xqc
 -----------------------------------------------------------

 -------------------------------
 CID_118021792_JID_1938_neutraal
 -------------------------------
 Symbolic Z-matrix:
 Charge =  0 Multiplicity = 1

 SCF Done:  E(RB3LYP) =  -530.329506811     A.U. after   15 cycles
 SCF Done:  E(RB3LYP) =  -530.333203267     A.U. after   13 cycles
 SCF Done:  E(RB3LYP) =  -530.333659424     A.U. after   11 cycles
 SCF Done:  E(RB3LYP) =  -530.333700170     A.U. after   11 cycles
 SCF Done:  E(RB3LYP) =  -530.333716186     A.U. after   11 cycles
 SCF Done:  E(RB3LYP) =  -530.333738707     A.U. after   10 cycles
 SCF Done:  E(RB3LYP) =  -530.333741789     A.U. after    8 cycles
 SCF Done:  E(RB3LYP) =  -530.333749523     A.U. after   10 cycles
 SCF Done:  E(RB3LYP) =  -530.333758385     A.U. after   10 cycles
 SCF Done:  E(RB3LYP) =  -530.333790524     A.U. after   12 cycles
 SCF Done:  E(RB3LYP) =  -530.334292866     A.U. after   11 cycles
 SCF Done:  E(RB3LYP) =  -530.334313311     A.U. after   10 cycles
 SCF Done:  E(RB3LYP) =  -530.334320865     A.U. after   10 cycles
 SCF Done:  E(RB3LYP) =  -530.334321085     A.U. after    7 cycles
 SCF Done:  E(RB3LYP) =  -530.334321302     A.U. after    7 cycles
 Optimization completed.
    -- Stationary point found.
 Normal termination of Gaussian 16 at Tue Dec  8 21:38:28 2020.

 --------------------------------------------------------------------
 #N Geom=AllCheck Guess=TCheck SCRF=Check GenChk RB3LYP/6-31G(d) Freq
 --------------------------------------------------------------------

 Structure from the checkpoint file:  "JID_1938.chk"
 -------------------------------
 CID_118021792_JID_1938_neutraal
 -------------------------------
 Charge =  0 Multiplicity = 1

 SCF Done:  E(RB3LYP) =  -530.334321302     A.U. after    1 cycles

  Exact polarizability: 123.507   1.867  95.245  -0.000   0.000  38.892
 Approx polarizability: 191.551  -9.834 179.869   0.000   0.000  60.049

                      1                      2                      3
                      A                      A                      A
 Frequencies --    102.3270               113.2974               177.9111
 Red. masses --      1.3927                 2.2264                 6.1568
 Frc consts  --      0.0086                 0.0168                 0.1148
 IR Inten    --      0.9243                 3.0451                 0.0011

                      4                      5                      6
                      A                      A                      A
 Frequencies --    250.5472               296.0449               312.3296
 Red. masses --      4.3951                 5.0145                 5.5538
 Frc consts  --      0.1626                 0.2589                 0.3192
 IR Inten    --      0.4144                 0.7969                 1.5187

                      7                      8                      9
                      A                      A                      A
 Frequencies --    349.9642               451.4849               523.9753
 Red. masses --      4.2155                 7.1902                 8.4362
 Frc consts  --      0.3042                 0.8635                 1.3646
 IR Inten    --      7.9769                10.3749                 0.0258

                     10                     11                     12
                      A                      A                      A
 Frequencies --    525.1229               628.8315               649.4556
 Red. masses --      4.0554                 4.4186                 3.7955
 Frc consts  --      0.6589                 1.0295                 0.9432
 IR Inten    --      2.4569                 1.6674                27.3138

                     13                     14                     15
                      A                      A                      A
 Frequencies --    686.7006               704.4012               748.1427
 Red. masses --      4.2680                 8.0410                 1.4767
 Frc consts  --      1.1858                 2.3507                 0.4870
 IR Inten    --      9.9160                 0.6448                24.6500

                     16                     17                     18
                      A                      A                      A
 Frequencies --    765.0562               814.2325               820.9627
 Red. masses --     10.9605                 6.1936                 1.4959
 Frc consts  --      3.7798                 2.4193                 0.5940
 IR Inten    --      7.3760                 2.2836                 4.6697

                     19                     20                     21
                      A                      A                      A
 Frequencies --    910.6752               931.7817               985.6347
 Red. masses --      1.2734                11.2182                 4.6133
 Frc consts  --      0.6222                 5.7385                 2.6405
 IR Inten    --      0.3945                 7.1236                22.8152

                     22                     23                     24
                      A                      A                      A
 Frequencies --   1042.4752              1077.0239              1131.5997
 Red. masses --      2.5336                 5.6553                 2.3351
 Frc consts  --      1.6223                 3.8651                 1.7617
 IR Inten    --     18.8769                34.0504                69.4023

                     25                     26                     27
                      A                      A                      A
 Frequencies --   1161.7954              1183.1788              1230.7577
 Red. masses --      1.3065                 1.2920                 3.7757
 Frc consts  --      1.0390                 1.0656                 3.3698
 IR Inten    --      0.0943                 2.2206                19.6010

                     28                     29                     30
                      A                      A                      A
 Frequencies --   1296.7464              1327.0591              1355.9098
 Red. masses --      3.3396                 2.0245                 2.1357
 Frc consts  --      3.3087                 2.1006                 2.3134
 IR Inten    --     31.0072                16.0233                45.8551

                     31                     32                     33
                      A                      A                      A
 Frequencies --   1416.3184              1468.9624              1498.4037
 Red. masses --      4.6881                 1.5358                 1.0420
 Frc consts  --      5.5408                 1.9526                 1.3784
 IR Inten    --     10.1479                 4.4799                 7.3477

                     34                     35                     36
                      A                      A                      A
 Frequencies --   1503.5503              1536.6731              1567.2897
 Red. masses --      1.9987                 1.0804                 6.8722
 Frc consts  --      2.6621                 1.5031                 9.9459
 IR Inten    --      0.7093                 5.6307                25.4114

                     37                     38                     39
                      A                      A                      A
 Frequencies --   1612.4448              1655.7516              1797.3190
 Red. masses --      8.4752                 5.5943                11.7354
 Frc consts  --     12.9829                 9.0362                22.3355
 IR Inten    --     70.8037                45.5416               473.7559

                     40                     41                     42
                      A                      A                      A
 Frequencies --   3083.2777              3153.4900              3175.0257
 Red. masses --      1.0314                 1.1054                 1.1067
 Frc consts  --      5.7770                 6.4767                 6.5731
 IR Inten    --     28.8402                 8.8975                 8.8607

                     43                     44                     45
                      A                      A                      A
 Frequencies --   3230.0645              3264.5079              3304.1361
 Red. masses --      1.0905                 1.0959                 1.0992
 Frc consts  --      6.7036                 6.8809                 7.0704
 IR Inten    --      3.0406                 1.6910                 0.1124

 - Thermochemistry -
 -------------------
 Temperature   298.150 Kelvin.  Pressure   1.00000 Atm.
 Atom     1 has atomic number  6 and mass  12.00000

 Molecular mass:   150.04293 amu.
 Principal axes and moments of inertia in atomic units:
                           1         2         3
     Eigenvalues --   769.611721767.560022525.94816
           X            0.99981   0.01929   0.00000
           Y           -0.01929   0.99981  -0.00000
           Z           -0.00000   0.00000   1.00000
 This molecule is an asymmetric top.
 Rotational symmetry number  1.
 Warning -- assumption of classical behavior for rotation
           may cause significant error
 Rotational temperatures (Kelvin)      0.11254     0.04900     0.03429
 Rotational constants (GHZ):           2.34500     1.02104     0.71448
 Zero-point vibrational energy     333893.5 (Joules/Mol)
                                   79.80247 (Kcal/Mol)
 Warning -- explicit consideration of  10 degrees of freedom as
           vibrations may cause significant error
 Vibrational temperatures:    147.23   163.01   255.97   360.48   425.94
          (Kelvin)            449.37   503.52   649.59   753.88   755.53
                              904.75   934.42   988.01  1013.48  1076.41
                             1100.75  1171.50  1181.18  1310.26  1340.63
                             1418.11  1499.89  1549.60  1628.12  1671.56
                             1702.33  1770.79  1865.73  1909.34  1950.85
                             2037.77  2113.51  2155.87  2163.27  2210.93
                             2254.98  2319.95  2382.26  2585.94  4436.15
                             4537.17  4568.15  4647.34  4696.90  4753.91

 Zero-point correction=                           0.127173 (Hartree/Particle)
 Thermal correction to Energy=                    0.135573
 Thermal correction to Enthalpy=                  0.136517
 Thermal correction to Gibbs Free Energy=         0.093604
 Sum of electronic and zero-point Energies=           -530.207148
 Sum of electronic and thermal Energies=              -530.198748
 Sum of electronic and thermal Enthalpies=            -530.197804
 Sum of electronic and thermal Free Energies=         -530.240717

                     E (Thermal)             CV                S
                      KCal/Mol        Cal/Mol-Kelvin    Cal/Mol-Kelvin
 Total                   85.073             32.247             90.318
 Electronic               0.000              0.000              0.000
 Translational            0.889              2.981             40.927
 Rotational               0.889              2.981             29.620
 Vibrational             83.296             26.285             19.770
 Vibration     1          0.604              1.947              3.410
 Vibration     2          0.607              1.938              3.212
 Vibration     3          0.628              1.870              2.350
 Vibration     4          0.663              1.762              1.727
 Vibration     5          0.690              1.681              1.439
 Vibration     6          0.701              1.650              1.350
 Vibration     7          0.727              1.575              1.166
 Vibration     8          0.810              1.358              0.791
 Vibration     9          0.879              1.197              0.601
 Vibration    10          0.880              1.194              0.598

 Optimization completed.
    -- Stationary point found.
 Normal termination of Gaussian 16 at Tue Dec  8 21:41:28 2020.

 ----------------------------------------------------------------------
 # B3LYP/6-311++G(d,p) empiricaldispersion=gd3bj scf=xqc pop=npa geom=c
 heck
 ----------------------------------------------------------------------

 ---------------------------------------
 CID_118021792_JID_1938_Energie_neutraal
 ---------------------------------------
 Structure from the checkpoint file:  "JID_1938.chk"
 Charge =  0 Multiplicity = 1

 SCF Done:  E(RB3LYP) =  -530.479674736     A.U. after   16 cycles
 Normal termination of Gaussian 16 at Tue Dec  8 21:43:15 2020.

 ----------------------------------------------------------------------
 # B3LYP/6-311++G(d,p) empiricaldispersion=gd3bj scf=xqc pop=npa geom=c
 heck
 ----------------------------------------------------------------------

 -------------------------------------
 CID_118021792_JID_1938_Energie_kation
 -------------------------------------
 Structure from the checkpoint file:  "JID_1938.chk"
 Charge =  1 Multiplicity = 2

 SCF Done:  E(UB3LYP) =  -530.177976531     A.U. after   20 cycles
 Normal termination of Gaussian 16 at Tue Dec  8 21:48:40 2020.
 Gaussian 16:  ES64L-G16RevA.03 25-Dec-2016

 ----------------------------------------------------------------------
 # B3LYP/6-311++G(d,p) empiricaldispersion=gd3bj scf=xqc pop=npa geom=c
 heck
 ----------------------------------------------------------------------

 ------------------------------------
 CID_118021792_JID_1938_Energie_anion
 ------------------------------------
 Structure from the checkpoint file:  "JID_1938.chk"
 Charge = -1 Multiplicity = 2

                         Standard orientation:
 ---------------------------------------------------------------------
 Center     Atomic      Atomic             Coordinates (Angstroms)
 Number     Number       Type             X           Y           Z
 ---------------------------------------------------------------------
      1          6           0        3.042038   -0.016193   -0.000056
      2          7           0        1.606269    0.267052    0.000086
      3          6           0        1.152289    1.560494   -0.000010
      4          6           0       -0.175780    1.888677    0.000007
      5          6           0       -1.044300    0.779068    0.000064
      6          6           0       -0.629295   -0.538483    0.000161
      7          6           0        0.770731   -0.895543    0.000049
      8          8           0        1.274277   -2.010095   -0.000110
      9          7           0       -1.745738   -1.371927    0.000095
     10          6           0       -2.742414   -0.553560   -0.000070
     11          8           0       -2.408578    0.785983   -0.000100
     12          1           0        3.592299    0.925693    0.001011
     13          1           0        3.304348   -0.602837   -0.883545
     14          1           0        3.304115   -0.604520    0.882388
     15          1           0        1.923628    2.321654   -0.000059
     16          1           0       -0.514185    2.915505   -0.000088
     17          1           0       -3.799122   -0.775226   -0.000152
 ---------------------------------------------------------------------

 SCF Done:  E(UB3LYP) =  -530.468363047     A.U. after   33 cycles
 SCF Done:  E(UB3LYP) =  -530.468363047     a.u. after    1 cycles

 The electronic state is 2-A.
 Alpha  occ. eigenvalues --  -19.02627 -18.93035 -14.20327 -14.15888 -10.11486
 Alpha  occ. eigenvalues --  -10.09034 -10.07342 -10.06537 -10.03924 -10.02604
 Alpha  occ. eigenvalues --  -10.01402  -0.96798  -0.88524  -0.80044  -0.76588
 Alpha  occ. eigenvalues --   -0.66144  -0.59139  -0.57189  -0.49899  -0.48016
 Alpha  occ. eigenvalues --   -0.43276  -0.39344  -0.36618  -0.34928  -0.33236
 Alpha  occ. eigenvalues --   -0.31529  -0.31089  -0.28701  -0.26994  -0.26755
 Alpha  occ. eigenvalues --   -0.25245  -0.24312  -0.22390  -0.19559  -0.16608
 Alpha  occ. eigenvalues --   -0.14127  -0.12353  -0.10990  -0.06107   0.07330
 Alpha virt. eigenvalues --    0.08778   0.10034   0.10502   0.12224   0.12746
 Alpha virt. eigenvalues --    0.13957   0.14148   0.15944   0.16674   0.16820
 Alpha virt. eigenvalues --    0.17408   0.18113   0.18169   0.19229   0.20501

  Beta  occ. eigenvalues --  -19.02282 -18.93069 -14.20084 -14.15992 -10.11524
  Beta  occ. eigenvalues --  -10.08741 -10.07353 -10.06299 -10.03371 -10.02455
  Beta  occ. eigenvalues --  -10.01418  -0.96264  -0.88479  -0.79598  -0.76436
  Beta  occ. eigenvalues --   -0.65697  -0.58557  -0.57023  -0.49513  -0.47558
  Beta  occ. eigenvalues --   -0.42975  -0.39121  -0.36275  -0.34635  -0.32566
  Beta  occ. eigenvalues --   -0.30896  -0.30436  -0.28623  -0.26869  -0.26697
  Beta  occ. eigenvalues --   -0.24948  -0.23960  -0.22150  -0.18213  -0.15829
  Beta  occ. eigenvalues --   -0.14168  -0.10945  -0.10677  -0.04744
  Beta virt. eigenvalues --    0.08739   0.09965   0.10417   0.12106   0.12437
  Beta virt. eigenvalues --    0.13592   0.14038   0.14882   0.15855   0.16691
  Beta virt. eigenvalues --    0.17071   0.18096   0.18330   0.19023   0.19115

 Mulliken charges and spin densities:
               1          2
     1  C   -0.280867   0.024392
     2  N    0.091473  -0.002465
     3  C   -0.464667   0.539227
     4  C   -0.048184  -0.039401
     5  C   -0.515722   0.169150
     6  C    0.363214   0.118650
     7  C   -0.322797  -0.040932
     8  O   -0.407569  -0.007919
     9  N   -0.173509  -0.064425
    10  C    0.111489   0.272123
    11  O   -0.125838   0.042087
    12  H    0.100977  -0.002196
    13  H    0.144284   0.024690
    14  H    0.144862   0.024098
    15  H    0.086868  -0.040638
    16  H    0.136555   0.001030
    17  H    0.159431  -0.017471
 Sum of Mulliken charges =  -1.00000   1.00000

 Dipole moment (field-independent basis, Debye):
    X=              0.8135    Y=              3.2806    Z=              0.0004  Tot=              3.3800
 Quadrupole moment (field-independent basis, Debye-Ang):
   XX=            -79.2645   YY=            -87.4712   ZZ=            -72.7001
   XY=              2.0758   XZ=              0.0115   YZ=             -0.0030

 Summary of Natural Population Analysis:

                                       Natural Population
                Natural  -----------------------------------------------
    Atom  No    Charge         Core      Valence    Rydberg      Total
 -----------------------------------------------------------------------
      C    1   -0.17301      0.99966     2.16546    0.00789     3.17301
      N    2   -0.20192      0.99964     2.69299    0.00929     3.70192
      C    3    0.13208      0.99959     1.85525    0.01308     2.86792
      C    4   -0.18195      0.99954     2.17375    0.00866     3.18195
      C    5    0.19230      0.99937     1.79526    0.01307     2.80770
      C    6   -0.00253      0.99939     1.99023    0.01292     3.00253
      C    7    0.31056      0.99959     1.66869    0.02115     2.68944
      O    8   -0.34952      0.99988     3.34314    0.00651     4.34952
      N    9   -0.26038      0.99970     2.75006    0.01062     3.76038
      C   10    0.21795      0.99966     1.76228    0.02012     2.78205
      O   11   -0.22228      0.99986     3.21347    0.00895     4.22228
      H   12    0.08967      0.00000     0.40955    0.00078     0.41033
      H   13    0.09731      0.00000     0.40119    0.00150     0.40269
      H   14    0.09733      0.00000     0.40116    0.00150     0.40267
      H   15    0.08072      0.00000     0.41847    0.00080     0.41928
      H   16    0.09913      0.00000     0.39934    0.00154     0.40087
      H   17    0.07456      0.00000     0.42442    0.00102     0.42544
 =======================================================================
   * Total *    0.00000     10.99588    27.86471    0.13941    39.00000

 Normal termination of Gaussian 16 at Tue Dec  8 21:53:09 2020.
