 Gaussian 16, Revision A.03,

 -----------------------------------------------------------
 # opt freq B3LYP/6-31G(d) empiricaldispersion=gd3bj scf=xqc
 -----------------------------------------------------------

 -------------------------------
 CID_119037772_JID_9137_neutraal
 -------------------------------
 Symbolic Z-matrix:
 Charge =  0 Multiplicity = 1

 SCF Done:  E(RB3LYP) =  -879.591097603     A.U. after   15 cycles
 SCF Done:  E(RB3LYP) =  -879.595004998     A.U. after   13 cycles
 SCF Done:  E(RB3LYP) =  -879.595306994     A.U. after   13 cycles
 SCF Done:  E(RB3LYP) =  -879.596646113     A.U. after   12 cycles
 SCF Done:  E(RB3LYP) =  -879.597635955     A.U. after   12 cycles
 SCF Done:  E(RB3LYP) =  -879.597931948     A.U. after   12 cycles
 SCF Done:  E(RB3LYP) =  -879.598072821     A.U. after   11 cycles
 SCF Done:  E(RB3LYP) =  -879.598139183     A.U. after   11 cycles
 SCF Done:  E(RB3LYP) =  -879.598165452     A.U. after   10 cycles
 SCF Done:  E(RB3LYP) =  -879.598183236     A.U. after   10 cycles
 SCF Done:  E(RB3LYP) =  -879.598189867     A.U. after    9 cycles
 SCF Done:  E(RB3LYP) =  -879.598192121     A.U. after    9 cycles
 SCF Done:  E(RB3LYP) =  -879.598192587     A.U. after    8 cycles
 SCF Done:  E(RB3LYP) =  -879.598192732     A.U. after    7 cycles
 Optimization completed.
    -- Stationary point found.
 Normal termination of Gaussian 16 at Sun Dec 13 12:36:51 2020.

 --------------------------------------------------------------------
 #N Geom=AllCheck Guess=TCheck SCRF=Check GenChk RB3LYP/6-31G(d) Freq
 --------------------------------------------------------------------

 Structure from the checkpoint file:  "JID_9137.chk"
 -------------------------------
 CID_119037772_JID_9137_neutraal
 -------------------------------
 Charge =  0 Multiplicity = 1

 SCF Done:  E(RB3LYP) =  -879.598192732     A.U. after    1 cycles

  Exact polarizability: 172.584  -5.858 175.489  21.446   9.933 123.765
 Approx polarizability: 228.294 -10.689 284.271  40.942  29.198 205.385

                      1                      2                      3
                      A                      A                      A
 Frequencies --     23.3907                32.5838                51.7927
 Red. masses --      4.7032                 4.9662                 4.0829
 Frc consts  --      0.0015                 0.0031                 0.0065
 IR Inten    --      1.7018                 0.1550                 0.0943

                      4                      5                      6
                      A                      A                      A
 Frequencies --     61.4928                67.7469                95.6119
 Red. masses --      5.1124                 5.0830                 6.7235
 Frc consts  --      0.0114                 0.0137                 0.0362
 IR Inten    --      1.4273                 0.1593                 3.2975

                      7                      8                      9
                      A                      A                      A
 Frequencies --    127.0248               141.2148               181.7649
 Red. masses --      5.1233                 4.2332                 4.3678
 Frc consts  --      0.0487                 0.0497                 0.0850
 IR Inten    --      0.3244                 1.3097                 1.4425

                     10                     11                     12
                      A                      A                      A
 Frequencies --    213.2420               237.3407               253.1828
 Red. masses --      1.5156                 3.5197                 1.8709
 Frc consts  --      0.0406                 0.1168                 0.0707
 IR Inten    --      3.1354                 1.0274                 1.3349

                     13                     14                     15
                      A                      A                      A
 Frequencies --    259.9546               286.0763               309.3545
 Red. masses --      2.3796                 4.5213                 4.6670
 Frc consts  --      0.0947                 0.2180                 0.2631
 IR Inten    --      1.0216                 2.0988                12.0811

                     16                     17                     18
                      A                      A                      A
 Frequencies --    364.8854               368.3263               404.9770
 Red. masses --      2.1864                 4.4074                 3.8208
 Frc consts  --      0.1715                 0.3523                 0.3692
 IR Inten    --      0.8382                15.1022                 6.3485

                     19                     20                     21
                      A                      A                      A
 Frequencies --    425.9580               484.8267               504.2810
 Red. masses --      3.1840                 3.1353                 3.7683
 Frc consts  --      0.3404                 0.4342                 0.5646
 IR Inten    --      0.0343                 9.3734                12.4205

                     22                     23                     24
                      A                      A                      A
 Frequencies --    524.2793               539.3614               549.5424
 Red. masses --      3.0601                 3.4921                 4.0513
 Frc consts  --      0.4956                 0.5985                 0.7209
 IR Inten    --      6.9294                 3.5144                 6.9847

                     25                     26                     27
                      A                      A                      A
 Frequencies --    552.1094               566.7158               599.4717
 Red. masses --      4.2933                 3.2590                 2.7298
 Frc consts  --      0.7711                 0.6167                 0.5780
 IR Inten    --     16.6744                 7.5461                50.9610

                     28                     29                     30
                      A                      A                      A
 Frequencies --    627.1234               634.7154               695.0113
 Red. masses --      2.1266                 5.0032                 2.1423
 Frc consts  --      0.4928                 1.1876                 0.6097
 IR Inten    --     29.9523                 9.8742                94.1988

                     31                     32                     33
                      A                      A                      A
 Frequencies --    706.6442               720.7946               755.1524
 Red. masses --      2.5556                 2.5004                 2.4103
 Frc consts  --      0.7519                 0.7654                 0.8098
 IR Inten    --     15.1828                12.4389                34.5757

                     34                     35                     36
                      A                      A                      A
 Frequencies --    768.4782               806.1022               816.5931
 Red. masses --      1.5149                 5.2099                 3.2465
 Frc consts  --      0.5271                 1.9946                 1.2755
 IR Inten    --     55.8736                24.1857                 1.8613

                     37                     38                     39
                      A                      A                      A
 Frequencies --    844.4131               867.9603               902.9036
 Red. masses --      1.2483                 2.7378                 2.9252
 Frc consts  --      0.5244                 1.2152                 1.4050
 IR Inten    --      0.2796                 1.6229                 1.7479

                     40                     41                     42
                      A                      A                      A
 Frequencies --    909.9389               920.0354               930.8733
 Red. masses --      1.4468                 2.2923                 2.5120
 Frc consts  --      0.7058                 1.1432                 1.2825
 IR Inten    --     12.7759                 5.2771                 7.2438

                     43                     44                     45
                      A                      A                      A
 Frequencies --    965.4030               988.2137               991.9055
 Red. masses --      1.3170                 1.2315                 1.6693
 Frc consts  --      0.7232                 0.7086                 0.9676
 IR Inten    --      0.1453                 2.1023                 5.0370

                     46                     47                     48
                      A                      A                      A
 Frequencies --   1017.4520              1023.4691              1041.8050
 Red. masses --      5.7440                 1.6684                 2.1456
 Frc consts  --      3.5034                 1.0297                 1.3721
 IR Inten    --      0.4292                 2.8670                 6.9444

                     49                     50                     51
                      A                      A                      A
 Frequencies --   1057.6121              1076.1951              1091.0078
 Red. masses --      2.2377                 1.9768                 4.0732
 Frc consts  --      1.4747                 1.3489                 2.8565
 IR Inten    --      3.5418                 3.8820                60.0546

                     52                     53                     54
                      A                      A                      A
 Frequencies --   1108.4020              1121.5160              1136.3056
 Red. masses --      1.6562                 1.5346                 1.6147
 Frc consts  --      1.1988                 1.1372                 1.2284
 IR Inten    --      0.7991                12.6583                18.0488

                     55                     56                     57
                      A                      A                      A
 Frequencies --   1166.3649              1190.4299              1192.5053
 Red. masses --      2.0994                 1.1341                 2.8313
 Frc consts  --      1.6828                 0.9469                 2.3722
 IR Inten    --      1.1415                 4.5745                24.2580

                     58                     59                     60
                      A                      A                      A
 Frequencies --   1217.8757              1242.3878              1260.3508
 Red. masses --      1.1535                 1.7409                 2.0599
 Frc consts  --      1.0080                 1.5832                 1.9278
 IR Inten    --      9.3292                39.9837               124.2870

                     61                     62                     63
                      A                      A                      A
 Frequencies --   1270.8527              1280.6863              1304.7760
 Red. masses --      1.2271                 1.6752                 1.6266
 Frc consts  --      1.1677                 1.6188                 1.6315
 IR Inten    --      6.2521                 3.3015               103.4834

                     64                     65                     66
                      A                      A                      A
 Frequencies --   1337.1948              1352.3213              1354.8364
 Red. masses --      1.6770                 1.3352                 2.0948
 Frc consts  --      1.7667                 1.4387                 2.2655
 IR Inten    --     74.2430                 4.9144                28.4303

                     67                     68                     69
                      A                      A                      A
 Frequencies --   1377.1752              1382.2037              1385.8096
 Red. masses --      1.8817                 1.4900                 1.5650
 Frc consts  --      2.1028                 1.6772                 1.7708
 IR Inten    --      6.1828                 2.3150                39.1537

                     70                     71                     72
                      A                      A                      A
 Frequencies --   1395.9094              1412.3784              1422.7954
 Red. masses --      1.4511                 1.4340                 2.8326
 Frc consts  --      1.6659                 1.6854                 3.3785
 IR Inten    --     14.2388                42.7786               175.8232

                     73                     74                     75
                      A                      A                      A
 Frequencies --   1428.1902              1446.9127              1505.2079
 Red. masses --      1.5321                 1.3121                 1.6418
 Frc consts  --      1.8412                 1.6185                 2.1916
 IR Inten    --      1.3117                 9.6560                37.8499

                     76                     77                     78
                      A                      A                      A
 Frequencies --   1506.7295              1510.2879              1517.3158
 Red. masses --      1.9843                 1.6118                 1.1758
 Frc consts  --      2.6541                 2.1662                 1.5949
 IR Inten    --      2.6582                44.9141                 5.6035

                     79                     80                     81
                      A                      A                      A
 Frequencies --   1521.7717              1527.3206              1538.0100
 Red. masses --      1.2323                 1.0765                 1.0576
 Frc consts  --      1.6814                 1.4795                 1.4740
 IR Inten    --      2.6304                 4.2646                 2.7751

                     82                     83                     84
                      A                      A                      A
 Frequencies --   1550.4864              1560.8971              1649.8155
 Red. masses --      2.2237                 1.1110                 5.7806
 Frc consts  --      3.1496                 1.5949                 9.2704
 IR Inten    --     88.3626                13.3070                21.7514

                     85                     86                     87
                      A                      A                      A
 Frequencies --   1665.6595              1781.9888              1793.9082
 Red. masses --      5.6508                 8.4667                 8.0952
 Frc consts  --      9.2371                15.8407                15.3489
 IR Inten    --     61.9678               510.7495               189.1322

                     88                     89                     90
                      A                      A                      A
 Frequencies --   3024.5519              3049.5135              3051.8623
 Red. masses --      1.0694                 1.0517                 1.0503
 Frc consts  --      5.7637                 5.7626                 5.7638
 IR Inten    --     39.1780                35.5216                 4.3685

                     91                     92                     93
                      A                      A                      A
 Frequencies --   3074.2511              3080.0189              3081.0061
 Red. masses --      1.0585                 1.0866                 1.0889
 Frc consts  --      5.8941                 6.0734                 6.0901
 IR Inten    --     24.5352                 5.3731                54.1127

                     94                     95                     96
                      A                      A                      A
 Frequencies --   3098.6985              3109.3126              3127.0363
 Red. masses --      1.1026                 1.0979                 1.1080
 Frc consts  --      6.2379                 6.2538                 6.3837
 IR Inten    --     29.3944                19.0755                12.5863

                     97                     98                     99
                      A                      A                      A
 Frequencies --   3131.9787              3137.2782              3187.4194
 Red. masses --      1.0956                 1.0922                 1.0852
 Frc consts  --      6.3322                 6.3340                 6.4960
 IR Inten    --     13.7164                13.7437                 1.7659

                    100                    101                    102
                      A                      A                      A
 Frequencies --   3195.8626              3208.7971              3216.1995
 Red. masses --      1.0892                 1.0925                 1.0969
 Frc consts  --      6.5547                 6.6275                 6.6853
 IR Inten    --     13.0446                25.1978                13.0480

                    103                    104                    105
                      A                      A                      A
 Frequencies --   3235.0072              3566.3561              3574.0338
 Red. masses --      1.0928                 1.0746                 1.0754
 Frc consts  --      6.7382                 8.0531                 8.0938
 IR Inten    --      1.0919                58.0558                20.1698

 - Thermochemistry -
 -------------------
 Temperature   298.150 Kelvin.  Pressure   1.00000 Atm.
 Atom     1 has atomic number  6 and mass  12.00000

 Molecular mass:   262.13174 amu.
 Principal axes and moments of inertia in atomic units:
                           1         2         3
     Eigenvalues --  2975.530496731.129618359.30977
           X            0.99984   0.01774   0.00344
           Y           -0.01770   0.99978  -0.01155
           Z           -0.00364   0.01148   0.99993
 This molecule is an asymmetric top.
 Rotational symmetry number  1.
 Warning -- assumption of classical behavior for rotation
           may cause significant error
 Rotational temperatures (Kelvin)      0.02911     0.01287     0.01036
 Rotational constants (GHZ):           0.60653     0.26812     0.21590
 Zero-point vibrational energy     819161.3 (Joules/Mol)
                                  195.78425 (Kcal/Mol)
 Warning -- explicit consideration of  27 degrees of freedom as
           vibrations may cause significant error
 Vibrational temperatures:     33.65    46.88    74.52    88.47    97.47
          (Kelvin)            137.56   182.76   203.18   261.52   306.81
                              341.48   364.27   374.02   411.60   445.09
                              524.99   529.94   582.67   612.86   697.56
                              725.55   754.32   776.02   790.67   794.36
                              815.38   862.51   902.29   913.21   999.97
                             1016.70  1037.06  1086.50  1105.67  1159.80
                             1174.90  1214.92  1248.80  1299.08  1309.20
                             1323.73  1339.32  1389.00  1421.82  1427.13
                             1463.89  1472.54  1498.93  1521.67  1548.40
                             1569.72  1594.74  1613.61  1634.89  1678.14
                             1712.76  1715.75  1752.25  1787.52  1813.36
                             1828.47  1842.62  1877.28  1923.93  1945.69
                             1949.31  1981.45  1988.68  1993.87  2008.40
                             2032.10  2047.09  2054.85  2081.78  2165.66
                             2167.85  2172.97  2183.08  2189.49  2197.47
                             2212.85  2230.80  2245.78  2373.72  2396.51
                             2563.88  2581.03  4351.66  4387.57  4390.95
                             4423.16  4431.46  4432.88  4458.34  4473.61
                             4499.11  4506.22  4513.84  4585.99  4598.13
                             4616.74  4627.39  4654.45  5131.19  5142.24

 Zero-point correction=                           0.312002 (Hartree/Particle)
 Thermal correction to Energy=                    0.329328
 Thermal correction to Enthalpy=                  0.330272
 Thermal correction to Gibbs Free Energy=         0.265319
 Sum of electronic and zero-point Energies=           -879.286191
 Sum of electronic and thermal Energies=              -879.268865
 Sum of electronic and thermal Enthalpies=            -879.267921
 Sum of electronic and thermal Free Energies=         -879.332874

                     E (Thermal)             CV                S
                      KCal/Mol        Cal/Mol-Kelvin    Cal/Mol-Kelvin
 Total                  206.656             66.885            136.705
 Electronic               0.000              0.000              0.000
 Translational            0.889              2.981             42.591
 Rotational               0.889              2.981             33.481
 Vibrational            204.879             60.923             60.633
 Vibration     1          0.593              1.985              6.323
 Vibration     2          0.594              1.983              5.666
 Vibration     3          0.596              1.977              4.748
 Vibration     4          0.597              1.973              4.409
 Vibration     5          0.598              1.970              4.218
 Vibration     6          0.603              1.952              3.542
 Vibration     7          0.611              1.926              2.991
 Vibration     8          0.615              1.912              2.787
 Vibration     9          0.630              1.865              2.310
 Vibration    10          0.644              1.821              2.016
 Vibration    11          0.656              1.784              1.823
 Vibration    12          0.664              1.757              1.708
 Vibration    13          0.668              1.746              1.662
 Vibration    14          0.684              1.700              1.497
 Vibration    15          0.699              1.656              1.366
 Vibration    16          0.738              1.545              1.101
 Vibration    17          0.741              1.537              1.087
 Vibration    18          0.770              1.459              0.945
 Vibration    19          0.788              1.414              0.872
 Vibration    20          0.841              1.284              0.697
 Vibration    21          0.860              1.241              0.648
 Vibration    22          0.879              1.196              0.600
 Vibration    23          0.894              1.163              0.567
 Vibration    24          0.905              1.141              0.545
 Vibration    25          0.907              1.135              0.540
 Vibration    26          0.923              1.103              0.511
 Vibration    27          0.958              1.033              0.451

                           ! Non-Optimized Parameters !
 Normal termination of Gaussian 16 at Sun Dec 13 12:56:52 2020.

 ----------------------------------------------------------------------
 # B3LYP/6-311++G(d,p) empiricaldispersion=gd3bj scf=xqc pop=npa geom=c
 heck
 ----------------------------------------------------------------------

 ---------------------------------------
 CID_119037772_JID_9137_Energie_neutraal
 ---------------------------------------
 Structure from the checkpoint file:  "JID_9137.chk"
 Charge =  0 Multiplicity = 1

 SCF Done:  E(RB3LYP) =  -879.850550833     A.U. after   15 cycles
 Normal termination of Gaussian 16 at Sun Dec 13 13:05:29 2020.

 ----------------------------------------------------------------------
 # B3LYP/6-311++G(d,p) empiricaldispersion=gd3bj scf=xqc pop=npa geom=c
 heck
 ----------------------------------------------------------------------

 -------------------------------------
 CID_119037772_JID_9137_Energie_kation
 -------------------------------------
 Structure from the checkpoint file:  "JID_9137.chk"
 Charge =  1 Multiplicity = 2

 SCF Done:  E(UB3LYP) =  -879.551589675     A.U. after   27 cycles
 Normal termination of Gaussian 16 at Sun Dec 13 13:27:54 2020.
 Gaussian 16:  ES64L-G16RevA.03 25-Dec-2016

 ----------------------------------------------------------------------
 # B3LYP/6-311++G(d,p) empiricaldispersion=gd3bj scf=xqc pop=npa geom=c
 heck
 ----------------------------------------------------------------------

 ------------------------------------
 CID_119037772_JID_9137_Energie_anion
 ------------------------------------
 Structure from the checkpoint file:  "JID_9137.chk"
 Charge = -1 Multiplicity = 2

                         Standard orientation:
 ---------------------------------------------------------------------
 Center     Atomic      Atomic             Coordinates (Angstroms)
 Number     Number       Type             X           Y           Z
 ---------------------------------------------------------------------
      1          6           0       -1.178126   -1.278859    1.804529
      2          6           0       -1.034093   -1.101487    0.290366
      3          6           0       -1.816898   -2.137228   -0.528521
      4          6           0       -3.321273   -2.046029   -0.275208
      5          7           0       -3.780182   -0.654704   -0.272934
      6          6           0       -3.025373    0.445918    0.023312
      7          8           0       -3.526244    1.502454    0.387600
      8          6           0       -1.507901    0.291107   -0.180208
      9          7           0       -0.851348    1.404696    0.478064
     10          6           0        0.126456    2.219123   -0.012687
     11          8           0        0.448583    3.260357    0.547195
     12          6           0        0.821333    1.826658   -1.324814
     13          8           0        1.166257    0.456071   -1.469605
     14          6           0        2.188343   -0.032357   -0.691883
     15          6           0        2.559877   -1.356098   -0.958128
     16          6           0        3.570940   -1.954492   -0.214019
     17          6           0        4.221896   -1.241436    0.797033
     18          6           0        3.845943    0.075204    1.052536
     19          6           0        2.829892    0.692516    0.317056
     20          1           0       -0.849196   -2.278451    2.108804
     21          1           0       -2.212789   -1.147054    2.143835
     22          1           0       -0.558801   -0.546278    2.330291
     23          1           0        0.023760   -1.193979    0.038102
     24          1           0       -1.612914   -1.975256   -1.594503
     25          1           0       -1.481517   -3.152264   -0.288441
     26          1           0       -3.565141   -2.510513    0.690743
     27          1           0       -3.872080   -2.596398   -1.045967
     28          1           0       -4.766104   -0.500926   -0.091328
     29          1           0       -1.328697    0.353096   -1.258785
     30          1           0       -1.396018    1.849523    1.210246
     31          1           0        0.146071    2.039158   -2.160440
     32          1           0        1.700285    2.471180   -1.417968
     33          1           0        2.047644   -1.889673   -1.752640
     34          1           0        3.854187   -2.981420   -0.427486
     35          1           0        5.011294   -1.709301    1.377181
     36          1           0        4.340953    0.640304    1.837202
     37          1           0        2.544886    1.712016    0.547526
 ---------------------------------------------------------------------

 SCF Done:  E(UB3LYP) =  -879.844935253     A.U. after   33 cycles
 SCF Done:  E(UB3LYP) =  -879.844935253     a.u. after    1 cycles

 The electronic state is 2-A.
 Alpha  occ. eigenvalues --  -19.08383 -19.01299 -19.00676 -14.25576 -14.24839
 Alpha  occ. eigenvalues --  -10.19837 -10.18849 -10.16180 -10.15879 -10.13713
 Alpha  occ. eigenvalues --  -10.11600 -10.09985 -10.09762 -10.09572 -10.09257
 Alpha  occ. eigenvalues --  -10.09174 -10.09089 -10.08116 -10.07065  -1.00106
 Alpha  occ. eigenvalues --   -0.96391  -0.95683  -0.84800  -0.83948  -0.77758
 Alpha  occ. eigenvalues --   -0.72511  -0.69106  -0.67185  -0.66098  -0.63757
 Alpha  occ. eigenvalues --   -0.62024  -0.56608  -0.53844  -0.53172  -0.52275
 Alpha  occ. eigenvalues --   -0.50307  -0.47120  -0.46806  -0.42390  -0.41894
 Alpha  occ. eigenvalues --   -0.41348  -0.40110  -0.39735  -0.38989  -0.38200
 Alpha  occ. eigenvalues --   -0.37331  -0.36508  -0.35489  -0.35107  -0.34166
 Alpha  occ. eigenvalues --   -0.33686  -0.32830  -0.31820  -0.30736  -0.30542
 Alpha  occ. eigenvalues --   -0.29624  -0.29321  -0.28260  -0.27758  -0.26118
 Alpha  occ. eigenvalues --   -0.25863  -0.25722  -0.24812  -0.24226  -0.18707
 Alpha  occ. eigenvalues --   -0.18236  -0.17914  -0.17595  -0.16645  -0.15064
 Alpha  occ. eigenvalues --    0.03659
 Alpha virt. eigenvalues --    0.05515   0.05923   0.06649   0.06981   0.07339
 Alpha virt. eigenvalues --    0.07723   0.07960   0.08140   0.08771   0.09244
 Alpha virt. eigenvalues --    0.09562   0.10194   0.10308   0.10694   0.11343

  Beta  occ. eigenvalues --  -19.08380 -19.01298 -19.00659 -14.25576 -14.24825
  Beta  occ. eigenvalues --  -10.19835 -10.18833 -10.16173 -10.15878 -10.13705
  Beta  occ. eigenvalues --  -10.11552 -10.09971 -10.09745 -10.09568 -10.09241
  Beta  occ. eigenvalues --  -10.09166 -10.09087 -10.08083 -10.07037  -1.00099
  Beta  occ. eigenvalues --   -0.96379  -0.95657  -0.84793  -0.83907  -0.77734
  Beta  occ. eigenvalues --   -0.72481  -0.69087  -0.67154  -0.66036  -0.63734
  Beta  occ. eigenvalues --   -0.61980  -0.56546  -0.53809  -0.53145  -0.52227
  Beta  occ. eigenvalues --   -0.50282  -0.47095  -0.46753  -0.42355  -0.41867
  Beta  occ. eigenvalues --   -0.41311  -0.40046  -0.39712  -0.38943  -0.38177
  Beta  occ. eigenvalues --   -0.37304  -0.36479  -0.35466  -0.35094  -0.34145
  Beta  occ. eigenvalues --   -0.33649  -0.32781  -0.31789  -0.30711  -0.30492
  Beta  occ. eigenvalues --   -0.29596  -0.29271  -0.28235  -0.27712  -0.26099
  Beta  occ. eigenvalues --   -0.25832  -0.25690  -0.24769  -0.24187  -0.18699
  Beta  occ. eigenvalues --   -0.18210  -0.17867  -0.17578  -0.16603  -0.15035
  Beta virt. eigenvalues --    0.05759   0.05990   0.06522   0.07027   0.07362
  Beta virt. eigenvalues --    0.07409   0.08035   0.08482   0.08700   0.09041
  Beta virt. eigenvalues --    0.09622   0.09786   0.10516   0.10662   0.11211

 Mulliken charges and spin densities:
               1          2
     1  C    0.352730  -1.099092
     2  C   -0.064094   0.765833
     3  C   -0.701337   0.353737
     4  C    1.362645  -1.954900
     5  N   -0.363323   0.198797
     6  C   -0.738381   0.427163
     7  O   -0.335554   0.018599
     8  C    0.727976  -1.239267
     9  N   -0.107257   0.055695
    10  C   -0.090900  -0.022315
    11  O   -0.283928   0.001305
    12  C   -0.063954  -0.164079
    13  O    0.021598  -0.009542
    14  C   -0.026097  -0.325237
    15  C   -1.001791   1.080542
    16  C    0.238087  -0.466493
    17  C    0.677888  -1.057644
    18  C   -0.583451   0.403027
    19  C    0.673213  -0.407918
    20  H   -0.256634   0.432945
    21  H    0.084243   0.094453
    22  H    0.121463   0.017451
    23  H    0.851001  -0.617095
    24  H   -0.031886   0.206655
    25  H   -0.460109   0.648147
    26  H   -0.124913   0.316442
    27  H   -1.041956   1.249598
    28  H   -0.134410   0.459599
    29  H    0.132936   0.167980
    30  H    0.338347  -0.011981
    31  H    0.110431   0.072546
    32  H    0.148726   0.079817
    33  H   -0.156503   0.352088
    34  H   -0.479150   0.668400
    35  H   -0.059832   0.207754
    36  H    0.002686   0.171222
    37  H    0.261490  -0.074232
 Sum of Mulliken charges =  -1.00000   1.00000

 Dipole moment (field-independent basis, Debye):
    X=              5.1929    Y=              5.0953    Z=              0.2216  Tot=              7.2786
 Quadrupole moment (field-independent basis, Debye-Ang):
   XX=           -198.7639   YY=           -185.1971   ZZ=           -142.7579
   XY=             -4.6274   XZ=             -4.6135   YZ=             -9.1765

 Summary of Natural Population Analysis:

                                       Natural Population
                Natural  -----------------------------------------------
    Atom  No    Charge         Core      Valence    Rydberg      Total
 -----------------------------------------------------------------------
      C    1   -0.29055      0.99964     2.28477    0.00614     3.29055
      C    2   -0.11929      0.99957     2.10770    0.01202     3.11929
      C    3   -0.19272      0.99961     2.18299    0.01013     3.19272
      C    4   -0.08364      0.99961     2.07277    0.01127     3.08364
      N    5   -0.31541      0.99967     2.80519    0.01055     3.81541
      C    6    0.34527      0.99964     1.63196    0.02313     2.65473
      O    7   -0.32552      0.99988     3.31993    0.00572     4.32552
      C    8   -0.04952      0.99952     2.03631    0.01369     3.04952
      N    9   -0.31195      0.99964     2.80229    0.01001     3.81195
      C   10    0.32950      0.99968     1.64893    0.02189     2.67050
      O   11   -0.32133      0.99988     3.31577    0.00568     4.32133
      C   12   -0.05515      0.99953     2.04496    0.01067     3.05515
      O   13   -0.27665      0.99986     3.26713    0.00966     4.27665
      C   14    0.15444      0.99937     1.83205    0.01414     2.84556
      C   15   -0.12040      0.99952     2.11026    0.01063     3.12040
      C   16   -0.09109      0.99957     2.08138    0.01013     3.09109
      C   17   -0.11741      0.99956     2.10744    0.01041     3.11741
      C   18   -0.08875      0.99957     2.08007    0.00910     3.08875
      C   19   -0.14642      0.99951     2.13952    0.00739     3.14642
      H   20    0.10577      0.00000     0.39337    0.00086     0.39423
      H   21    0.09720      0.00000     0.40181    0.00099     0.40280
      H   22    0.10380      0.00000     0.39511    0.00109     0.39620
      H   23    0.10953      0.00000     0.38723    0.00324     0.39047
      H   24    0.10147      0.00000     0.39662    0.00191     0.39853
      H   25    0.11087      0.00000     0.38708    0.00205     0.38913
      H   26    0.09289      0.00000     0.40461    0.00250     0.40711
      H   27    0.10370      0.00000     0.39199    0.00432     0.39630
      H   28    0.19601      0.00000     0.30110    0.00290     0.30399
      H   29    0.11523      0.00000     0.38286    0.00192     0.38477
      H   30    0.20602      0.00000     0.29155    0.00243     0.29398
      H   31    0.10479      0.00000     0.39427    0.00094     0.39521
      H   32    0.09968      0.00000     0.39908    0.00124     0.40032
      H   33    0.11019      0.00000     0.38831    0.00150     0.38981
      H   34    0.10420      0.00000     0.39458    0.00122     0.39580
      H   35    0.10187      0.00000     0.39731    0.00082     0.39813
      H   36    0.10052      0.00000     0.39874    0.00074     0.39948
      H   37    0.11289      0.00000     0.38514    0.00198     0.38711
 =======================================================================
   * Total *    0.00000     18.99281    50.76217    0.24502    70.00000

 Normal termination of Gaussian 16 at Sun Dec 13 13:55:39 2020.
