 Gaussian 16, Revision A.03,

 -----------------------------------------------------------
 # opt freq B3LYP/6-31G(d) empiricaldispersion=gd3bj scf=xqc
 -----------------------------------------------------------

 ------------------------------
 CID_66879063_JID_8087_neutraal
 ------------------------------
 Symbolic Z-matrix:
 Charge =  0 Multiplicity = 1

 SCF Done:  E(RB3LYP) =  -1123.47685572     A.U. after   15 cycles
 SCF Done:  E(RB3LYP) =  -1123.48297124     A.U. after   12 cycles
 SCF Done:  E(RB3LYP) =  -1123.48389656     A.U. after   11 cycles
 SCF Done:  E(RB3LYP) =  -1123.48452784     A.U. after   12 cycles
 SCF Done:  E(RB3LYP) =  -1123.48506794     A.U. after   14 cycles
 SCF Done:  E(RB3LYP) =  -1123.48537157     A.U. after   12 cycles
 SCF Done:  E(RB3LYP) =  -1123.48568273     A.U. after   11 cycles
 SCF Done:  E(RB3LYP) =  -1123.48579087     A.U. after   12 cycles
 SCF Done:  E(RB3LYP) =  -1123.48585866     A.U. after   12 cycles
 SCF Done:  E(RB3LYP) =  -1123.48599536     A.U. after   12 cycles
 SCF Done:  E(RB3LYP) =  -1123.48623539     A.U. after    9 cycles
 SCF Done:  E(RB3LYP) =  -1123.48622660     A.U. after   11 cycles
 SCF Done:  E(RB3LYP) =  -1123.48623583     A.U. after   11 cycles
 SCF Done:  E(RB3LYP) =  -1123.48623585     A.U. after    9 cycles
 SCF Done:  E(RB3LYP) =  -1123.48623590     A.U. after    8 cycles
 Optimization completed.
    -- Stationary point found.
 Normal termination of Gaussian 16 at Fri Dec 11 19:14:41 2020.

 --------------------------------------------------------------------
 #N Geom=AllCheck Guess=TCheck SCRF=Check GenChk RB3LYP/6-31G(d) Freq
 --------------------------------------------------------------------

 Structure from the checkpoint file:  "JID_8087.chk"
 ------------------------------
 CID_66879063_JID_8087_neutraal
 ------------------------------
 Charge =  0 Multiplicity = 1

 SCF Done:  E(RB3LYP) =  -1123.48623590     A.U. after    1 cycles

  Exact polarizability: 189.448 -15.546 172.584  -2.675  11.344 153.012
 Approx polarizability: 250.326 -23.296 268.970  -6.482  36.786 277.642

                      1                      2                      3
                      A                      A                      A
 Frequencies --     14.6084                18.9608                25.2510
 Red. masses --      5.1702                 3.7313                 3.5979
 Frc consts  --      0.0007                 0.0008                 0.0014
 IR Inten    --      0.1325                 0.0681                 0.9957

                      4                      5                      6
                      A                      A                      A
 Frequencies --     36.2918                49.9374                58.5887
 Red. masses --      3.9856                 4.5416                 6.7474
 Frc consts  --      0.0031                 0.0067                 0.0136
 IR Inten    --      0.3137                 1.0890                 0.4012

                      7                      8                      9
                      A                      A                      A
 Frequencies --     85.7384               144.3253               172.0810
 Red. masses --      4.4298                 3.1110                 4.2569
 Frc consts  --      0.0192                 0.0382                 0.0743
 IR Inten    --      1.4119                 4.8608                 3.8066

                     10                     11                     12
                      A                      A                      A
 Frequencies --    195.4404               218.7392               256.2605
 Red. masses --      4.7653                 1.9492                 2.2892
 Frc consts  --      0.1072                 0.0549                 0.0886
 IR Inten    --      0.2400                22.6941                 7.6843

                     13                     14                     15
                      A                      A                      A
 Frequencies --    271.9358               295.7379               309.4666
 Red. masses --      4.0567                 2.4071                 3.7752
 Frc consts  --      0.1767                 0.1240                 0.2130
 IR Inten    --     12.3692                17.7051                 4.4656

                     16                     17                     18
                      A                      A                      A
 Frequencies --    349.2364               373.8252               416.4298
 Red. masses --      2.1373                 2.1723                 2.9976
 Frc consts  --      0.1536                 0.1789                 0.3063
 IR Inten    --      0.4028                 4.5450                 0.0870

                     19                     20                     21
                      A                      A                      A
 Frequencies --    424.0235               471.3781               476.3716
 Red. masses --      1.9655                 2.1202                 2.5614
 Frc consts  --      0.2082                 0.2776                 0.3425
 IR Inten    --     19.0739                38.2788                20.6432

                     22                     23                     24
                      A                      A                      A
 Frequencies --    503.4736               556.3193               569.2628
 Red. masses --      2.5214                 5.2581                 3.1324
 Frc consts  --      0.3766                 0.9588                 0.5981
 IR Inten    --     34.0736                 3.9187                 1.5957

                     25                     26                     27
                      A                      A                      A
 Frequencies --    590.6980               606.2866               636.9165
 Red. masses --      3.1939                 5.5517                 6.3640
 Frc consts  --      0.6566                 1.2023                 1.5210
 IR Inten    --     14.4259                16.0772                12.7138

                     28                     29                     30
                      A                      A                      A
 Frequencies --    640.5100               700.2494               712.7915
 Red. masses --      6.3185                 5.3756                 2.4348
 Frc consts  --      1.5273                 1.5530                 0.7288
 IR Inten    --      9.6431                20.5795                 6.5852

                     31                     32                     33
                      A                      A                      A
 Frequencies --    739.1774               749.4182               760.3383
 Red. masses --      2.4455                 1.5319                 2.8528
 Frc consts  --      0.7872                 0.5069                 0.9717
 IR Inten    --     38.4580                 3.1294                33.3166

                     34                     35                     36
                      A                      A                      A
 Frequencies --    806.5913               810.7213               845.3199
 Red. masses --      3.1597                 3.3979                 3.7312
 Frc consts  --      1.2112                 1.3159                 1.5709
 IR Inten    --      7.8220                 4.7622                 1.5428

                     37                     38                     39
                      A                      A                      A
 Frequencies --    860.8635               864.3362               904.8868
 Red. masses --      1.2517                 1.3044                 1.8373
 Frc consts  --      0.5466                 0.5742                 0.8864
 IR Inten    --      0.3301               154.9788                 5.2641

                     40                     41                     42
                      A                      A                      A
 Frequencies --    923.4861               927.4677               961.5032
 Red. masses --      1.6249                 1.8647                 1.9582
 Frc consts  --      0.8165                 0.9450                 1.0666
 IR Inten    --      5.2448                 2.6275                 4.7862

                     43                     44                     45
                      A                      A                      A
 Frequencies --    967.4589               993.9703              1006.1218
 Red. masses --      1.3484                 1.2590                 4.1264
 Frc consts  --      0.7436                 0.7329                 2.4611
 IR Inten    --      0.2128                 0.1991                 8.8419

                     46                     47                     48
                      A                      A                      A
 Frequencies --   1022.7775              1031.2974              1050.1668
 Red. masses --      6.2541                 1.6334                 1.7879
 Frc consts  --      3.8546                 1.0236                 1.1618
 IR Inten    --      0.8750                 5.5760                19.4107

                     49                     50                     51
                      A                      A                      A
 Frequencies --   1061.3782              1086.7912              1113.5137
 Red. masses --      2.2268                 2.1573                 1.5806
 Frc consts  --      1.4780                 1.5012                 1.1547
 IR Inten    --      3.9817                 7.1742                 2.3674

                     52                     53                     54
                      A                      A                      A
 Frequencies --   1119.1987              1149.9966              1187.4246
 Red. masses --      2.4473                 1.9160                 1.5680
 Frc consts  --      1.8062                 1.4929                 1.3026
 IR Inten    --      8.0976                12.4916                17.9655

                     55                     56                     57
                      A                      A                      A
 Frequencies --   1192.9217              1199.9342              1215.5795
 Red. masses --      1.1070                 1.3334                 1.1471
 Frc consts  --      0.9282                 1.1312                 0.9986
 IR Inten    --      0.1208                11.6428                 2.0686

                     58                     59                     60
                      A                      A                      A
 Frequencies --   1226.9579              1227.8431              1261.5060
 Red. masses --      2.5368                 1.2569                 1.7552
 Frc consts  --      2.2501                 1.1165                 1.6457
 IR Inten    --      4.0868                 4.2009                23.9312

                     61                     62                     63
                      A                      A                      A
 Frequencies --   1320.1397              1334.1895              1345.5189
 Red. masses --      1.3975                 1.5720                 2.0841
 Frc consts  --      1.4349                 1.6487                 2.2230
 IR Inten    --     22.2746                 1.5721                29.7747

                     64                     65                     66
                      A                      A                      A
 Frequencies --   1358.2021              1365.6744              1369.4873
 Red. masses --      3.2807                 1.2056                 1.8203
 Frc consts  --      3.5657                 1.3248                 2.0114
 IR Inten    --     64.2938                10.3423                10.9136

                     67                     68                     69
                      A                      A                      A
 Frequencies --   1387.1936              1392.6951              1405.0314
 Red. masses --      2.0059                 1.5811                 1.5464
 Frc consts  --      2.2742                 1.8068                 1.7986
 IR Inten    --    116.7412                 2.2183                 5.0846

                     70                     71                     72
                      A                      A                      A
 Frequencies --   1422.3242              1450.9351              1460.3590
 Red. masses --      1.3565                 1.4381                 1.5043
 Frc consts  --      1.6169                 1.7838                 1.8902
 IR Inten    --     15.2781                20.3044                23.5314

                     73                     74                     75
                      A                      A                      A
 Frequencies --   1498.4891              1505.5455              1509.6711
 Red. masses --      1.1911                 2.0058                 1.0794
 Frc consts  --      1.5758                 2.6787                 1.4495
 IR Inten    --     12.6418                 5.2723                 2.5515

                     76                     77                     78
                      A                      A                      A
 Frequencies --   1517.0512              1523.4947              1540.5700
 Red. masses --      1.1543                 1.1285                 3.2697
 Frc consts  --      1.5653                 1.5433                 4.5721
 IR Inten    --     22.5921                16.4346                47.8149

                     79                     80                     81
                      A                      A                      A
 Frequencies --   1545.0437              1548.5755              1627.7098
 Red. masses --      1.1843                 2.2565                 5.0786
 Frc consts  --      1.6657                 3.1882                 7.9278
 IR Inten    --     15.8662                11.4766               475.3355

                     82                     83                     84
                      A                      A                      A
 Frequencies --   1649.0397              1667.9090              1701.4765
 Red. masses --      5.5912                 5.5779                 1.0895
 Frc consts  --      8.9581                 9.1424                 1.8584
 IR Inten    --      1.9865                 4.5793                31.2053

                     85                     86                     87
                      A                      A                      A
 Frequencies --   2920.4964              3049.8663              3051.5663
 Red. masses --      1.0746                 1.0665                 1.0617
 Frc consts  --      5.4004                 5.8446                 5.8252
 IR Inten    --    113.5697                13.0882                12.1016

                     88                     89                     90
                      A                      A                      A
 Frequencies --   3061.3303              3074.9558              3081.4919
 Red. masses --      1.0631                 1.0589                 1.0868
 Frc consts  --      5.8699                 5.8989                 6.0801
 IR Inten    --     31.7843                17.0711                33.4358

                     91                     92                     93
                      A                      A                      A
 Frequencies --   3089.7315              3100.9920              3110.3520
 Red. masses --      1.1001                 1.1011                 1.1014
 Frc consts  --      6.1877                 6.2383                 6.2779
 IR Inten    --     11.7658                36.0789                56.5173

                     94                     95                     96
                      A                      A                      A
 Frequencies --   3123.4132              3177.2747              3182.9751
 Red. masses --      1.1053                 1.0847                 1.0872
 Frc consts  --      6.3529                 6.4518                 6.4896
 IR Inten    --      5.8646                 3.5871                 0.4698

                     97                     98                     99
                      A                      A                      A
 Frequencies --   3191.7370              3198.9086              3208.8949
 Red. masses --      1.0909                 1.0944                 1.0981
 Frc consts  --      6.5476                 6.5983                 6.6620
 IR Inten    --     16.9137                37.6297                21.8643

                    100                    101                    102
                      A                      A                      A
 Frequencies --   3473.4620              3556.2938              3598.3879
 Red. masses --      1.0498                 1.0923                 1.0758
 Frc consts  --      7.4626                 8.1390                 8.2069
 IR Inten    --      1.5222                 0.6024                32.4373

 - Thermochemistry -
 -------------------
 Temperature   298.150 Kelvin.  Pressure   1.00000 Atm.
 Atom     1 has atomic number  6 and mass  12.00000

 Molecular mass:   262.12522 amu.
 Principal axes and moments of inertia in atomic units:
                           1         2         3
     Eigenvalues --  3356.226959355.63580**********
           X            0.99995   0.01030   0.00046
           Y           -0.01030   0.99994  -0.00342
           Z           -0.00049   0.00342   0.99999
 This molecule is an asymmetric top.
 Rotational symmetry number  1.
 Warning -- assumption of classical behavior for rotation
           may cause significant error
 Rotational temperatures (Kelvin)      0.02581     0.00926     0.00765
 Rotational constants (GHZ):           0.53773     0.19290     0.15940
 Zero-point vibrational energy     796405.1 (Joules/Mol)
                                  190.34539 (Kcal/Mol)
 Warning -- explicit consideration of  26 degrees of freedom as
           vibrations may cause significant error
 Vibrational temperatures:     21.02    27.28    36.33    52.22    71.85
          (Kelvin)             84.30   123.36   207.65   247.59   281.20
                              314.72   368.70   391.25   425.50   445.25
                              502.47   537.85   599.15   610.08   678.21
                              685.39   724.39   800.42   819.04   849.88
                              872.31   916.38   921.55  1007.50  1025.55
                             1063.51  1078.25  1093.96  1160.51  1166.45
                             1216.23  1238.59  1243.59  1301.93  1328.69
                             1334.42  1383.39  1391.96  1430.10  1447.58
                             1471.55  1483.81  1510.96  1527.09  1563.65
                             1602.10  1610.28  1654.59  1708.44  1716.35
                             1726.44  1748.95  1765.32  1766.59  1815.03
                             1899.39  1919.60  1935.90  1954.15  1964.90
                             1970.39  1995.86  2003.78  2021.53  2046.41
                             2087.57  2101.13  2155.99  2166.14  2172.08
                             2182.70  2191.97  2216.54  2222.97  2228.05
                             2341.91  2372.60  2399.75  2448.05  4201.94
                             4388.08  4390.52  4404.57  4424.18  4433.58
                             4445.43  4461.64  4475.10  4493.89  4571.39
                             4579.59  4592.20  4602.52  4616.88  4997.54
                             5116.71  5177.28

 Zero-point correction=                           0.303335 (Hartree/Particle)
 Thermal correction to Energy=                    0.320853
 Thermal correction to Enthalpy=                  0.321797
 Thermal correction to Gibbs Free Energy=         0.253403
 Sum of electronic and zero-point Energies=          -1123.182901
 Sum of electronic and thermal Energies=             -1123.165383
 Sum of electronic and thermal Enthalpies=           -1123.164439
 Sum of electronic and thermal Free Energies=        -1123.232833

                     E (Thermal)             CV                S
                      KCal/Mol        Cal/Mol-Kelvin    Cal/Mol-Kelvin
 Total                  201.338             65.742            143.948
 Electronic               0.000              0.000              0.000
 Translational            0.889              2.981             42.590
 Rotational               0.889              2.981             34.230
 Vibrational            199.561             59.781             67.128
 Vibration     1          0.593              1.986              7.258
 Vibration     2          0.593              1.986              6.740
 Vibration     3          0.593              1.985              6.171
 Vibration     4          0.594              1.982              5.452
 Vibration     5          0.595              1.978              4.820
 Vibration     6          0.596              1.974              4.504
 Vibration     7          0.601              1.959              3.755
 Vibration     8          0.616              1.909              2.746
 Vibration     9          0.626              1.877              2.413
 Vibration    10          0.636              1.846              2.176
 Vibration    11          0.647              1.813              1.970
 Vibration    12          0.666              1.752              1.687
 Vibration    13          0.675              1.725              1.584
 Vibration    14          0.690              1.682              1.441
 Vibration    15          0.699              1.656              1.365
 Vibration    16          0.726              1.577              1.170
 Vibration    17          0.745              1.526              1.064
 Vibration    18          0.780              1.435              0.904
 Vibration    19          0.786              1.418              0.878
 Vibration    20          0.828              1.314              0.734
 Vibration    21          0.833              1.302              0.720
 Vibration    22          0.859              1.242              0.649
 Vibration    23          0.912              1.126              0.531
 Vibration    24          0.925              1.098              0.506
 Vibration    25          0.948              1.052              0.466
 Vibration    26          0.965              1.018              0.439

 Optimization completed.
    -- Stationary point found.
 Normal termination of Gaussian 16 at Fri Dec 11 19:29:55 2020.

 ----------------------------------------------------------------------
 # B3LYP/6-311++G(d,p) empiricaldispersion=gd3bj scf=xqc pop=npa geom=c
 heck
 ----------------------------------------------------------------------

 --------------------------------------
 CID_66879063_JID_8087_Energie_neutraal
 --------------------------------------
 Structure from the checkpoint file:  "JID_8087.chk"
 Charge =  0 Multiplicity = 1

 SCF Done:  E(RB3LYP) =  -1123.71701999     A.U. after   15 cycles
 Normal termination of Gaussian 16 at Fri Dec 11 19:37:41 2020.

 ----------------------------------------------------------------------
 # B3LYP/6-311++G(d,p) empiricaldispersion=gd3bj scf=xqc pop=npa geom=c
 heck
 ----------------------------------------------------------------------

 ------------------------------------
 CID_66879063_JID_8087_Energie_kation
 ------------------------------------
 Structure from the checkpoint file:  "JID_8087.chk"
 Charge =  1 Multiplicity = 2

 SCF Done:  E(UB3LYP) =  -1123.42578860     A.U. after   29 cycles
 Normal termination of Gaussian 16 at Fri Dec 11 19:59:26 2020.
 Gaussian 16:  ES64L-G16RevA.03 25-Dec-2016

 ----------------------------------------------------------------------
 # B3LYP/6-311++G(d,p) empiricaldispersion=gd3bj scf=xqc pop=npa geom=c
 heck
 ----------------------------------------------------------------------

 -----------------------------------
 CID_66879063_JID_8087_Energie_anion
 -----------------------------------
 Structure from the checkpoint file:  "JID_8087.chk"
 Charge = -1 Multiplicity = 2

                         Standard orientation:
 ---------------------------------------------------------------------
 Center     Atomic      Atomic             Coordinates (Angstroms)
 Number     Number       Type             X           Y           Z
 ---------------------------------------------------------------------
      1          6           0       -4.085347    2.494024   -0.620875
      2          6           0       -4.027280    2.242420    0.749475
      3          6           0       -3.599775    0.997592    1.215131
      4          6           0       -3.230997   -0.008751    0.319544
      5          6           0       -3.286757    0.253007   -1.055115
      6          6           0       -3.712304    1.494525   -1.522821
      7          6           0       -2.755846   -1.364008    0.812712
      8          6           0       -1.319073   -1.603547    0.435881
      9          7           0       -1.027911   -2.411962   -0.558415
     10         16           0        0.660446   -2.374974   -0.765978
     11          6           0        0.831436   -1.229563    0.567041
     12          7           0       -0.329582   -0.916924    1.096035
     13          7           0        2.019192   -0.762896    1.020734
     14          6           0        3.256253   -0.843807    0.253326
     15          6           0        3.319940    0.107493   -0.952060
     16          6           0        3.083456    1.584045   -0.604804
     17          6           0        4.038304    2.155053    0.447773
     18          7           0        5.432389    2.062615    0.003979
     19          1           0       -4.417990    3.462057   -0.985199
     20          1           0       -4.312820    3.014794    1.458578
     21          1           0       -3.549903    0.805459    2.283914
     22          1           0       -2.984822   -0.522908   -1.753970
     23          1           0       -3.753029    1.683440   -2.592201
     24          1           0       -2.851739   -1.418792    1.901727
     25          1           0       -3.359341   -2.164424    0.374416
     26          1           0        1.929063   -0.011638    1.693410
     27          1           0        4.074102   -0.643740    0.952742
     28          1           0        3.381879   -1.881934   -0.077513
     29          1           0        4.299707   -0.013867   -1.431891
     30          1           0        2.575336   -0.206996   -1.692225
     31          1           0        3.185523    2.176174   -1.520807
     32          1           0        2.051788    1.713837   -0.252902
     33          1           0        3.805607    3.216563    0.588551
     34          1           0        3.848878    1.670239    1.425739
     35          1           0        6.036590    2.561627    0.653976
     36          1           0        5.743355    1.092964    0.021743
 ---------------------------------------------------------------------

 SCF Done:  E(UB3LYP) =  -1123.71065459     A.U. after   33 cycles
 SCF Done:  E(UB3LYP) =  -1123.71065459     a.u. after    1 cycles

 The electronic state is 2-A.
 Alpha  occ. eigenvalues --  -88.79630 -14.25386 -14.22401 -14.21057 -14.18929
 Alpha  occ. eigenvalues --  -10.17866 -10.14392 -10.11935 -10.09726 -10.09439
 Alpha  occ. eigenvalues --  -10.09209 -10.09206 -10.09164 -10.08910 -10.08821
 Alpha  occ. eigenvalues --  -10.08656 -10.07644 -10.07010  -7.88108  -5.84498
 Alpha  occ. eigenvalues --   -5.84062  -5.83575  -0.91517  -0.85594  -0.78239
 Alpha  occ. eigenvalues --   -0.77572  -0.76892  -0.71067  -0.69000  -0.66323
 Alpha  occ. eigenvalues --   -0.65942  -0.62097  -0.60282  -0.55784  -0.52438
 Alpha  occ. eigenvalues --   -0.51167  -0.50658  -0.48413  -0.46740  -0.43197
 Alpha  occ. eigenvalues --   -0.41565  -0.40537  -0.38951  -0.38483  -0.37930
 Alpha  occ. eigenvalues --   -0.37341  -0.35681  -0.34568  -0.34307  -0.33918
 Alpha  occ. eigenvalues --   -0.33240  -0.31702  -0.31396  -0.30698  -0.28745
 Alpha  occ. eigenvalues --   -0.28455  -0.27308  -0.26485  -0.25798  -0.25749
 Alpha  occ. eigenvalues --   -0.24746  -0.23582  -0.22997  -0.22144  -0.18654
 Alpha  occ. eigenvalues --   -0.18448  -0.17241  -0.16305  -0.14417  -0.13416
 Alpha  occ. eigenvalues --    0.03945
 Alpha virt. eigenvalues --    0.05397   0.05945   0.06698   0.07038   0.07448
 Alpha virt. eigenvalues --    0.07511   0.07705   0.08344   0.08515   0.08952
 Alpha virt. eigenvalues --    0.09316   0.09766   0.10544   0.10997   0.11179

  Beta  occ. eigenvalues --  -88.79620 -14.25366 -14.22318 -14.21076 -14.18869
  Beta  occ. eigenvalues --  -10.17792 -10.14353 -10.11899 -10.09678 -10.09445
  Beta  occ. eigenvalues --  -10.09206 -10.09172 -10.09156 -10.08862 -10.08804
  Beta  occ. eigenvalues --  -10.08651 -10.07627 -10.07006  -7.88097  -5.84492
  Beta  occ. eigenvalues --   -5.84056  -5.83547  -0.91438  -0.85523  -0.78146
  Beta  occ. eigenvalues --   -0.77512  -0.76816  -0.70990  -0.68946  -0.66276
  Beta  occ. eigenvalues --   -0.65857  -0.62019  -0.60220  -0.55692  -0.52416
  Beta  occ. eigenvalues --   -0.51073  -0.50562  -0.48352  -0.46663  -0.43158
  Beta  occ. eigenvalues --   -0.41499  -0.40465  -0.38884  -0.38410  -0.37867
  Beta  occ. eigenvalues --   -0.37287  -0.35551  -0.34508  -0.34236  -0.33899
  Beta  occ. eigenvalues --   -0.33170  -0.31611  -0.31336  -0.30625  -0.28692
  Beta  occ. eigenvalues --   -0.28375  -0.27207  -0.26415  -0.25751  -0.25707
  Beta  occ. eigenvalues --   -0.24702  -0.23544  -0.22810  -0.22046  -0.18537
  Beta  occ. eigenvalues --   -0.18408  -0.17137  -0.16097  -0.14338  -0.13234
  Beta virt. eigenvalues --    0.05662   0.06331   0.06724   0.06812   0.07116
  Beta virt. eigenvalues --    0.07469   0.08021   0.08083   0.08892   0.08961
  Beta virt. eigenvalues --    0.09035   0.09338   0.09741   0.10828   0.11269

 Mulliken charges and spin densities:
               1          2
     1  C   -0.101653  -0.319819
     2  C   -0.200752  -0.152501
     3  C   -0.387952   0.089925
     4  C    1.151645   0.159437
     5  C   -0.674760   0.266344
     6  C   -0.339008   0.071801
     7  C   -0.495876  -0.380367
     8  C   -1.038930  -0.077145
     9  N    0.098020   0.049354
    10  S    0.333089  -0.108937
    11  C    0.291712   0.033977
    12  N   -0.026390   0.006104
    13  N   -0.017889   0.073008
    14  C    0.693740  -1.080893
    15  C    0.149766  -0.054953
    16  C   -0.915492   0.542438
    17  C    1.721436  -2.147714
    18  N   -0.503541   0.156565
    19  H    0.034737   0.092774
    20  H   -0.014048   0.178788
    21  H    0.010606   0.135369
    22  H    0.153639   0.022832
    23  H    0.070047   0.095806
    24  H    0.129620   0.030345
    25  H    0.151727   0.036067
    26  H    0.219760   0.093405
    27  H   -0.617429   0.840364
    28  H   -0.080642   0.239701
    29  H   -0.098171   0.280638
    30  H   -0.031250   0.130056
    31  H    0.011296   0.138641
    32  H    0.280325  -0.116426
    33  H   -0.164989   0.319987
    34  H   -0.471156   0.574825
    35  H   -0.266256   0.511359
    36  H   -0.054980   0.268847
 Sum of Mulliken charges =  -1.00000   1.00000

 Dipole moment (field-independent basis, Debye):
    X=             -9.7765    Y=             -2.3697    Z=             -1.7152  Tot=             10.2047
 Quadrupole moment (field-independent basis, Debye-Ang):
   XX=           -239.3669   YY=           -157.8090   ZZ=           -142.3205
   XY=            -17.2662   XZ=            -10.0765   YZ=             -4.1028

 Summary of Natural Population Analysis:

                                       Natural Population
                Natural  -----------------------------------------------
    Atom  No    Charge         Core      Valence    Rydberg      Total
 -----------------------------------------------------------------------
      C    1   -0.10162      0.99957     2.09216    0.00988     3.10162
      C    2   -0.10248      0.99957     2.09278    0.01013     3.10248
      C    3   -0.09702      0.99951     2.08819    0.00931     3.09702
      C    4   -0.00101      0.99950     1.99223    0.00928     3.00101
      C    5   -0.09966      0.99951     2.09198    0.00817     3.09966
      C    6   -0.10061      0.99957     2.09109    0.00994     3.10061
      C    7   -0.21261      0.99955     2.20298    0.01008     3.21261
      C    8    0.21029      0.99962     1.77096    0.01913     2.78971
      N    9   -0.32379      0.99968     2.81342    0.01069     3.82379
      S   10    0.23447      4.99947     2.74251    0.02356     7.76553
      C   11    0.15337      0.99961     1.82602    0.02101     2.84663
      N   12   -0.29437      0.99962     2.78361    0.01114     3.79437
      N   13   -0.30795      0.99964     2.79635    0.01195     3.80795
      C   14   -0.09217      0.99961     2.08033    0.01223     3.09217
      C   15   -0.20252      0.99962     2.19419    0.00871     3.20252
      C   16   -0.19536      0.99962     2.18797    0.00777     3.19536
      C   17   -0.09047      0.99964     2.07851    0.01232     3.09047
      N   18   -0.42544      0.99977     2.91434    0.01133     3.92544
      H   19    0.09806      0.00000     0.40114    0.00080     0.40194
      H   20    0.09897      0.00000     0.40016    0.00087     0.40103
      H   21    0.09969      0.00000     0.39913    0.00118     0.40031
      H   22    0.10517      0.00000     0.39303    0.00180     0.39483
      H   23    0.09867      0.00000     0.40052    0.00082     0.40133
      H   24    0.10877      0.00000     0.38993    0.00131     0.39123
      H   25    0.11248      0.00000     0.38593    0.00159     0.38752
      H   26    0.19812      0.00000     0.29850    0.00338     0.30188
      H   27    0.10607      0.00000     0.39154    0.00240     0.39393
      H   28    0.09893      0.00000     0.39967    0.00140     0.40107
      H   29    0.10337      0.00000     0.39551    0.00112     0.39663
      H   30    0.10079      0.00000     0.39783    0.00138     0.39921
      H   31    0.10085      0.00000     0.39800    0.00115     0.39915
      H   32    0.09746      0.00000     0.40123    0.00131     0.40254
      H   33    0.09193      0.00000     0.40694    0.00113     0.40807
      H   34    0.07526      0.00000     0.42207    0.00267     0.42474
      H   35    0.17940      0.00000     0.31693    0.00368     0.32060
      H   36    0.17497      0.00000     0.32095    0.00408     0.32503
 =======================================================================
   * Total *   -0.00000     21.99270    47.75863    0.24868    70.00000

 Normal termination of Gaussian 16 at Fri Dec 11 20:24:12 2020.
