 Gaussian 16, Revision A.03,

 -----------------------------------------------------------
 # opt freq B3LYP/6-31G(d) empiricaldispersion=gd3bj scf=xqc
 -----------------------------------------------------------

 ------------------------------
 CID_96601789_JID_7725_neutraal
 ------------------------------
 Symbolic Z-matrix:
 Charge =  0 Multiplicity = 1

 SCF Done:  E(RB3LYP) =  -724.111136409     A.U. after   15 cycles
 SCF Done:  E(RB3LYP) =  -724.121614441     A.U. after   12 cycles
 SCF Done:  E(RB3LYP) =  -724.122804666     A.U. after   12 cycles
 SCF Done:  E(RB3LYP) =  -724.124480382     A.U. after   12 cycles
 SCF Done:  E(RB3LYP) =  -724.125056962     A.U. after   12 cycles
 SCF Done:  E(RB3LYP) =  -724.125333067     A.U. after   12 cycles
 SCF Done:  E(RB3LYP) =  -724.125455540     A.U. after   11 cycles
 SCF Done:  E(RB3LYP) =  -724.125611871     A.U. after   11 cycles
 SCF Done:  E(RB3LYP) =  -724.125667073     A.U. after   11 cycles
 SCF Done:  E(RB3LYP) =  -724.125691278     A.U. after   10 cycles
 SCF Done:  E(RB3LYP) =  -724.126423074     A.U. after   12 cycles
 SCF Done:  E(RB3LYP) =  -724.126421886     A.U. after    9 cycles
 SCF Done:  E(RB3LYP) =  -724.126424885     A.U. after    9 cycles
 SCF Done:  E(RB3LYP) =  -724.126424937     A.U. after    7 cycles
 SCF Done:  E(RB3LYP) =  -724.126425030     A.U. after    6 cycles
 SCF Done:  E(RB3LYP) =  -724.126425039     A.U. after    6 cycles
 Optimization completed.
    -- Stationary point found.
 Normal termination of Gaussian 16 at Fri Dec 11 13:24:52 2020.

 --------------------------------------------------------------------
 #N Geom=AllCheck Guess=TCheck SCRF=Check GenChk RB3LYP/6-31G(d) Freq
 --------------------------------------------------------------------

 Structure from the checkpoint file:  "JID_7725.chk"
 ------------------------------
 CID_96601789_JID_7725_neutraal
 ------------------------------
 Charge =  0 Multiplicity = 1

 SCF Done:  E(RB3LYP) =  -724.126425039     A.U. after    1 cycles

  Exact polarizability: 226.995   8.653 167.373   6.825  -3.260  90.655
 Approx polarizability: 325.930  16.310 298.856  18.613 -14.239 143.180

                      1                      2                      3
                      A                      A                      A
 Frequencies --     52.9882                64.5989                89.0173
 Red. masses --      3.7710                 2.7228                 1.1050
 Frc consts  --      0.0062                 0.0067                 0.0052
 IR Inten    --      0.1066                 0.2157                 0.7311

                      4                      5                      6
                      A                      A                      A
 Frequencies --    108.3637               129.0400               188.8306
 Red. masses --      2.6346                 3.9646                 4.0079
 Frc consts  --      0.0182                 0.0389                 0.0842
 IR Inten    --      1.3769                 0.6836                 1.3812

                      7                      8                      9
                      A                      A                      A
 Frequencies --    199.9418               245.9598               283.2217
 Red. masses --      6.1172                 2.9483                 2.5487
 Frc consts  --      0.1441                 0.1051                 0.1205
 IR Inten    --      1.6581                 1.0431                 1.4066

                     10                     11                     12
                      A                      A                      A
 Frequencies --    292.3314               313.1846               351.3012
 Red. masses --      2.5228                 3.3655                 3.7367
 Frc consts  --      0.1270                 0.1945                 0.2717
 IR Inten    --      0.6749                 3.5940                 0.6363

                     13                     14                     15
                      A                      A                      A
 Frequencies --    384.7466               387.9309               412.7587
 Red. masses --      3.3248                 3.5737                 2.5950
 Frc consts  --      0.2900                 0.3169                 0.2605
 IR Inten    --     10.2679                 1.5751                15.8824

                     16                     17                     18
                      A                      A                      A
 Frequencies --    456.7685               476.7361               515.0062
 Red. masses --      3.3784                 1.5955                 2.4703
 Frc consts  --      0.4153                 0.2136                 0.3860
 IR Inten    --      1.7063                35.7919                39.3381

                     19                     20                     21
                      A                      A                      A
 Frequencies --    528.2038               555.3271               575.6418
 Red. masses --      3.4301                 7.4245                 2.8458
 Frc consts  --      0.5638                 1.3490                 0.5556
 IR Inten    --     11.2588                 2.7432                 2.1593

                     22                     23                     24
                      A                      A                      A
 Frequencies --    602.0616               609.7636               625.9082
 Red. masses --      3.0697                 3.0921                 2.4294
 Frc consts  --      0.6556                 0.6774                 0.5607
 IR Inten    --     10.8534                58.0159                65.1895

                     25                     26                     27
                      A                      A                      A
 Frequencies --    658.8842               690.0596               716.0656
 Red. masses --      2.6821                 3.4533                 5.1240
 Frc consts  --      0.6860                 0.9689                 1.5480
 IR Inten    --     48.5758                31.4950                 4.7639

                     28                     29                     30
                      A                      A                      A
 Frequencies --    753.4550               769.5347               776.8354
 Red. masses --      4.7862                 2.0545                 1.6128
 Frc consts  --      1.6009                 0.7168                 0.5734
 IR Inten    --     38.4810                 1.9635                 1.5498

                     31                     32                     33
                      A                      A                      A
 Frequencies --    814.8396               836.4662               863.6140
 Red. masses --      2.4658                 4.6127                 3.2188
 Frc consts  --      0.9646                 1.9015                 1.4144
 IR Inten    --      3.0667                11.4835                 8.3443

                     34                     35                     36
                      A                      A                      A
 Frequencies --    907.1621               915.0256               969.1365
 Red. masses --      2.6797                 2.7127                 1.4995
 Frc consts  --      1.2993                 1.3382                 0.8298
 IR Inten    --      0.4570                 4.1631                 3.2523

                     37                     38                     39
                      A                      A                      A
 Frequencies --    981.3835               992.7418              1013.2918
 Red. masses --      2.1174                 2.3170                 1.9609
 Frc consts  --      1.2015                 1.3454                 1.1863
 IR Inten    --      1.7889                11.2190                 4.4884

                     40                     41                     42
                      A                      A                      A
 Frequencies --   1032.3139              1041.5437              1076.1500
 Red. masses --      3.1161                 2.1263                 1.6349
 Frc consts  --      1.9565                 1.3591                 1.1155
 IR Inten    --     19.3649                 3.2872                 3.4855

                     43                     44                     45
                      A                      A                      A
 Frequencies --   1082.3926              1098.6667              1115.8836
 Red. masses --      2.5192                 1.9393                 2.2843
 Frc consts  --      1.7389                 1.3792                 1.6759
 IR Inten    --      1.0042                 3.1270                 2.7346

                     46                     47                     48
                      A                      A                      A
 Frequencies --   1147.9072              1174.4708              1195.7093
 Red. masses --      2.0251                 1.9119                 1.7060
 Frc consts  --      1.5722                 1.5538                 1.4371
 IR Inten    --     16.5690                 6.9321                 2.5236

                     49                     50                     51
                      A                      A                      A
 Frequencies --   1220.9044              1236.0227              1289.1556
 Red. masses --      1.5546                 1.7676                 2.1001
 Frc consts  --      1.3653                 1.5911                 2.0564
 IR Inten    --      1.0379                12.4233                 2.5651

                     52                     53                     54
                      A                      A                      A
 Frequencies --   1300.1025              1308.2758              1317.3430
 Red. masses --      1.5095                 1.2944                 1.7730
 Frc consts  --      1.5033                 1.3054                 1.8128
 IR Inten    --      1.6981                 5.3489                15.0958

                     55                     56                     57
                      A                      A                      A
 Frequencies --   1336.0556              1366.2041              1371.0660
 Red. masses --      2.9801                 1.5596                 1.3176
 Frc consts  --      3.1343                 1.7151                 1.4593
 IR Inten    --     19.3037                 2.6052                 2.1123

                     58                     59                     60
                      A                      A                      A
 Frequencies --   1385.6582              1389.5840              1408.6162
 Red. masses --      1.4561                 1.9422                 1.5416
 Frc consts  --      1.6472                 2.2096                 1.8023
 IR Inten    --      9.5898                30.2596                 4.7802

                     61                     62                     63
                      A                      A                      A
 Frequencies --   1413.3604              1420.9735              1436.6876
 Red. masses --      2.3385                 1.5667                 2.3223
 Frc consts  --      2.7523                 1.8638                 2.8242
 IR Inten    --      6.6042                 6.6431                16.8650

                     64                     65                     66
                      A                      A                      A
 Frequencies --   1449.9971              1488.7711              1498.8828
 Red. masses --      3.1343                 2.9555                 1.3723
 Frc consts  --      3.8826                 3.8596                 1.8164
 IR Inten    --     39.9364                61.4330                77.3608

                     67                     68                     69
                      A                      A                      A
 Frequencies --   1507.4155              1512.0134              1518.1211
 Red. masses --      1.0466                 1.0863                 1.0993
 Frc consts  --      1.4012                 1.4632                 1.4927
 IR Inten    --      6.7169                 1.3442                 2.0293

                     70                     71                     72
                      A                      A                      A
 Frequencies --   1526.3870              1530.9685              1542.0735
 Red. masses --      1.1311                 1.1208                 2.3356
 Frc consts  --      1.5527                 1.5478                 3.2724
 IR Inten    --      3.3069                 2.7090                36.1296

                     73                     74                     75
                      A                      A                      A
 Frequencies --   1568.5363              1596.5403              1630.0057
 Red. masses --      1.2184                 6.5572                 5.4548
 Frc consts  --      1.7661                 9.8475                 8.5390
 IR Inten    --     18.3757               199.2199               376.4773

                     76                     77                     78
                      A                      A                      A
 Frequencies --   1637.4598              1677.8473              3013.7297
 Red. masses --      6.9271                 1.3573                 1.0689
 Frc consts  --     10.9432                 2.2512                 5.7198
 IR Inten    --      5.0835               179.2064                43.5377

                     79                     80                     81
                      A                      A                      A
 Frequencies --   3036.9351              3045.6887              3053.3667
 Red. masses --      1.0666                 1.0633                 1.0644
 Frc consts  --      5.7957                 5.8115                 5.8465
 IR Inten    --     15.3635                47.4498                28.4831

                     82                     83                     84
                      A                      A                      A
 Frequencies --   3058.9534              3062.2551              3075.2046
 Red. masses --      1.0384                 1.0833                 1.0927
 Frc consts  --      5.7250                 5.9851                 6.0883
 IR Inten    --     14.9523                 2.4239                41.5638

                     85                     86                     87
                      A                      A                      A
 Frequencies --   3078.6325              3090.8300              3097.9290
 Red. masses --      1.0872                 1.0988                 1.1017
 Frc consts  --      6.0713                 6.1849                 6.2298
 IR Inten    --      5.8913                64.0983                68.1241

                     88                     89                     90
                      A                      A                      A
 Frequencies --   3113.0702              3141.6983              3146.6020
 Red. masses --      1.0999                 1.0898                 1.0924
 Frc consts  --      6.2802                 6.3375                 6.3728
 IR Inten    --     13.5321                43.7078                 5.8765

                     91                     92                     93
                      A                      A                      A
 Frequencies --   3173.0920              3560.2663              3678.7021
 Red. masses --      1.1014                 1.0485                 1.0982
 Frc consts  --      6.5338                 7.8307                 8.7565
 IR Inten    --      8.7053                28.8848                36.3248

 - Thermochemistry -
 -------------------
 Temperature   298.150 Kelvin.  Pressure   1.00000 Atm.
 Atom     1 has atomic number  6 and mass  12.00000

 Molecular mass:   228.13750 amu.
 Principal axes and moments of inertia in atomic units:
                           1         2         3
     Eigenvalues --  1852.475295223.535656671.10725
           X            1.00000  -0.00078  -0.00096
           Y            0.00078   0.99999   0.00498
           Z            0.00095  -0.00498   0.99999
 This molecule is an asymmetric top.
 Rotational symmetry number  1.
 Warning -- assumption of classical behavior for rotation
           may cause significant error
 Rotational temperatures (Kelvin)      0.04676     0.01658     0.01298
 Rotational constants (GHZ):           0.97423     0.34550     0.27053
 Zero-point vibrational energy     738007.1 (Joules/Mol)
                                  176.38793 (Kcal/Mol)
 Warning -- explicit consideration of  23 degrees of freedom as
           vibrations may cause significant error
 Vibrational temperatures:     76.24    92.94   128.08   155.91   185.66
          (Kelvin)            271.69   287.67   353.88   407.49   420.60
                              450.60   505.44   553.56   558.15   593.87
                              657.19   685.92   740.98   759.97   798.99
                              828.22   866.23   877.31   900.54   947.99
                              992.84  1030.26  1084.05  1107.19  1117.69
                             1172.37  1203.49  1242.55  1305.20  1316.52
                             1394.37  1411.99  1428.33  1457.90  1485.27
                             1498.55  1548.34  1557.32  1580.74  1605.51
                             1651.58  1689.80  1720.36  1756.61  1778.36
                             1854.81  1870.56  1882.32  1895.36  1922.29
                             1965.66  1972.66  1993.65  1999.30  2026.68
                             2033.51  2044.46  2067.07  2086.22  2142.01
                             2156.56  2168.83  2175.45  2184.24  2196.13
                             2202.72  2218.70  2256.77  2297.07  2345.21
                             2355.94  2414.05  4336.08  4369.47  4382.07
                             4393.11  4401.15  4405.90  4424.53  4429.47
                             4447.02  4457.23  4479.01  4520.20  4527.26
                             4565.37  5122.43  5292.83

 Zero-point correction=                           0.281092 (Hartree/Particle)
 Thermal correction to Energy=                    0.295166
 Thermal correction to Enthalpy=                  0.296110
 Thermal correction to Gibbs Free Energy=         0.240444
 Sum of electronic and zero-point Energies=           -723.845333
 Sum of electronic and thermal Energies=              -723.831259
 Sum of electronic and thermal Enthalpies=            -723.830315
 Sum of electronic and thermal Free Energies=         -723.885981

                     E (Thermal)             CV                S
                      KCal/Mol        Cal/Mol-Kelvin    Cal/Mol-Kelvin
 Total                  185.219             56.851            117.158
 Electronic               0.000              0.000              0.000
 Translational            0.889              2.981             42.177
 Rotational               0.889              2.981             32.534
 Vibrational            183.442             50.889             42.447
 Vibration     1          0.596              1.976              4.703
 Vibration     2          0.597              1.971              4.312
 Vibration     3          0.602              1.957              3.682
 Vibration     4          0.606              1.943              3.298
 Vibration     5          0.612              1.924              2.960
 Vibration     6          0.633              1.855              2.239
 Vibration     7          0.638              1.840              2.134
 Vibration     8          0.660              1.769              1.759
 Vibration     9          0.682              1.705              1.514
 Vibration    10          0.688              1.688              1.460
 Vibration    11          0.701              1.649              1.345
 Vibration    12          0.728              1.573              1.160
 Vibration    13          0.754              1.503              1.020
 Vibration    14          0.756              1.496              1.008
 Vibration    15          0.777              1.443              0.917
 Vibration    16          0.815              1.346              0.776
 Vibration    17          0.833              1.302              0.719
 Vibration    18          0.870              1.217              0.622
 Vibration    19          0.883              1.188              0.591
 Vibration    20          0.911              1.128              0.533
 Vibration    21          0.932              1.084              0.494
 Vibration    22          0.960              1.027              0.446
 Vibration    23          0.969              1.011              0.433

 Optimization completed.
    -- Stationary point found.
 Normal termination of Gaussian 16 at Fri Dec 11 13:37:24 2020.

 ----------------------------------------------------------------------
 # B3LYP/6-311++G(d,p) empiricaldispersion=gd3bj scf=xqc pop=npa geom=c
 heck
 ----------------------------------------------------------------------

 --------------------------------------
 CID_96601789_JID_7725_Energie_neutraal
 --------------------------------------
 Structure from the checkpoint file:  "JID_7725.chk"
 Charge =  0 Multiplicity = 1

 SCF Done:  E(RB3LYP) =  -724.314763396     A.U. after   16 cycles
 Normal termination of Gaussian 16 at Fri Dec 11 13:43:52 2020.

 ----------------------------------------------------------------------
 # B3LYP/6-311++G(d,p) empiricaldispersion=gd3bj scf=xqc pop=npa geom=c
 heck
 ----------------------------------------------------------------------

 ------------------------------------
 CID_96601789_JID_7725_Energie_kation
 ------------------------------------
 Structure from the checkpoint file:  "JID_7725.chk"
 Charge =  1 Multiplicity = 2

 SCF Done:  E(UB3LYP) =  -724.019438534     A.U. after   25 cycles
 Normal termination of Gaussian 16 at Fri Dec 11 13:58:21 2020.
 Gaussian 16:  ES64L-G16RevA.03 25-Dec-2016

 ----------------------------------------------------------------------
 # B3LYP/6-311++G(d,p) empiricaldispersion=gd3bj scf=xqc pop=npa geom=c
 heck
 ----------------------------------------------------------------------

 -----------------------------------
 CID_96601789_JID_7725_Energie_anion
 -----------------------------------
 Structure from the checkpoint file:  "JID_7725.chk"
 Charge = -1 Multiplicity = 2

                         Standard orientation:
 ---------------------------------------------------------------------
 Center     Atomic      Atomic             Coordinates (Angstroms)
 Number     Number       Type             X           Y           Z
 ---------------------------------------------------------------------
      1          6           0        4.787217   -0.171513    0.174484
      2          6           0        3.286774   -0.108326    0.116844
      3          7           0        2.612320   -1.235847    0.191054
      4          6           0        1.258065   -1.153350    0.061587
      5          7           0        0.585234   -2.326296    0.163717
      6          6           0       -0.721473   -2.292195   -0.008330
      7          6           0       -1.473309   -1.148636   -0.350249
      8          6           0       -2.962133   -1.242370   -0.580748
      9          6           0       -3.822014   -0.443794    0.444015
     10          6           0       -3.117439    0.741610    1.122259
     11          6           0       -2.553781    1.815181    0.179601
     12          6           0       -1.620574    1.259294   -0.926160
     13          6           0       -0.803685    0.069137   -0.470620
     14          6           0        0.588762    0.089766   -0.184263
     15          6           0        1.444046    1.248983   -0.086781
     16          7           0        2.755732    1.141243    0.031564
     17          7           0        0.955618    2.537876   -0.108620
     18          1           0        5.159980    0.412805    1.023269
     19          1           0        5.217237    0.271840   -0.731164
     20          1           0        5.116719   -1.207226    0.267600
     21          1           0       -1.242428   -3.244752    0.101825
     22          1           0       -3.192122   -0.890777   -1.594621
     23          1           0       -3.263961   -2.294976   -0.558640
     24          1           0       -4.148877   -1.126210    1.237480
     25          1           0       -4.734178   -0.096795   -0.057457
     26          1           0       -2.297779    0.352747    1.738047
     27          1           0       -3.820923    1.216195    1.817249
     28          1           0       -3.370150    2.367535   -0.301824
     29          1           0       -2.014033    2.550726    0.794525
     30          1           0       -2.244586    0.921217   -1.760171
     31          1           0       -0.987321    2.048571   -1.332171
     32          1           0        0.052482    2.703291    0.311774
     33          1           0        1.664887    3.214263    0.150450
 ---------------------------------------------------------------------

 SCF Done:  E(UB3LYP) =  -724.327809675     A.U. after   29 cycles

 The electronic state is 2-A.
 Alpha  occ. eigenvalues --  -14.19333 -14.14991 -14.14105 -14.13432 -10.09637
 Alpha  occ. eigenvalues --  -10.09026 -10.08498 -10.06403 -10.06142 -10.05932
 Alpha  occ. eigenvalues --  -10.05745 -10.04915 -10.04610 -10.04144 -10.03990
 Alpha  occ. eigenvalues --  -10.03338 -10.03217  -0.84501  -0.80041  -0.77322
 Alpha  occ. eigenvalues --   -0.71884  -0.70594  -0.66161  -0.64913  -0.63274
 Alpha  occ. eigenvalues --   -0.58911  -0.55683  -0.52631  -0.50986  -0.48600
 Alpha  occ. eigenvalues --   -0.45310  -0.44374  -0.40905  -0.38714  -0.38263
 Alpha  occ. eigenvalues --   -0.37043  -0.36066  -0.32792  -0.32517  -0.31349
 Alpha  occ. eigenvalues --   -0.31122  -0.29823  -0.29315  -0.27999  -0.27621
 Alpha  occ. eigenvalues --   -0.26780  -0.26569  -0.25765  -0.24383  -0.22912
 Alpha  occ. eigenvalues --   -0.22477  -0.22409  -0.21353  -0.20889  -0.18886
 Alpha  occ. eigenvalues --   -0.15568  -0.13900  -0.12686  -0.11136  -0.09758
 Alpha  occ. eigenvalues --   -0.08901   0.03990
 Alpha virt. eigenvalues --    0.06925   0.08350   0.08989   0.09157   0.09695
 Alpha virt. eigenvalues --    0.10785   0.11211   0.11463   0.11588   0.12503
 Alpha virt. eigenvalues --    0.12542   0.13246   0.13500   0.14261   0.14642

  Beta  occ. eigenvalues --  -14.19261 -14.14939 -14.13973 -14.13095 -10.09286
  Beta  occ. eigenvalues --  -10.08960 -10.08539 -10.06395 -10.06072 -10.05931
  Beta  occ. eigenvalues --  -10.05744 -10.04948 -10.04416 -10.04214 -10.03995
  Beta  occ. eigenvalues --  -10.03259 -10.02890  -0.84195  -0.79704  -0.76938
  Beta  occ. eigenvalues --   -0.71686  -0.70337  -0.65814  -0.64774  -0.63109
  Beta  occ. eigenvalues --   -0.58833  -0.55480  -0.52345  -0.50683  -0.48377
  Beta  occ. eigenvalues --   -0.45129  -0.44139  -0.40797  -0.38444  -0.38111
  Beta  occ. eigenvalues --   -0.36909  -0.35940  -0.32639  -0.32379  -0.31061
  Beta  occ. eigenvalues --   -0.30902  -0.29715  -0.29236  -0.27897  -0.27111
  Beta  occ. eigenvalues --   -0.26617  -0.26500  -0.25637  -0.23792  -0.22455
  Beta  occ. eigenvalues --   -0.22335  -0.22067  -0.21237  -0.20758  -0.18158
  Beta  occ. eigenvalues --   -0.15345  -0.12790  -0.11668  -0.10850  -0.09509
  Beta  occ. eigenvalues --   -0.07784
  Beta virt. eigenvalues --    0.06892   0.08259   0.08891   0.09125   0.09682
  Beta virt. eigenvalues --    0.09945   0.10805   0.11192   0.11504   0.11690
  Beta virt. eigenvalues --    0.12486   0.12562   0.13232   0.13507   0.14214

 Mulliken charges and spin densities:
               1          2
     1  C   -0.373276  -0.004822
     2  C   -0.089744   0.017185
     3  N   -0.053940   0.068288
     4  C   -0.849957  -0.031511
     5  N   -0.102659   0.150265
     6  C   -0.254731   0.147128
     7  C    0.501918  -0.101766
     8  C   -0.645714   0.043488
     9  C   -0.357216  -0.065887
    10  C   -0.328354   0.077452
    11  C    0.004735  -0.421205
    12  C   -0.385426  -0.017363
    13  C    0.477114   0.369198
    14  C    0.653004  -0.123255
    15  C   -0.597898   0.288079
    16  N   -0.171000   0.021358
    17  N   -0.337389   0.039208
    18  H    0.132922   0.002187
    19  H    0.134386   0.002056
    20  H    0.142343  -0.000759
    21  H    0.138660  -0.015028
    22  H    0.145561  -0.019447
    23  H    0.138671   0.004344
    24  H    0.130088  -0.000636
    25  H    0.103398   0.001400
    26  H    0.148223  -0.008773
    27  H    0.087467   0.067730
    28  H   -0.025419   0.144821
    29  H   -0.152655   0.253977
    30  H    0.096476   0.056102
    31  H    0.238923  -0.017111
    32  H    0.222583   0.040138
    33  H    0.228908   0.033156
 Sum of Mulliken charges =  -1.00000   1.00000

 Dipole moment (field-independent basis, Debye):
    X=             -4.4442    Y=              3.0231    Z=             -0.0887  Tot=              5.3757
 Quadrupole moment (field-independent basis, Debye-Ang):
   XX=           -138.7486   YY=           -132.8300   ZZ=           -111.8685
   XY=              8.5198   XZ=             -0.1655   YZ=              2.1119

 Summary of Natural Population Analysis:

                                       Natural Population
                Natural  -----------------------------------------------
    Atom  No    Charge         Core      Valence    Rydberg      Total
 -----------------------------------------------------------------------
      C    1   -0.29939      0.99963     2.29501    0.00474     3.29939
      C    2    0.22614      0.99964     1.75755    0.01666     2.77386
      N    3   -0.25708      0.99964     2.74426    0.01318     3.75708
      C    4    0.19290      0.99950     1.78918    0.01841     2.80710
      N    5   -0.19620      0.99967     2.68515    0.01138     3.69620
      C    6    0.07634      0.99955     1.91042    0.01369     2.92366
      C    7   -0.05952      0.99946     2.04823    0.01183     3.05952
      C    8   -0.19448      0.99961     2.18780    0.00707     3.19448
      C    9   -0.18294      0.99963     2.17706    0.00625     3.18294
      C   10   -0.19697      0.99963     2.18678    0.01056     3.19697
      C   11   -0.17941      0.99963     2.17111    0.00868     3.17941
      C   12   -0.21529      0.99961     2.20548    0.01020     3.21529
      C   13    0.08817      0.99945     1.90226    0.01011     2.91183
      C   14   -0.10115      0.99942     2.09382    0.00790     3.10115
      C   15    0.28109      0.99955     1.70442    0.01494     2.71891
      N   16   -0.29888      0.99964     2.78817    0.01108     3.79888
      N   17   -0.39343      0.99970     2.88454    0.00918     3.89343
      H   18    0.09955      0.00000     0.39948    0.00097     0.40045
      H   19    0.09946      0.00000     0.39959    0.00095     0.40054
      H   20    0.10300      0.00000     0.39618    0.00082     0.39700
      H   21    0.07350      0.00000     0.42487    0.00164     0.42650
      H   22    0.09347      0.00000     0.40497    0.00155     0.40653
      H   23    0.09854      0.00000     0.40027    0.00119     0.40146
      H   24    0.09293      0.00000     0.40605    0.00102     0.40707
      H   25    0.08849      0.00000     0.41024    0.00126     0.41151
      H   26    0.10307      0.00000     0.39590    0.00102     0.39693
      H   27    0.09424      0.00000     0.40478    0.00098     0.40576
      H   28    0.09123      0.00000     0.40743    0.00134     0.40877
      H   29    0.08943      0.00000     0.40931    0.00126     0.41057
      H   30    0.09934      0.00000     0.39939    0.00127     0.40066
      H   31    0.11070      0.00000     0.38815    0.00115     0.38930
      H   32    0.18661      0.00000     0.31148    0.00191     0.31339
      H   33    0.18655      0.00000     0.31109    0.00236     0.31345
 =======================================================================
   * Total *    0.00000     16.99297    43.80044    0.20659    61.00000

 Normal termination of Gaussian 16 at Fri Dec 11 14:15:23 2020.
