 Gaussian 16, Revision A.03,

 -----------------------------------------------------------
 # opt freq B3LYP/6-31G(d) empiricaldispersion=gd3bj scf=xqc
 -----------------------------------------------------------

 ------------------------------
 CID_80497912_JID_5142_neutraal
 ------------------------------
 Symbolic Z-matrix:
 Charge =  0 Multiplicity = 1

 SCF Done:  E(RB3LYP) =  -1019.13555555     A.U. after   15 cycles
 SCF Done:  E(RB3LYP) =  -1019.14194717     A.U. after   12 cycles
 SCF Done:  E(RB3LYP) =  -1019.14279723     A.U. after   12 cycles
 SCF Done:  E(RB3LYP) =  -1019.14296656     A.U. after   11 cycles
 SCF Done:  E(RB3LYP) =  -1019.14299452     A.U. after   10 cycles
 SCF Done:  E(RB3LYP) =  -1019.14299766     A.U. after    9 cycles
 SCF Done:  E(RB3LYP) =  -1019.14300270     A.U. after    8 cycles
 Optimization completed.
    -- Stationary point found.
 Normal termination of Gaussian 16 at Thu Dec 10 14:42:22 2020.

 --------------------------------------------------------------------
 #N Geom=AllCheck Guess=TCheck SCRF=Check GenChk RB3LYP/6-31G(d) Freq
 --------------------------------------------------------------------

 Structure from the checkpoint file:  "JID_5142.chk"
 ------------------------------
 CID_80497912_JID_5142_neutraal
 ------------------------------
 Charge =  0 Multiplicity = 1

 SCF Done:  E(RB3LYP) =  -1019.14300270     A.U. after    2 cycles

  Exact polarizability: 271.794  -3.987 137.725  -0.514  -0.074  51.885
 Approx polarizability: 414.784  -7.886 273.629   1.369   0.302  84.979

                      1                      2                      3
                      A                      A                      A
 Frequencies --     29.1649                55.4983                98.3096
 Red. masses --      5.5173                 7.1840                 6.9707
 Frc consts  --      0.0028                 0.0130                 0.0397
 IR Inten    --      0.0767                 1.9573                 1.1128

                      4                      5                      6
                      A                      A                      A
 Frequencies --    154.8498               192.4270               268.9562
 Red. masses --      6.4262                 5.5335                 6.0199
 Frc consts  --      0.0908                 0.1207                 0.2566
 IR Inten    --      0.7753                 1.7367                 2.0505

                      7                      8                      9
                      A                      A                      A
 Frequencies --    272.7583               293.4597               298.7068
 Red. masses --      5.3140                 5.3222                 1.1519
 Frc consts  --      0.2329                 0.2700                 0.0606
 IR Inten    --      1.9123                 0.7640                19.9201

                     10                     11                     12
                      A                      A                      A
 Frequencies --    378.3502               402.0831               434.9816
 Red. masses --      5.5988                 7.4341                 6.7117
 Frc consts  --      0.4722                 0.7081                 0.7482
 IR Inten    --      1.3732                 6.3825                 2.5235

                     13                     14                     15
                      A                      A                      A
 Frequencies --    437.6095               519.8779               524.7516
 Red. masses --      3.0550                 8.0246                 1.7834
 Frc consts  --      0.3447                 1.2778                 0.2893
 IR Inten    --      7.8750                20.1642                42.4124

                     16                     17                     18
                      A                      A                      A
 Frequencies --    544.8421               571.7538               602.3157
 Red. masses --      5.9704                 2.9733                 2.4801
 Frc consts  --      1.0442                 0.5727                 0.5301
 IR Inten    --     19.9017               127.9609               211.9422

                     19                     20                     21
                      A                      A                      A
 Frequencies --    634.2181               683.1273               715.2074
 Red. masses --      2.3808                10.1319                 2.5186
 Frc consts  --      0.5642                 2.7858                 0.7591
 IR Inten    --    154.4944                16.1845                46.8405

                     22                     23                     24
                      A                      A                      A
 Frequencies --    719.8562               728.4004               737.1308
 Red. masses --      6.8050                 4.4513                 4.5993
 Frc consts  --      2.0776                 1.3915                 1.4724
 IR Inten    --      5.5870                 1.5793                 2.8632

                     25                     26                     27
                      A                      A                      A
 Frequencies --    822.6677               831.6671               841.6623
 Red. masses --      1.4134                 2.7494                 2.2607
 Frc consts  --      0.5636                 1.1204                 0.9436
 IR Inten    --     12.8344                15.6578                38.7368

                     28                     29                     30
                      A                      A                      A
 Frequencies --    860.7013               911.5468               949.2275
 Red. masses --      1.4034                 6.1769                 1.2890
 Frc consts  --      0.6125                 3.0240                 0.6843
 IR Inten    --     20.3095                38.5177                 0.2747

                     31                     32                     33
                      A                      A                      A
 Frequencies --    962.1272               998.2524              1057.3292
 Red. masses --      6.5035                 8.2438                 3.0658
 Frc consts  --      3.5470                 4.8401                 2.0194
 IR Inten    --     40.2240                13.7879                41.6135

                     34                     35                     36
                      A                      A                      A
 Frequencies --   1080.0927              1118.1671              1165.6934
 Red. masses --      3.1743                 1.4365                 1.4824
 Frc consts  --      2.1818                 1.0582                 1.1868
 IR Inten    --     41.7118                 2.2698                 6.2343

                     37                     38                     39
                      A                      A                      A
 Frequencies --   1168.6868              1226.3436              1242.1572
 Red. masses --      2.4715                 2.7279                 3.0970
 Frc consts  --      1.9889                 2.4171                 2.8154
 IR Inten    --     18.9049                 5.4249                18.2304

                     40                     41                     42
                      A                      A                      A
 Frequencies --   1272.4408              1314.0663              1332.5782
 Red. masses --      1.8015                 3.8829                 2.1340
 Frc consts  --      1.7185                 3.9504                 2.2327
 IR Inten    --     21.3632                25.1515                44.1386

                     43                     44                     45
                      A                      A                      A
 Frequencies --   1374.2473              1384.6538              1397.5716
 Red. masses --      6.1039                 6.2427                 5.2006
 Frc consts  --      6.7918                 7.0519                 5.9848
 IR Inten    --     19.7143                21.4051                25.1404

                     46                     47                     48
                      A                      A                      A
 Frequencies --   1462.3743              1491.3891              1516.2219
 Red. masses --      2.4854                 3.0512                 3.7006
 Frc consts  --      3.1316                 3.9986                 5.0124
 IR Inten    --      6.4827                 7.7313                25.5222

                     49                     50                     51
                      A                      A                      A
 Frequencies --   1556.5610              1606.4082              1624.9123
 Red. masses --      3.1776                 7.2473                 6.6163
 Frc consts  --      4.5360                11.0189                10.2925
 IR Inten    --     14.4515                 1.4505               118.4841

                     52                     53                     54
                      A                      A                      A
 Frequencies --   1673.9112              1696.0346              3185.8602
 Red. masses --      4.2831                 1.2769                 1.0889
 Frc consts  --      7.0709                 2.1641                 6.5118
 IR Inten    --     85.3539               158.5591                18.1646

                     55                     56                     57
                      A                      A                      A
 Frequencies --   3194.4425              3221.6972              3285.6135
 Red. masses --      1.0908                 1.0934                 1.0979
 Frc consts  --      6.5582                 6.6868                 6.9828
 IR Inten    --     14.0053                 7.1642                 0.7628

                     58                     59                     60
                      A                      A                      A
 Frequencies --   3554.3903              3653.6541              3663.8949
 Red. masses --      1.0478                 1.0984                 1.0824
 Frc consts  --      7.7995                 8.6394                 8.5611
 IR Inten    --     26.8302                 9.9856               163.0083

 - Thermochemistry -
 -------------------
 Temperature   298.150 Kelvin.  Pressure   1.00000 Atm.
 Atom     1 has atomic number  6 and mass  12.00000

 Molecular mass:   217.04222 amu.
 Principal axes and moments of inertia in atomic units:
                           1         2         3
     Eigenvalues --   868.396366827.156327693.91974
           X            1.00000  -0.00019  -0.00162
           Y            0.00019   1.00000  -0.00143
           Z            0.00163   0.00143   1.00000
 This molecule is an asymmetric top.
 Rotational symmetry number  1.
 Warning -- assumption of classical behavior for rotation
           may cause significant error
 Rotational temperatures (Kelvin)      0.09974     0.01269     0.01126
 Rotational constants (GHZ):           2.07825     0.26435     0.23457
 Zero-point vibrational energy     418680.3 (Joules/Mol)
                                  100.06700 (Kcal/Mol)
 Warning -- explicit consideration of  18 degrees of freedom as
           vibrations may cause significant error
 Vibrational temperatures:     41.96    79.85   141.45   222.79   276.86
          (Kelvin)            386.97   392.44   422.22   429.77   544.36
                              578.51   625.84   629.62   747.99   755.00
                              783.91   822.63   866.60   912.50   982.87
                             1029.02  1035.71  1048.01  1060.57  1183.64
                             1196.58  1210.96  1238.36  1311.51  1365.73
                             1384.29  1436.26  1521.26  1554.01  1608.79
                             1677.17  1681.48  1764.43  1787.19  1830.76
                             1890.65  1917.28  1977.24  1992.21  2010.79
                             2104.03  2145.78  2181.51  2239.54  2311.26
                             2337.89  2408.38  2440.22  4583.74  4596.09
                             4635.30  4727.26  5113.97  5256.79  5271.53

 Zero-point correction=                           0.159467 (Hartree/Particle)
 Thermal correction to Energy=                    0.171203
 Thermal correction to Enthalpy=                  0.172147
 Thermal correction to Gibbs Free Energy=         0.120340
 Sum of electronic and zero-point Energies=          -1018.983536
 Sum of electronic and thermal Energies=             -1018.971800
 Sum of electronic and thermal Enthalpies=           -1018.970856
 Sum of electronic and thermal Free Energies=        -1019.022662

                     E (Thermal)             CV                S
                      KCal/Mol        Cal/Mol-Kelvin    Cal/Mol-Kelvin
 Total                  107.431             45.839            109.036
 Electronic               0.000              0.000              0.000
 Translational            0.889              2.981             42.028
 Rotational               0.889              2.981             32.189
 Vibrational            105.654             39.878             34.819
 Vibration     1          0.593              1.984              5.885
 Vibration     2          0.596              1.975              4.611
 Vibration     3          0.604              1.950              3.488
 Vibration     4          0.620              1.897              2.612
 Vibration     5          0.634              1.850              2.204
 Vibration     6          0.673              1.730              1.603
 Vibration     7          0.676              1.724              1.579
 Vibration     8          0.688              1.686              1.454
 Vibration     9          0.692              1.676              1.424
 Vibration    10          0.749              1.516              1.046
 Vibration    11          0.768              1.466              0.955
 Vibration    12          0.796              1.394              0.843
 Vibration    13          0.798              1.388              0.834
 Vibration    14          0.875              1.206              0.610
 Vibration    15          0.880              1.195              0.599
 Vibration    16          0.900              1.151              0.555
 Vibration    17          0.928              1.092              0.501
 Vibration    18          0.961              1.027              0.446

                           ! Non-Optimized Parameters !
 Normal termination of Gaussian 16 at Thu Dec 10 14:47:43 2020.

 ----------------------------------------------------------------------
 # B3LYP/6-311++G(d,p) empiricaldispersion=gd3bj scf=xqc pop=npa geom=c
 heck
 ----------------------------------------------------------------------

 --------------------------------------
 CID_80497912_JID_5142_Energie_neutraal
 --------------------------------------
 Structure from the checkpoint file:  "JID_5142.chk"
 Charge =  0 Multiplicity = 1

 SCF Done:  E(RB3LYP) =  -1019.33617222     A.U. after   17 cycles
 Normal termination of Gaussian 16 at Thu Dec 10 14:49:59 2020.

 ----------------------------------------------------------------------
 # B3LYP/6-311++G(d,p) empiricaldispersion=gd3bj scf=xqc pop=npa geom=c
 heck
 ----------------------------------------------------------------------

 ------------------------------------
 CID_80497912_JID_5142_Energie_kation
 ------------------------------------
 Structure from the checkpoint file:  "JID_5142.chk"
 Charge =  1 Multiplicity = 2

 SCF Done:  E(UB3LYP) =  -1019.06369640     A.U. after   24 cycles
 Normal termination of Gaussian 16 at Thu Dec 10 14:54:03 2020.
 Gaussian 16:  ES64L-G16RevA.03 25-Dec-2016

 ----------------------------------------------------------------------
 # B3LYP/6-311++G(d,p) empiricaldispersion=gd3bj scf=xqc pop=npa geom=c
 heck
 ----------------------------------------------------------------------

 -----------------------------------
 CID_80497912_JID_5142_Energie_anion
 -----------------------------------
 Structure from the checkpoint file:  "JID_5142.chk"
 Charge = -1 Multiplicity = 2

                         Standard orientation:
 ---------------------------------------------------------------------
 Center     Atomic      Atomic             Coordinates (Angstroms)
 Number     Number       Type             X           Y           Z
 ---------------------------------------------------------------------
      1          6           0       -3.412750    1.291226   -0.005458
      2          6           0       -2.108546    1.754432   -0.005489
      3          6           0       -1.047366    0.837694   -0.005621
      4          6           0       -1.345246   -0.548244   -0.006458
      5          6           0       -2.653457   -1.023611   -0.003676
      6          6           0       -3.702598   -0.094295   -0.004199
      7          7           0       -5.028625   -0.524868   -0.062487
      8         16           0        0.151310   -1.457540   -0.003210
      9          6           0        1.039032    0.102686   -0.001138
     10          7           0        0.294717    1.162214   -0.002344
     11          6           0        2.492698    0.089170    0.001534
     12          7           0        3.229320    1.214501    0.009801
     13          7           0        4.472118    0.753927    0.009037
     14          7           0        4.633576   -0.568915    0.001436
     15          6           0        3.377543   -1.015720   -0.003695
     16          1           0       -4.237743    1.998791   -0.012316
     17          1           0       -1.890027    2.817161   -0.003575
     18          1           0       -2.866395   -2.088601   -0.007705
     19          1           0       -5.191675   -1.462140    0.283463
     20          1           0       -5.706547    0.130361    0.305956
     21          1           0        5.263336    1.381606    0.013728
     22          1           0        3.164484   -2.074586   -0.011090
 ---------------------------------------------------------------------

 SCF Done:  E(UB3LYP) =  -1019.34293406     A.U. after   33 cycles
 SCF Done:  E(UB3LYP) =  -1019.34293406     a.u. after    1 cycles

 The electronic state is 2-A.
 Alpha  occ. eigenvalues --  -88.73207 -14.28596 -14.22664 -14.20559 -14.19990
 Alpha  occ. eigenvalues --  -14.15285 -10.08588 -10.07969 -10.07576 -10.07565
 Alpha  occ. eigenvalues --  -10.07101 -10.06422 -10.04983 -10.04716 -10.04278
 Alpha  occ. eigenvalues --   -7.81890  -5.78189  -5.77863  -5.77435  -0.97710
 Alpha  occ. eigenvalues --   -0.81859  -0.80487  -0.76588  -0.71231  -0.69778
 Alpha  occ. eigenvalues --   -0.66154  -0.60294  -0.60000  -0.53256  -0.50916
 Alpha  occ. eigenvalues --   -0.47913  -0.47148  -0.42936  -0.41305  -0.39846
 Alpha  occ. eigenvalues --   -0.37693  -0.35345  -0.34989  -0.33456  -0.33159
 Alpha  occ. eigenvalues --   -0.31286  -0.28963  -0.27515  -0.27268  -0.26382
 Alpha  occ. eigenvalues --   -0.24937  -0.20853  -0.20644  -0.19247  -0.17322
 Alpha  occ. eigenvalues --   -0.17269  -0.16777  -0.14355  -0.12914  -0.10748
 Alpha  occ. eigenvalues --   -0.07639   0.04288
 Alpha virt. eigenvalues --    0.06156   0.08476   0.08641   0.09746   0.10393
 Alpha virt. eigenvalues --    0.10555   0.10966   0.11964   0.13187   0.13936
 Alpha virt. eigenvalues --    0.14153   0.14711   0.15785   0.16339   0.16377

  Beta  occ. eigenvalues --  -88.73181 -14.28399 -14.22746 -14.20503 -14.19475
  Beta  occ. eigenvalues --  -14.15024 -10.08417 -10.07610 -10.07542 -10.07528
  Beta  occ. eigenvalues --  -10.07089 -10.06461 -10.04995 -10.04767 -10.04120
  Beta  occ. eigenvalues --   -7.81866  -5.78181  -5.77857  -5.77338  -0.97372
  Beta  occ. eigenvalues --   -0.81459  -0.80298  -0.76173  -0.71000  -0.69512
  Beta  occ. eigenvalues --   -0.65949  -0.60114  -0.59653  -0.52844  -0.50776
  Beta  occ. eigenvalues --   -0.47761  -0.47000  -0.42722  -0.41086  -0.39729
  Beta  occ. eigenvalues --   -0.37477  -0.35142  -0.34070  -0.33338  -0.33061
  Beta  occ. eigenvalues --   -0.31203  -0.28346  -0.27359  -0.27047  -0.26175
  Beta  occ. eigenvalues --   -0.24139  -0.20752  -0.20526  -0.18330  -0.16796
  Beta  occ. eigenvalues --   -0.16612  -0.15808  -0.13467  -0.12597  -0.10250
  Beta  occ. eigenvalues --   -0.06644
  Beta virt. eigenvalues --    0.06718   0.08487   0.08830   0.09731   0.09879
  Beta virt. eigenvalues --    0.10453   0.10789   0.11915   0.12097   0.13342
  Beta virt. eigenvalues --    0.14096   0.14358   0.14695   0.15915   0.16391

 Mulliken charges and spin densities:
               1          2
     1  C    0.148869  -0.155845
     2  C   -0.901669   0.220139
     3  C   -0.995871  -0.145057
     4  C    2.297980  -0.173548
     5  C   -0.501876   0.101549
     6  C   -0.178163   0.031381
     7  N   -0.281326  -0.031494
     8  S   -0.801247   0.020489
     9  C    0.046382   0.133852
    10  N    0.116225   0.121853
    11  C   -0.560867   0.011409
    12  N   -0.282215   0.236132
    13  N    0.138703   0.076061
    14  N   -0.234018  -0.038564
    15  C    0.210395   0.051372
    16  H    0.069094   0.056965
    17  H    0.142394  -0.004157
    18  H    0.075417   0.064641
    19  H   -0.010469   0.240354
    20  H    0.036516   0.189207
    21  H    0.295603  -0.004509
    22  H    0.170143  -0.002231
 Sum of Mulliken charges =  -1.00000   1.00000

 Dipole moment (field-independent basis, Debye):
    X=              0.4254    Y=             -0.9035    Z=              0.3663  Tot=              1.0637
 Quadrupole moment (field-independent basis, Debye-Ang):
   XX=           -147.9281   YY=           -106.0656   ZZ=           -105.3921
   XY=              1.3920   XZ=             -1.9722   YZ=             -0.1364

 Summary of Natural Population Analysis:

                                       Natural Population
                Natural  -----------------------------------------------
    Atom  No    Charge         Core      Valence    Rydberg      Total
 -----------------------------------------------------------------------
      C    1   -0.14799      0.99954     2.13823    0.01021     3.14799
      C    2   -0.05873      0.99953     2.05105    0.00815     3.05873
      C    3    0.03614      0.99943     1.95208    0.01235     2.96386
      C    4   -0.08489      0.99941     2.07483    0.01065     3.08489
      C    5   -0.14834      0.99947     2.13846    0.01042     3.14834
      C    6    0.10610      0.99951     1.88329    0.01110     2.89390
      N    7   -0.39941      0.99972     2.88966    0.01003     3.89941
      S    8    0.14468      4.99948     2.83701    0.01883     7.85532
      C    9    0.10422      0.99955     1.88023    0.01600     2.89578
      N   10   -0.19833      0.99962     2.68619    0.01252     3.69833
      C   11    0.00847      0.99955     1.97487    0.01711     2.99153
      N   12   -0.05294      0.99972     2.53741    0.01580     3.55294
      N   13   -0.05061      0.99966     2.53219    0.01876     3.55061
      N   14   -0.17447      0.99974     2.66069    0.01404     3.67447
      C   15   -0.01918      0.99948     2.00367    0.01604     3.01918
      H   16    0.09243      0.00000     0.40662    0.00095     0.40757
      H   17    0.09872      0.00000     0.39998    0.00130     0.40128
      H   18    0.09525      0.00000     0.40306    0.00169     0.40475
      H   19    0.18197      0.00000     0.31601    0.00202     0.31803
      H   20    0.18131      0.00000     0.31684    0.00185     0.31869
      H   21    0.18666      0.00000     0.31112    0.00221     0.31334
      H   22    0.09901      0.00000     0.40004    0.00095     0.40099
 =======================================================================
   * Total *    0.00008     18.99341    36.79353    0.21298    55.99992

 Normal termination of Gaussian 16 at Thu Dec 10 14:59:39 2020.
