 Gaussian 16, Revision A.03,

 -----------------------------------------------------------
 # opt freq B3LYP/6-31G(d) empiricaldispersion=gd3bj scf=xqc
 -----------------------------------------------------------

 ------------------------------
 CID_81644000_JID_8775_neutraal
 ------------------------------
 Symbolic Z-matrix:
 Charge =  0 Multiplicity = 1

 SCF Done:  E(RB3LYP) =  -822.761105924     A.U. after   14 cycles
 SCF Done:  E(RB3LYP) =  -822.770160128     A.U. after   13 cycles
 SCF Done:  E(RB3LYP) =  -822.766928368     A.U. after   15 cycles
 SCF Done:  E(RB3LYP) =  -822.770453710     A.U. after   13 cycles
 SCF Done:  E(RB3LYP) =  -822.771636069     A.U. after   13 cycles
 SCF Done:  E(RB3LYP) =  -822.773530299     A.U. after   12 cycles
 SCF Done:  E(RB3LYP) =  -822.773931288     A.U. after   11 cycles
 SCF Done:  E(RB3LYP) =  -822.774028682     A.U. after   11 cycles
 SCF Done:  E(RB3LYP) =  -822.774281896     A.U. after   11 cycles
 SCF Done:  E(RB3LYP) =  -822.774457350     A.U. after   12 cycles
 SCF Done:  E(RB3LYP) =  -822.778181612     A.U. after    9 cycles
 SCF Done:  E(RB3LYP) =  -822.778183984     A.U. after    9 cycles
 SCF Done:  E(RB3LYP) =  -822.778184845     A.U. after    8 cycles
 SCF Done:  E(RB3LYP) =  -822.778185174     A.U. after    8 cycles
 SCF Done:  E(RB3LYP) =  -822.778185223     A.U. after    6 cycles
 Optimization completed.
    -- Stationary point found.
 Normal termination of Gaussian 16 at Fri Dec 11 21:24:13 2020.

 --------------------------------------------------------------------
 #N Geom=AllCheck Guess=TCheck SCRF=Check GenChk RB3LYP/6-31G(d) Freq
 --------------------------------------------------------------------

 Structure from the checkpoint file:  "JID_8775.chk"
 ------------------------------
 CID_81644000_JID_8775_neutraal
 ------------------------------
 Charge =  0 Multiplicity = 1

 SCF Done:  E(RB3LYP) =  -822.778185223     A.U. after    1 cycles

  Exact polarizability: 163.830   0.664 155.873   1.705  -6.904 136.441
 Approx polarizability: 216.285   1.231 230.261  -0.188 -12.486 216.474

                      1                      2                      3
                      A                      A                      A
 Frequencies --     34.3721                47.5950                64.1311
 Red. masses --      3.5311                 5.2798                 4.1105
 Frc consts  --      0.0025                 0.0070                 0.0100
 IR Inten    --      0.1533                 2.6974                 0.3625

                      4                      5                      6
                      A                      A                      A
 Frequencies --     94.3972               103.3277               131.5702
 Red. masses --      5.0152                 4.8559                 3.3439
 Frc consts  --      0.0263                 0.0305                 0.0341
 IR Inten    --      0.1642                 2.0193                 1.5679

                      7                      8                      9
                      A                      A                      A
 Frequencies --    149.2680               160.5172               178.3972
 Red. masses --      2.0343                 1.7919                 3.1070
 Frc consts  --      0.0267                 0.0272                 0.0583
 IR Inten    --      0.3651                 3.2589                 3.1820

                     10                     11                     12
                      A                      A                      A
 Frequencies --    200.8673               221.7615               236.8411
 Red. masses --      2.6067                 3.3350                 1.9721
 Frc consts  --      0.0620                 0.0966                 0.0652
 IR Inten    --      3.0091                 4.7327                 0.6196

                     13                     14                     15
                      A                      A                      A
 Frequencies --    250.5231               282.9362               317.2923
 Red. masses --      3.3979                 2.8395                 2.7381
 Frc consts  --      0.1256                 0.1339                 0.1624
 IR Inten    --      1.7754                 8.2465                15.7053

                     16                     17                     18
                      A                      A                      A
 Frequencies --    339.5712               390.5247               405.1546
 Red. masses --      3.9899                 3.6132                 3.2759
 Frc consts  --      0.2711                 0.3247                 0.3168
 IR Inten    --      0.9796                 6.2403                 5.1094

                     19                     20                     21
                      A                      A                      A
 Frequencies --    416.3386               446.9138               512.2307
 Red. masses --      2.9684                 2.9648                 3.7365
 Frc consts  --      0.3032                 0.3489                 0.5776
 IR Inten    --      0.5208                 1.6128                 3.7209

                     22                     23                     24
                      A                      A                      A
 Frequencies --    521.4804               555.2659               587.8399
 Red. masses --      3.5230                 2.4503                 3.5941
 Frc consts  --      0.5645                 0.4451                 0.7317
 IR Inten    --      0.8160                36.8084                24.5217

                     25                     26                     27
                      A                      A                      A
 Frequencies --    603.0670               640.9489               659.4734
 Red. masses --      2.1482                 3.1135                 3.2610
 Frc consts  --      0.4603                 0.7536                 0.8356
 IR Inten    --     18.6927                11.4892                 4.3892

                     28                     29                     30
                      A                      A                      A
 Frequencies --    678.2087               742.8245               747.2654
 Red. masses --      3.1697                 3.3678                 2.4082
 Frc consts  --      0.8590                 1.0949                 0.7923
 IR Inten    --     17.5537                15.1995                70.4498

                     31                     32                     33
                      A                      A                      A
 Frequencies --    774.3072               797.1420               811.1020
 Red. masses --      2.6738                 1.9643                 2.4260
 Frc consts  --      0.9445                 0.7354                 0.9403
 IR Inten    --      8.8445               164.8176                 2.7306

                     34                     35                     36
                      A                      A                      A
 Frequencies --    818.4448               838.4721               871.3491
 Red. masses --      1.6926                 2.0811                 3.1539
 Frc consts  --      0.6680                 0.8620                 1.4109
 IR Inten    --     11.5579                17.3758                 3.2394

                     37                     38                     39
                      A                      A                      A
 Frequencies --    888.6547               893.7066               900.4313
 Red. masses --      2.6592                 2.1808                 1.7013
 Frc consts  --      1.2373                 1.0263                 0.8127
 IR Inten    --      5.9139                 2.0809                 1.6337

                     40                     41                     42
                      A                      A                      A
 Frequencies --    939.2741               965.5165               989.9438
 Red. masses --      2.3110                 2.3946                 2.2957
 Frc consts  --      1.2013                 1.3152                 1.3255
 IR Inten    --     10.1488                 2.7777                 0.7411

                     43                     44                     45
                      A                      A                      A
 Frequencies --    992.1962              1009.5576              1031.6566
 Red. masses --      2.3348                 2.1859                 1.6635
 Frc consts  --      1.3543                 1.3126                 1.0431
 IR Inten    --      5.0985                20.5045                 0.4509

                     46                     47                     48
                      A                      A                      A
 Frequencies --   1043.0124              1047.4297              1097.1118
 Red. masses --      1.8467                 1.6689                 2.0461
 Frc consts  --      1.1836                 1.0788                 1.4510
 IR Inten    --     36.6994                 2.9694                 8.7389

                     49                     50                     51
                      A                      A                      A
 Frequencies --   1099.1420              1106.2778              1116.8110
 Red. masses --      1.9847                 2.0294                 2.0949
 Frc consts  --      1.4127                 1.4633                 1.5394
 IR Inten    --      8.0790                15.4794                 7.4692

                     52                     53                     54
                      A                      A                      A
 Frequencies --   1126.7443              1143.0378              1158.2289
 Red. masses --      1.2724                 3.7733                 1.4179
 Frc consts  --      0.9518                 2.9046                 1.1207
 IR Inten    --      0.0425                25.8834                 3.8398

                     55                     56                     57
                      A                      A                      A
 Frequencies --   1160.8917              1200.3975              1206.8840
 Red. masses --      1.9775                 1.3061                 1.7736
 Frc consts  --      1.5702                 1.1089                 1.5221
 IR Inten    --     31.7083                 0.4569                11.0446

                     58                     59                     60
                      A                      A                      A
 Frequencies --   1211.2068              1219.6754              1226.4656
 Red. masses --      1.7691                 2.8579                 1.2186
 Frc consts  --      1.5291                 2.5049                 1.0800
 IR Inten    --     12.1275                11.2135                22.1879

                     61                     62                     63
                      A                      A                      A
 Frequencies --   1233.1220              1260.4942              1277.2141
 Red. masses --      1.4452                 1.4289                 1.2216
 Frc consts  --      1.2947                 1.3376                 1.1741
 IR Inten    --      0.6549               109.3727                 2.4402

                     64                     65                     66
                      A                      A                      A
 Frequencies --   1325.3931              1333.5850              1341.5486
 Red. masses --      1.2116                 1.3174                 1.5326
 Frc consts  --      1.2540                 1.3804                 1.6251
 IR Inten    --      8.2271                 0.2619                29.3343

                     67                     68                     69
                      A                      A                      A
 Frequencies --   1344.1221              1349.3434              1360.5313
 Red. masses --      1.9780                 1.2856                 1.3339
 Frc consts  --      2.1055                 1.3791                 1.4547
 IR Inten    --      8.5429                 2.4370                12.1632

                     70                     71                     72
                      A                      A                      A
 Frequencies --   1382.2359              1385.1011              1390.5432
 Red. masses --      1.5924                 1.8800                 1.4343
 Frc consts  --      1.7925                 2.1251                 1.6341
 IR Inten    --     19.2772                82.1108                14.4467

                     73                     74                     75
                      A                      A                      A
 Frequencies --   1394.8347              1401.3987              1411.1866
 Red. masses --      1.7223                 1.3201                 1.3190
 Frc consts  --      1.9743                 1.5275                 1.5476
 IR Inten    --     18.3624                18.7124                 0.6799

                     76                     77                     78
                      A                      A                      A
 Frequencies --   1442.8625              1480.0862              1485.1562
 Red. masses --      2.3317                 1.5747                 2.1249
 Frc consts  --      2.8600                 2.0324                 2.7614
 IR Inten    --      3.9545                39.7550               129.8138

                     79                     80                     81
                      A                      A                      A
 Frequencies --   1493.3078              1499.9525              1508.6411
 Red. masses --      1.2164                 1.0920                 1.1533
 Frc consts  --      1.5981                 1.4476                 1.5465
 IR Inten    --     20.9019                 4.9716                 2.3777

                     82                     83                     84
                      A                      A                      A
 Frequencies --   1511.0374              1513.7027              1520.3066
 Red. masses --      1.1603                 1.0996                 1.1788
 Frc consts  --      1.5608                 1.4845                 1.6053
 IR Inten    --     25.0789                 0.8696                27.2327

                     85                     86                     87
                      A                      A                      A
 Frequencies --   1522.8030              1531.9494              1543.3812
 Red. masses --      1.0889                 1.0659                 1.1070
 Frc consts  --      1.4878                 1.4738                 1.5536
 IR Inten    --      2.6034                 2.9354                 9.7209

                     88                     89                     90
                      A                      A                      A
 Frequencies --   1559.3062              1727.3817              1781.5357
 Red. masses --      1.0524                10.3694                 7.9830
 Frc consts  --      1.5076                18.2298                14.9282
 IR Inten    --     17.6016               241.1585               283.3532

                     91                     92                     93
                      A                      A                      A
 Frequencies --   3026.3421              3039.4224              3045.9775
 Red. masses --      1.0820                 1.0725                 1.0607
 Frc consts  --      5.8384                 5.8374                 5.7981
 IR Inten    --     10.3175                38.9860                28.1272

                     94                     95                     96
                      A                      A                      A
 Frequencies --   3050.5449              3051.6271              3065.7249
 Red. masses --      1.0702                 1.0613                 1.0394
 Frc consts  --      5.8677                 5.8228                 5.7557
 IR Inten    --     37.9407                64.7546                14.0366

                     97                     98                     99
                      A                      A                      A
 Frequencies --   3074.6753              3079.0927              3086.7739
 Red. masses --      1.0530                 1.1029                 1.0680
 Frc consts  --      5.8652                 6.1608                 5.9956
 IR Inten    --     56.0560                34.0323                51.9101

                    100                    101                    102
                      A                      A                      A
 Frequencies --   3100.8677              3126.4494              3130.4465
 Red. masses --      1.1044                 1.1073                 1.0942
 Frc consts  --      6.2567                 6.3769                 6.3179
 IR Inten    --     43.7982                24.4952                 8.1010

                    103                    104                    105
                      A                      A                      A
 Frequencies --   3133.2564              3142.8426              3150.0589
 Red. masses --      1.1035                 1.0866                 1.0979
 Frc consts  --      6.3828                 6.3234                 6.4189
 IR Inten    --     21.2404                 8.2904                27.6475

                    106                    107                    108
                      A                      A                      A
 Frequencies --   3152.3316              3161.1141              3163.6676
 Red. masses --      1.1051                 1.0922                 1.0891
 Frc consts  --      6.4705                 6.4301                 6.4223
 IR Inten    --     12.1103                19.2887                15.3624

                    109                    110                    111
                      A                      A                      A
 Frequencies --   3179.0966              3468.5324              3580.1716
 Red. masses --      1.0923                 1.0737                 1.0752
 Frc consts  --      6.5041                 7.6110                 8.1201
 IR Inten    --     28.9336                 1.9199                20.3147

 - Thermochemistry -
 -------------------
 Temperature   298.150 Kelvin.  Pressure   1.00000 Atm.
 Atom     1 has atomic number  6 and mass  12.00000

 Molecular mass:   251.16338 amu.
 Principal axes and moments of inertia in atomic units:
                           1         2         3
     Eigenvalues --  2971.619425208.704986233.89123
           X            0.99993   0.00628   0.01032
           Y           -0.00577   0.99877  -0.04918
           Z           -0.01062   0.04912   0.99874
 This molecule is an asymmetric top.
 Rotational symmetry number  1.
 Warning -- assumption of classical behavior for rotation
           may cause significant error
 Rotational temperatures (Kelvin)      0.02915     0.01663     0.01389
 Rotational constants (GHZ):           0.60733     0.34649     0.28950
 Zero-point vibrational energy     901548.0 (Joules/Mol)
                                  215.47515 (Kcal/Mol)
 Warning -- explicit consideration of  25 degrees of freedom as
           vibrations may cause significant error
 Vibrational temperatures:     49.45    68.48    92.27   135.82   148.67
          (Kelvin)            189.30   214.76   230.95   256.67   289.00
                              319.07   340.76   360.45   407.08   456.51
                              488.57   561.88   582.93   599.02   643.01
                              736.99   750.29   798.90   845.77   867.68
                              922.18   948.84   975.79  1068.76  1075.15
                             1114.06  1146.91  1166.99  1177.56  1206.37
                             1253.68  1278.58  1285.84  1295.52  1351.41
                             1389.16  1424.31  1427.55  1452.53  1484.32
                             1500.66  1507.02  1578.50  1581.42  1591.69
                             1606.84  1621.13  1644.58  1666.43  1670.26
                             1727.10  1736.44  1742.66  1754.84  1764.61
                             1774.19  1813.57  1837.63  1906.95  1918.73
                             1930.19  1933.89  1941.40  1957.50  1988.73
                             1992.85  2000.68  2006.86  2016.30  2030.38
                             2075.96  2129.51  2136.81  2148.54  2158.10
                             2170.60  2174.05  2177.88  2187.38  2190.97
                             2204.13  2220.58  2243.49  2485.32  2563.23
                             4354.23  4373.05  4382.48  4389.05  4390.61
                             4410.89  4423.77  4430.13  4441.18  4461.46
                             4498.26  4504.01  4508.06  4521.85  4532.23
                             4535.50  4548.14  4551.81  4574.01  4990.44
                             5151.07

 Zero-point correction=                           0.343382 (Hartree/Particle)
 Thermal correction to Energy=                    0.360105
 Thermal correction to Enthalpy=                  0.361050
 Thermal correction to Gibbs Free Energy=         0.298930
 Sum of electronic and zero-point Energies=           -822.434804
 Sum of electronic and thermal Energies=              -822.418080
 Sum of electronic and thermal Enthalpies=            -822.417136
 Sum of electronic and thermal Free Energies=         -822.479255

                     E (Thermal)             CV                S
                      KCal/Mol        Cal/Mol-Kelvin    Cal/Mol-Kelvin
 Total                  225.970             65.387            130.742
 Electronic               0.000              0.000              0.000
 Translational            0.889              2.981             42.463
 Rotational               0.889              2.981             32.934
 Vibrational            224.192             59.425             55.345
 Vibration     1          0.594              1.983              5.560
 Vibration     2          0.595              1.978              4.915
 Vibration     3          0.597              1.971              4.326
 Vibration     4          0.603              1.953              3.567
 Vibration     5          0.605              1.947              3.391
 Vibration     6          0.612              1.922              2.923
 Vibration     7          0.618              1.903              2.682
 Vibration     8          0.622              1.891              2.544
 Vibration     9          0.629              1.869              2.345
 Vibration    10          0.638              1.839              2.125
 Vibration    11          0.648              1.808              1.945
 Vibration    12          0.656              1.784              1.826
 Vibration    13          0.663              1.762              1.727
 Vibration    14          0.682              1.705              1.516
 Vibration    15          0.704              1.641              1.324
 Vibration    16          0.719              1.596              1.214
 Vibration    17          0.758              1.490              0.998
 Vibration    18          0.770              1.459              0.944
 Vibration    19          0.780              1.435              0.904
 Vibration    20          0.806              1.368              0.805
 Vibration    21          0.867              1.223              0.628
 Vibration    22          0.876              1.202              0.607
 Vibration    23          0.911              1.128              0.533
 Vibration    24          0.945              1.058              0.471
 Vibration    25          0.961              1.025              0.444

                           ! Non-Optimized Parameters !
 Normal termination of Gaussian 16 at Fri Dec 11 21:44:57 2020.

 ----------------------------------------------------------------------
 # B3LYP/6-311++G(d,p) empiricaldispersion=gd3bj scf=xqc pop=npa geom=c
 heck
 ----------------------------------------------------------------------

 --------------------------------------
 CID_81644000_JID_8775_Energie_neutraal
 --------------------------------------
 Structure from the checkpoint file:  "JID_8775.chk"
 Charge =  0 Multiplicity = 1

 SCF Done:  E(RB3LYP) =  -823.011888263     A.U. after   15 cycles
 Normal termination of Gaussian 16 at Fri Dec 11 21:54:23 2020.

 ----------------------------------------------------------------------
 # B3LYP/6-311++G(d,p) empiricaldispersion=gd3bj scf=xqc pop=npa geom=c
 heck
 ----------------------------------------------------------------------

 ------------------------------------
 CID_81644000_JID_8775_Energie_kation
 ------------------------------------
 Structure from the checkpoint file:  "JID_8775.chk"
 Charge =  1 Multiplicity = 2

 SCF Done:  E(UB3LYP) =  -822.723166291     A.U. after   26 cycles
 Normal termination of Gaussian 16 at Fri Dec 11 22:18:05 2020.
 Gaussian 16:  ES64L-G16RevA.03 25-Dec-2016

 ----------------------------------------------------------------------
 # B3LYP/6-311++G(d,p) empiricaldispersion=gd3bj scf=xqc pop=npa geom=c
 heck
 ----------------------------------------------------------------------

 -----------------------------------
 CID_81644000_JID_8775_Energie_anion
 -----------------------------------
 Structure from the checkpoint file:  "JID_8775.chk"
 Charge = -1 Multiplicity = 2

                         Standard orientation:
 ---------------------------------------------------------------------
 Center     Atomic      Atomic             Coordinates (Angstroms)
 Number     Number       Type             X           Y           Z
 ---------------------------------------------------------------------
      1          6           0        2.328848   -1.934753    1.638551
      2          7           0        2.837313   -1.809298    0.274624
      3          6           0        2.366226   -0.977379   -0.709749
      4          8           0        2.485434   -1.268023   -1.892492
      5          6           0        1.881320    0.448409   -0.370818
      6          6           0        2.023242    1.059920    1.034694
      7          7           0        1.721427    2.497413    1.019176
      8          6           0        0.419349    2.783436    0.414586
      9          6           0        0.195705    2.107514   -0.952941
     10          7           0        0.510216    0.683794   -0.844339
     11          6           0       -0.438298   -0.292365   -0.669714
     12          8           0       -0.148360   -1.376788   -0.161141
     13          6           0       -1.803720    0.013937   -1.223373
     14          6           0       -3.043742   -0.793227   -0.928767
     15          6           0       -2.965974    0.640818   -0.457059
     16          6           0       -2.964561    0.647223    1.065699
     17          6           0       -2.676813   -0.813030    1.493788
     18          6           0       -3.104274   -1.696573    0.297817
     19          1           0        2.774951   -1.196113    2.310784
     20          1           0        2.608739   -2.923967    2.008523
     21          1           0        1.239524   -1.847080    1.660753
     22          1           0        3.141912   -2.678011   -0.149344
     23          1           0        2.516665    1.054143   -1.031736
     24          1           0        3.038791    0.923381    1.419919
     25          1           0        1.326007    0.579262    1.727547
     26          1           0        2.447850    2.979830    0.489902
     27          1           0       -0.354940    2.425036    1.105008
     28          1           0        0.303500    3.869496    0.324900
     29          1           0        0.854073    2.552664   -1.711226
     30          1           0       -0.835747    2.235229   -1.281282
     31          1           0       -1.742568    0.369101   -2.250865
     32          1           0       -3.653688   -1.064114   -1.786442
     33          1           0       -3.504844    1.435620   -0.967440
     34          1           0       -2.247260    1.354348    1.499782
     35          1           0       -3.960460    0.961938    1.402134
     36          1           0       -1.611480   -0.950206    1.683614
     37          1           0       -3.209501   -1.077508    2.412712
     38          1           0       -2.471512   -2.581852    0.202896
     39          1           0       -4.143138   -2.029649    0.416421
 ---------------------------------------------------------------------

 SCF Done:  E(UB3LYP) =  -823.002014496     A.U. after   33 cycles
 SCF Done:  E(UB3LYP) =  -823.002014496     a.u. after    1 cycles

 The electronic state is 2-A.
 Alpha  occ. eigenvalues --  -18.99800 -18.99465 -14.25276 -14.24559 -14.21408
 Alpha  occ. eigenvalues --  -10.18518 -10.18266 -10.12852 -10.11492 -10.11422
 Alpha  occ. eigenvalues --  -10.11171 -10.10575 -10.09204 -10.08900 -10.08559
 Alpha  occ. eigenvalues --  -10.07692 -10.07127 -10.06890  -0.95649  -0.94268
 Alpha  occ. eigenvalues --   -0.86397  -0.82926  -0.80916  -0.79282  -0.69220
 Alpha  occ. eigenvalues --   -0.67593  -0.63207  -0.61917  -0.61679  -0.57508
 Alpha  occ. eigenvalues --   -0.55850  -0.52747  -0.50617  -0.48517  -0.45860
 Alpha  occ. eigenvalues --   -0.44575  -0.43089  -0.40381  -0.40023  -0.39733
 Alpha  occ. eigenvalues --   -0.38760  -0.38203  -0.37036  -0.36227  -0.35585
 Alpha  occ. eigenvalues --   -0.34902  -0.33960  -0.33388  -0.32033  -0.31747
 Alpha  occ. eigenvalues --   -0.31076  -0.30974  -0.30264  -0.28147  -0.26917
 Alpha  occ. eigenvalues --   -0.26621  -0.26476  -0.26211  -0.24771  -0.24736
 Alpha  occ. eigenvalues --   -0.24107  -0.19530  -0.19259  -0.18531  -0.17133
 Alpha  occ. eigenvalues --   -0.16493  -0.16276  -0.12797   0.03883
 Alpha virt. eigenvalues --    0.05511   0.05825   0.07097   0.07578   0.08080
 Alpha virt. eigenvalues --    0.08504   0.08795   0.09498   0.09611   0.09819
 Alpha virt. eigenvalues --    0.10316   0.10575   0.11042   0.11602   0.12115

  Beta  occ. eigenvalues --  -18.99798 -18.99460 -14.25273 -14.24554 -14.21386
  Beta  occ. eigenvalues --  -10.18514 -10.18265 -10.12842 -10.11477 -10.11398
  Beta  occ. eigenvalues --  -10.11160 -10.10552 -10.09195 -10.08881 -10.08552
  Beta  occ. eigenvalues --  -10.07678 -10.07119 -10.06882  -0.95643  -0.94262
  Beta  occ. eigenvalues --   -0.86379  -0.82915  -0.80877  -0.79249  -0.69192
  Beta  occ. eigenvalues --   -0.67569  -0.63176  -0.61888  -0.61647  -0.57467
  Beta  occ. eigenvalues --   -0.55820  -0.52696  -0.50584  -0.48491  -0.45821
  Beta  occ. eigenvalues --   -0.44542  -0.43033  -0.40353  -0.39993  -0.39700
  Beta  occ. eigenvalues --   -0.38724  -0.38168  -0.37019  -0.36202  -0.35561
  Beta  occ. eigenvalues --   -0.34871  -0.33935  -0.33362  -0.32013  -0.31724
  Beta  occ. eigenvalues --   -0.31056  -0.30946  -0.30241  -0.28124  -0.26882
  Beta  occ. eigenvalues --   -0.26587  -0.26442  -0.26180  -0.24751  -0.24713
  Beta  occ. eigenvalues --   -0.24086  -0.19508  -0.19242  -0.18509  -0.17115
  Beta  occ. eigenvalues --   -0.16484  -0.16268  -0.12765
  Beta virt. eigenvalues --    0.05794   0.06323   0.06842   0.07519   0.08203
  Beta virt. eigenvalues --    0.08484   0.08897   0.09012   0.09665   0.09868
  Beta virt. eigenvalues --    0.09980   0.10781   0.11023   0.11221   0.11807

 Mulliken charges and spin densities:
               1          2
     1  C   -0.135587  -0.292024
     2  N   -0.234640   0.084719
     3  C    0.605909  -0.863294
     4  O   -0.318593   0.012043
     5  C   -0.582704   0.761719
     6  C    0.386742  -1.004202
     7  N   -0.122091   0.104031
     8  C    0.789347  -1.307129
     9  C   -0.282432   0.321009
    10  N    0.223214   0.035194
    11  C    0.032508  -0.709552
    12  O   -0.219833   0.004218
    13  C   -0.401906   0.491217
    14  C   -0.174183   0.040087
    15  C    0.718336  -0.797792
    16  C    0.131530  -0.587273
    17  C   -0.253015   0.102027
    18  C   -0.007199  -0.641136
    19  H    0.022443   0.131517
    20  H   -0.194010   0.335445
    21  H    0.197494   0.024342
    22  H    0.269423   0.020114
    23  H    0.047239   0.207189
    24  H   -0.073840   0.257063
    25  H    0.225074  -0.010792
    26  H   -0.050637   0.301271
    27  H    0.256128  -0.084288
    28  H   -0.568655   0.765722
    29  H   -0.306079   0.495784
    30  H   -0.162477   0.364784
    31  H    0.121755   0.156330
    32  H   -0.152725   0.379745
    33  H   -0.726819   0.967074
    34  H    0.021854   0.059974
    35  H   -0.224566   0.404768
    36  H    0.101017   0.033717
    37  H   -0.059164   0.232112
    38  H    0.218771  -0.050336
    39  H   -0.117628   0.254605
 Sum of Mulliken charges =  -1.00000   1.00000

 Dipole moment (field-independent basis, Debye):
    X=              2.0238    Y=             -4.5396    Z=              2.5279  Tot=              5.5762
 Quadrupole moment (field-independent basis, Debye-Ang):
   XX=           -181.0044   YY=           -168.1110   ZZ=           -150.6505
   XY=              0.4835   XZ=              1.5827   YZ=             -1.1135

 Summary of Natural Population Analysis:

                                       Natural Population
                Natural  -----------------------------------------------
    Atom  No    Charge         Core      Valence    Rydberg      Total
 -----------------------------------------------------------------------
      C    1   -0.18586      0.99964     2.17837    0.00785     3.18586
      N    2   -0.32053      0.99966     2.81104    0.00983     3.82053
      C    3    0.35451      0.99964     1.62196    0.02389     2.64549
      O    4   -0.32029      0.99987     3.31479    0.00562     4.32029
      C    5   -0.05181      0.99952     2.03732    0.01497     3.05181
      C    6   -0.09627      0.99960     2.08508    0.01159     3.09627
      N    7   -0.33193      0.99976     2.81923    0.01294     3.83193
      C    8   -0.09399      0.99961     2.08301    0.01137     3.09399
      C    9   -0.09214      0.99960     2.08151    0.01103     3.09214
      N   10   -0.24889      0.99964     2.73738    0.01188     3.74889
      C   11    0.35086      0.99960     1.62575    0.02380     2.64914
      O   12   -0.32779      0.99988     3.32271    0.00521     4.32779
      C   13   -0.16164      0.99951     2.15055    0.01158     3.16164
      C   14   -0.09525      0.99957     2.08514    0.01054     3.09525
      C   15   -0.09858      0.99957     2.08746    0.01155     3.09858
      C   16   -0.19352      0.99962     2.18571    0.00818     3.19352
      C   17   -0.19674      0.99964     2.18965    0.00746     3.19674
      C   18   -0.19300      0.99963     2.18526    0.00811     3.19300
      H   19    0.09223      0.00000     0.40659    0.00118     0.40777
      H   20    0.09652      0.00000     0.40275    0.00073     0.40348
      H   21    0.10868      0.00000     0.39000    0.00132     0.39132
      H   22    0.19025      0.00000     0.30725    0.00251     0.30975
      H   23    0.11032      0.00000     0.38792    0.00176     0.38968
      H   24    0.09969      0.00000     0.39935    0.00096     0.40031
      H   25    0.09606      0.00000     0.40228    0.00167     0.40394
      H   26    0.17273      0.00000     0.32395    0.00331     0.32727
      H   27    0.09024      0.00000     0.40785    0.00191     0.40976
      H   28    0.10161      0.00000     0.39669    0.00170     0.39839
      H   29    0.09547      0.00000     0.40276    0.00177     0.40453
      H   30    0.11119      0.00000     0.38724    0.00157     0.38881
      H   31    0.11839      0.00000     0.38038    0.00123     0.38161
      H   32    0.10604      0.00000     0.39298    0.00099     0.39396
      H   33    0.10897      0.00000     0.38812    0.00291     0.39103
      H   34    0.09750      0.00000     0.40111    0.00139     0.40250
      H   35    0.10096      0.00000     0.39770    0.00134     0.39904
      H   36    0.10329      0.00000     0.39493    0.00178     0.39671
      H   37    0.09809      0.00000     0.40103    0.00088     0.40191
      H   38    0.10859      0.00000     0.39050    0.00091     0.39141
      H   39    0.09606      0.00000     0.40290    0.00104     0.40394
 =======================================================================
   * Total *   -0.00000     17.99356    49.76620    0.24024    68.00000

 Normal termination of Gaussian 16 at Fri Dec 11 22:46:50 2020.
