 Gaussian 16, Revision A.03,

 -----------------------------------------------------------
 # opt freq B3LYP/6-31G(d) empiricaldispersion=gd3bj scf=xqc
 -----------------------------------------------------------

 ------------------------------
 CID_14280939_JID_7526_neutraal
 ------------------------------
 Symbolic Z-matrix:
 Charge =  0 Multiplicity = 1

 SCF Done:  E(RB3LYP) =  -752.609194814     A.U. after   14 cycles
 SCF Done:  E(RB3LYP) =  -752.615055318     A.U. after   12 cycles
 SCF Done:  E(RB3LYP) =  -752.615788414     A.U. after   12 cycles
 SCF Done:  E(RB3LYP) =  -752.615954350     A.U. after   12 cycles
 SCF Done:  E(RB3LYP) =  -752.616401440     A.U. after   11 cycles
 SCF Done:  E(RB3LYP) =  -752.616494723     A.U. after   11 cycles
 SCF Done:  E(RB3LYP) =  -752.616551272     A.U. after   11 cycles
 SCF Done:  E(RB3LYP) =  -752.616589297     A.U. after   10 cycles
 SCF Done:  E(RB3LYP) =  -752.616610309     A.U. after   10 cycles
 SCF Done:  E(RB3LYP) =  -752.616612744     A.U. after    9 cycles
 SCF Done:  E(RB3LYP) =  -752.616614138     A.U. after    8 cycles
 SCF Done:  E(RB3LYP) =  -752.616614349     A.U. after    7 cycles
 Optimization completed.
    -- Stationary point found.
 Normal termination of Gaussian 16 at Mon Dec 14 16:41:14 2020.

 --------------------------------------------------------------------
 #N Geom=AllCheck Guess=TCheck SCRF=Check GenChk RB3LYP/6-31G(d) Freq
 --------------------------------------------------------------------

 Structure from the checkpoint file:  "JID_7526.chk"
 ------------------------------
 CID_14280939_JID_7526_neutraal
 ------------------------------
 Charge =  0 Multiplicity = 1

 SCF Done:  E(RB3LYP) =  -752.616614349     A.U. after    1 cycles

  Exact polarizability: 180.704   3.868 149.970   4.684   0.390 126.122
 Approx polarizability: 227.017  12.141 212.511  14.696  11.358 209.692

                      1                      2                      3
                      A                      A                      A
 Frequencies --     28.6952                35.1369                48.9201
 Red. masses --      3.7404                 3.6733                 3.0007
 Frc consts  --      0.0018                 0.0027                 0.0042
 IR Inten    --      1.7880                 1.6908                 0.9589

                      4                      5                      6
                      A                      A                      A
 Frequencies --     70.9115                84.9104               103.8191
 Red. masses --      3.3525                 2.1881                 1.6929
 Frc consts  --      0.0099                 0.0093                 0.0108
 IR Inten    --      0.4368                 2.5683                 0.3575

                      7                      8                      9
                      A                      A                      A
 Frequencies --    110.1600               147.5185               150.2925
 Red. masses --      2.4282                 3.1271                 2.5363
 Frc consts  --      0.0174                 0.0401                 0.0338
 IR Inten    --      1.6073                 0.7777                 1.4600

                     10                     11                     12
                      A                      A                      A
 Frequencies --    188.6097               211.5110               239.4595
 Red. masses --      1.5558                 2.6935                 2.1598
 Frc consts  --      0.0326                 0.0710                 0.0730
 IR Inten    --      0.4860                 0.8540                 0.3285

                     13                     14                     15
                      A                      A                      A
 Frequencies --    279.1901               291.8382               327.6067
 Red. masses --      2.6463                 2.3759                 3.6173
 Frc consts  --      0.1215                 0.1192                 0.2287
 IR Inten    --      4.8330                 0.3013                 0.6008

                     16                     17                     18
                      A                      A                      A
 Frequencies --    337.7884               347.4352               386.8882
 Red. masses --      3.3237                 1.8341                 2.1973
 Frc consts  --      0.2234                 0.1304                 0.1938
 IR Inten    --      1.4011                 1.1820                 3.1054

                     19                     20                     21
                      A                      A                      A
 Frequencies --    398.2034               429.6594               437.3123
 Red. masses --      3.0932                 3.5376                 4.3909
 Frc consts  --      0.2890                 0.3848                 0.4948
 IR Inten    --      0.5859                 1.4449                 5.3720

                     22                     23                     24
                      A                      A                      A
 Frequencies --    460.3710               478.4727               504.1256
 Red. masses --      2.9612                 3.5908                 3.2981
 Frc consts  --      0.3698                 0.4843                 0.4938
 IR Inten    --      4.4342                 2.6215                 4.8909

                     25                     26                     27
                      A                      A                      A
 Frequencies --    536.3164               548.4159               595.0137
 Red. masses --      2.4766                 2.7355                 2.2064
 Frc consts  --      0.4197                 0.4847                 0.4602
 IR Inten    --      9.5470                 4.9257                 9.0063

                     28                     29                     30
                      A                      A                      A
 Frequencies --    662.3908               720.1636               765.4864
 Red. masses --      3.5509                 3.5316                 2.0478
 Frc consts  --      0.9179                 1.0792                 0.7070
 IR Inten    --      3.7921                 4.3124                 3.2989

                     31                     32                     33
                      A                      A                      A
 Frequencies --    772.8462               790.9055               832.8476
 Red. masses --      2.0845                 2.0923                 2.1536
 Frc consts  --      0.7336                 0.7711                 0.8801
 IR Inten    --      6.8376                 0.5742                10.9485

                     34                     35                     36
                      A                      A                      A
 Frequencies --    852.4861               889.4702               908.1826
 Red. masses --      2.5288                 1.5485                 2.3158
 Frc consts  --      1.0828                 0.7218                 1.1254
 IR Inten    --      4.6278                 1.3189                 0.5058

                     37                     38                     39
                      A                      A                      A
 Frequencies --    925.6689               941.2421               959.2513
 Red. masses --      1.7176                 1.8286                 1.9600
 Frc consts  --      0.8671                 0.9545                 1.0626
 IR Inten    --      1.5381                 3.6888                 1.5236

                     40                     41                     42
                      A                      A                      A
 Frequencies --    975.8423               978.9285               994.3805
 Red. masses --      2.2175                 2.1829                 1.6329
 Frc consts  --      1.2441                 1.2325                 0.9513
 IR Inten    --      4.8329                11.9665                14.9692

                     43                     44                     45
                      A                      A                      A
 Frequencies --   1015.9291              1027.2181              1053.2738
 Red. masses --      2.0926                 1.8134                 1.7038
 Frc consts  --      1.2725                 1.1274                 1.1136
 IR Inten    --     12.8901                 6.9109                 7.3568

                     46                     47                     48
                      A                      A                      A
 Frequencies --   1067.7306              1092.2718              1103.0729
 Red. masses --      2.3560                 2.4150                 2.2913
 Frc consts  --      1.5825                 1.6976                 1.6426
 IR Inten    --      8.6310                 6.1452                24.0472

                     49                     50                     51
                      A                      A                      A
 Frequencies --   1116.7946              1121.4136              1140.2892
 Red. masses --      2.2214                 2.2068                 2.1185
 Frc consts  --      1.6324                 1.6351                 1.6229
 IR Inten    --      5.0297                 2.9701                27.1860

                     52                     53                     54
                      A                      A                      A
 Frequencies --   1148.8577              1158.3678              1182.2694
 Red. masses --      2.1839                 1.9970                 2.0305
 Frc consts  --      1.6983                 1.5788                 1.6722
 IR Inten    --      8.9500                19.0086                64.9159

                     55                     56                     57
                      A                      A                      A
 Frequencies --   1199.7835              1207.0969              1220.8085
 Red. masses --      1.8639                 1.6339                 1.9748
 Frc consts  --      1.5808                 1.4027                 1.7341
 IR Inten    --      7.5479                45.6741                29.7724

                     58                     59                     60
                      A                      A                      A
 Frequencies --   1234.1017              1266.9209              1275.5017
 Red. masses --      2.0398                 1.4141                 1.6340
 Frc consts  --      1.8304                 1.3373                 1.5662
 IR Inten    --      8.8030                17.0384                13.7914

                     61                     62                     63
                      A                      A                      A
 Frequencies --   1285.3937              1292.8462              1315.0106
 Red. masses --      1.4968                 1.2519                 1.3511
 Frc consts  --      1.4571                 1.2329                 1.3765
 IR Inten    --      0.7774                 1.9166                 5.0908

                     64                     65                     66
                      A                      A                      A
 Frequencies --   1322.4438              1331.0095              1343.5911
 Red. masses --      1.5010                 1.2675                 1.2260
 Frc consts  --      1.5466                 1.3230                 1.3040
 IR Inten    --      8.9493                23.1640                18.3627

                     67                     68                     69
                      A                      A                      A
 Frequencies --   1350.7298              1365.2474              1372.5359
 Red. masses --      1.2819                 1.3454                 1.3303
 Frc consts  --      1.3779                 1.4775                 1.4766
 IR Inten    --      8.4286                 5.5151                10.8272

                     70                     71                     72
                      A                      A                      A
 Frequencies --   1392.1345              1398.7083              1408.6706
 Red. masses --      1.3757                 1.4398                 1.5003
 Frc consts  --      1.5709                 1.6596                 1.7541
 IR Inten    --      0.4186                 1.5251                 0.5613

                     73                     74                     75
                      A                      A                      A
 Frequencies --   1414.7867              1418.9115              1425.8566
 Red. masses --      1.4877                 1.2805                 1.5090
 Frc consts  --      1.7545                 1.5190                 1.8076
 IR Inten    --      3.0527                34.3908                 5.2245

                     76                     77                     78
                      A                      A                      A
 Frequencies --   1436.1813              1446.4287              1450.9736
 Red. masses --      1.3204                 1.3473                 1.2918
 Frc consts  --      1.6047                 1.6607                 1.6024
 IR Inten    --      6.2736                10.3620                 3.9991

                     79                     80                     81
                      A                      A                      A
 Frequencies --   1488.3943              1491.0385              1502.0653
 Red. masses --      1.0614                 1.0862                 1.0523
 Frc consts  --      1.3854                 1.4228                 1.3989
 IR Inten    --      7.1706                 6.3931                12.4751

                     82                     83                     84
                      A                      A                      A
 Frequencies --   1510.7882              1515.0513              1517.5810
 Red. masses --      1.0893                 1.0835                 1.0865
 Frc consts  --      1.4649                 1.4654                 1.4743
 IR Inten    --      6.8507                 4.6615                 0.6939

                     85                     86                     87
                      A                      A                      A
 Frequencies --   1524.4532              1528.8188              1534.3391
 Red. masses --      1.0877                 1.0544                 1.0622
 Frc consts  --      1.4894                 1.4520                 1.4734
 IR Inten    --      3.7680                 2.4986                 2.2488

                     88                     89                     90
                      A                      A                      A
 Frequencies --   1536.0362              1543.7285              1797.9874
 Red. masses --      1.0872                 1.0769                11.5760
 Frc consts  --      1.5113                 1.5121                22.0487
 IR Inten    --     11.1451                 2.6578               335.2487

                     91                     92                     93
                      A                      A                      A
 Frequencies --   1824.1861              2901.0260              2922.9016
 Red. masses --     10.5871                 1.0741                 1.0761
 Frc consts  --     20.7571                 5.3262                 5.4165
 IR Inten    --     13.7381                44.0516                35.1292

                     94                     95                     96
                      A                      A                      A
 Frequencies --   2931.5875              3007.8751              3017.4884
 Red. masses --      1.0783                 1.0707                 1.0699
 Frc consts  --      5.4600                 5.7074                 5.7397
 IR Inten    --     66.0198                 3.5770                 7.3440

                     97                     98                     99
                      A                      A                      A
 Frequencies --   3029.6368              3047.0252              3047.9390
 Red. masses --      1.0757                 1.0621                 1.0615
 Frc consts  --      5.8172                 5.8099                 5.8101
 IR Inten    --     43.5404                25.2860                28.8529

                    100                    101                    102
                      A                      A                      A
 Frequencies --   3049.8239              3053.4258              3058.7764
 Red. masses --      1.0383                 1.0759                 1.0442
 Frc consts  --      5.6904                 5.9102                 5.7560
 IR Inten    --     25.3323                11.5944                 4.1039

                    103                    104                    105
                      A                      A                      A
 Frequencies --   3066.2867              3072.8480              3079.2952
 Red. masses --      1.0716                 1.0955                 1.1005
 Frc consts  --      5.9362                 6.0948                 6.1479
 IR Inten    --     19.4783                51.7681                13.1257

                    106                    107                    108
                      A                      A                      A
 Frequencies --   3090.7979              3112.6859              3115.1589
 Red. masses --      1.1050                 1.1021                 1.0931
 Frc consts  --      6.2195                 6.2912                 6.2497
 IR Inten    --     45.1613                37.5889                22.2985

                    109                    110                    111
                      A                      A                      A
 Frequencies --   3120.6272              3123.2744              3129.5285
 Red. masses --      1.0995                 1.0936                 1.0919
 Frc consts  --      6.3086                 6.2853                 6.3010
 IR Inten    --     60.3386                 6.3837                14.2805

                    112                    113                    114
                      A                      A                      A
 Frequencies --   3133.8705              3151.3217              3173.1282
 Red. masses --      1.0880                 1.0883                 1.1050
 Frc consts  --      6.2957                 6.3675                 6.5551
 IR Inten    --     29.1902                27.3675                 8.8064

 - Thermochemistry -
 -------------------
 Temperature   298.150 Kelvin.  Pressure   1.00000 Atm.
 Atom     1 has atomic number  6 and mass  12.00000

 Molecular mass:   237.17288 amu.
 Principal axes and moments of inertia in atomic units:
                           1         2         3
     Eigenvalues --  2402.743286130.932027578.39984
           X            0.99998   0.00433  -0.00395
           Y           -0.00443   0.99965  -0.02620
           Z            0.00383   0.02622   0.99965
 This molecule is an asymmetric top.
 Rotational symmetry number  1.
 Warning -- assumption of classical behavior for rotation
           may cause significant error
 Rotational temperatures (Kelvin)      0.03605     0.01413     0.01143
 Rotational constants (GHZ):           0.75112     0.29437     0.23814
 Zero-point vibrational energy     938486.2 (Joules/Mol)
                                  224.30357 (Kcal/Mol)
 Warning -- explicit consideration of  27 degrees of freedom as
           vibrations may cause significant error
 Vibrational temperatures:     41.29    50.55    70.39   102.03   122.17
          (Kelvin)            149.37   158.50   212.25   216.24   271.37
                              304.32   344.53   401.69   419.89   471.35
                              486.00   499.88   556.65   572.93   618.18
                              629.19   662.37   688.42   725.32   771.64
                              789.05   856.09   953.03  1036.15  1101.36
                             1111.95  1137.94  1198.28  1226.54  1279.75
                             1306.67  1331.83  1354.24  1380.15  1404.02
                             1408.46  1430.69  1461.70  1477.94  1515.43
                             1536.23  1571.54  1587.08  1606.82  1613.46
                             1640.62  1652.95  1666.63  1701.02  1726.22
                             1736.74  1756.47  1775.60  1822.82  1835.16
                             1849.39  1860.12  1892.01  1902.70  1915.03
                             1933.13  1943.40  1964.29  1974.77  2002.97
                             2012.43  2026.76  2035.56  2041.50  2051.49
                             2066.34  2081.09  2087.63  2141.47  2145.27
                             2161.14  2173.69  2179.82  2183.46  2193.35
                             2199.63  2207.57  2210.01  2221.08  2586.90
                             2624.60  4173.93  4205.40  4217.90  4327.66
                             4341.49  4358.97  4383.99  4385.30  4388.02
                             4393.20  4400.90  4411.70  4421.14  4430.42
                             4446.97  4478.46  4482.02  4489.89  4493.70
                             4502.69  4508.94  4534.05  4565.42

 Zero-point correction=                           0.357450 (Hartree/Particle)
 Thermal correction to Energy=                    0.374824
 Thermal correction to Enthalpy=                  0.375768
 Thermal correction to Gibbs Free Energy=         0.311248
 Sum of electronic and zero-point Energies=           -752.259164
 Sum of electronic and thermal Energies=              -752.241790
 Sum of electronic and thermal Enthalpies=            -752.240846
 Sum of electronic and thermal Free Energies=         -752.305367

                     E (Thermal)             CV                S
                      KCal/Mol        Cal/Mol-Kelvin    Cal/Mol-Kelvin
 Total                  235.206             66.047            135.795
 Electronic               0.000              0.000              0.000
 Translational            0.889              2.981             42.292
 Rotational               0.889              2.981             33.079
 Vibrational            233.428             60.086             60.424
 Vibration     1          0.593              1.984              5.918
 Vibration     2          0.594              1.982              5.516
 Vibration     3          0.595              1.978              4.861
 Vibration     4          0.598              1.968              4.128
 Vibration     5          0.601              1.960              3.774
 Vibration     6          0.605              1.946              3.381
 Vibration     7          0.606              1.941              3.266
 Vibration     8          0.617              1.905              2.704
 Vibration     9          0.618              1.902              2.669
 Vibration    10          0.633              1.856              2.241
 Vibration    11          0.643              1.823              2.031
 Vibration    12          0.657              1.780              1.807
 Vibration    13          0.680              1.712              1.539
 Vibration    14          0.687              1.689              1.463
 Vibration    15          0.711              1.620              1.272
 Vibration    16          0.718              1.600              1.223
 Vibration    17          0.725              1.580              1.178
 Vibration    18          0.755              1.498              1.012
 Vibration    19          0.764              1.474              0.969
 Vibration    20          0.791              1.406              0.860
 Vibration    21          0.798              1.389              0.835
 Vibration    22          0.818              1.338              0.765
 Vibration    23          0.835              1.298              0.714
 Vibration    24          0.859              1.241              0.648
 Vibration    25          0.891              1.170              0.573
 Vibration    26          0.904              1.143              0.547
 Vibration    27          0.953              1.042              0.458

                           ! Non-Optimized Parameters !
 Normal termination of Gaussian 16 at Mon Dec 14 16:58:16 2020.

 ----------------------------------------------------------------------
 # B3LYP/6-311++G(d,p) empiricaldispersion=gd3bj scf=xqc pop=npa geom=c
 heck
 ----------------------------------------------------------------------

 --------------------------------------
 CID_14280939_JID_7526_Energie_neutraal
 --------------------------------------
 Structure from the checkpoint file:  "JID_7526.chk"
 Charge =  0 Multiplicity = 1

 SCF Done:  E(RB3LYP) =  -752.827122223     A.U. after   15 cycles
 Normal termination of Gaussian 16 at Mon Dec 14 17:07:44 2020.

 ----------------------------------------------------------------------
 # B3LYP/6-311++G(d,p) empiricaldispersion=gd3bj scf=xqc pop=npa geom=c
 heck
 ----------------------------------------------------------------------

 ------------------------------------
 CID_14280939_JID_7526_Energie_kation
 ------------------------------------
 Structure from the checkpoint file:  "JID_7526.chk"
 Charge =  1 Multiplicity = 2

 SCF Done:  E(UB3LYP) =  -752.533673809     A.U. after   25 cycles
 Normal termination of Gaussian 16 at Mon Dec 14 17:31:21 2020.
 Gaussian 16:  ES64L-G16RevA.03 25-Dec-2016

 ----------------------------------------------------------------------
 # B3LYP/6-311++G(d,p) empiricaldispersion=gd3bj scf=xqc pop=npa geom=c
 heck
 ----------------------------------------------------------------------

 -----------------------------------
 CID_14280939_JID_7526_Energie_anion
 -----------------------------------
 Structure from the checkpoint file:  "JID_7526.chk"
 Charge = -1 Multiplicity = 2

                         Standard orientation:
 ---------------------------------------------------------------------
 Center     Atomic      Atomic             Coordinates (Angstroms)
 Number     Number       Type             X           Y           Z
 ---------------------------------------------------------------------
      1          6           0       -4.765557   -1.475492   -0.314315
      2          6           0       -3.739353   -1.317288    0.813370
      3          6           0       -2.267389   -1.246907    0.351153
      4          7           0       -1.698929    0.109888    0.365683
      5          6           0       -2.457767    1.000138   -0.517656
      6          6           0       -1.993933    2.448556   -0.402739
      7          6           0       -0.507111    2.549409   -0.726048
      8          6           0        0.284952    1.569587    0.141375
      9          6           0       -0.260778    0.129510    0.025784
     10          6           0        0.549107   -0.795800    0.951047
     11          6           0        2.067698   -0.739179    0.723130
     12          6           0        2.612493    0.686157    0.627679
     13          8           0        3.649856    1.016885    1.169524
     14          6           0        1.779911    1.622074   -0.217307
     15          6           0        2.500048   -1.540620   -0.523413
     16          8           0        1.692639   -2.151101   -1.195458
     17          6           0        3.978553   -1.530444   -0.852103
     18          1           0       -4.726174   -0.649237   -1.031799
     19          1           0       -5.784976   -1.523539    0.085209
     20          1           0       -4.584037   -2.400504   -0.874144
     21          1           0       -3.958395   -0.431203    1.421477
     22          1           0       -3.845876   -2.174132    1.489907
     23          1           0       -1.675164   -1.858742    1.030990
     24          1           0       -2.169842   -1.708439   -0.652116
     25          1           0       -3.511719    0.942456   -0.240955
     26          1           0       -2.382223    0.670218   -1.575349
     27          1           0       -2.586092    3.078148   -1.077668
     28          1           0       -2.177339    2.798891    0.620783
     29          1           0       -0.343661    2.301012   -1.785426
     30          1           0       -0.134191    3.570653   -0.578055
     31          1           0        0.167195    1.870182    1.192803
     32          1           0       -0.112174   -0.211484   -1.017861
     33          1           0        0.252309   -1.835775    0.810810
     34          1           0        0.326865   -0.519420    1.988945
     35          1           0        2.594871   -1.201987    1.567307
     36          1           0        1.898691    1.317695   -1.269832
     37          1           0        2.181047    2.635011   -0.119227
     38          1           0        4.245640   -0.565388   -1.301296
     39          1           0        4.590980   -1.632283    0.048909
     40          1           0        4.201557   -2.325831   -1.565464
 ---------------------------------------------------------------------

 SCF Done:  E(UB3LYP) =  -752.824730515     A.U. after   33 cycles
 SCF Done:  E(UB3LYP) =  -752.824730515     a.u. after    1 cycles

 The electronic state is 2-A.
 Alpha  occ. eigenvalues --  -18.97357 -18.96872 -14.20165 -10.11568 -10.10773
 Alpha  occ. eigenvalues --  -10.08880 -10.08851 -10.08812 -10.07387 -10.06779
 Alpha  occ. eigenvalues --  -10.06733 -10.06685 -10.06372 -10.05860 -10.05551
 Alpha  occ. eigenvalues --  -10.05539 -10.05298  -0.91237  -0.90479  -0.82571
 Alpha  occ. eigenvalues --   -0.72148  -0.69362  -0.67615  -0.64892  -0.62096
 Alpha  occ. eigenvalues --   -0.60411  -0.58836  -0.54049  -0.51613  -0.49602
 Alpha  occ. eigenvalues --   -0.47461  -0.45468  -0.43475  -0.39635  -0.38896
 Alpha  occ. eigenvalues --   -0.37311  -0.35923  -0.35666  -0.34589  -0.34501
 Alpha  occ. eigenvalues --   -0.33500  -0.32950  -0.31747  -0.31197  -0.30430
 Alpha  occ. eigenvalues --   -0.29963  -0.29603  -0.29133  -0.28828  -0.27865
 Alpha  occ. eigenvalues --   -0.26035  -0.25584  -0.25167  -0.25080  -0.24381
 Alpha  occ. eigenvalues --   -0.24016  -0.23594  -0.23075  -0.22922  -0.21606
 Alpha  occ. eigenvalues --   -0.20235  -0.19613  -0.12912  -0.11799  -0.11134
 Alpha  occ. eigenvalues --    0.04513
 Alpha virt. eigenvalues --    0.05858   0.07101   0.08070   0.08263   0.08951
 Alpha virt. eigenvalues --    0.09356   0.09676   0.10322   0.10661   0.11038
 Alpha virt. eigenvalues --    0.11702   0.11875   0.12188   0.12411   0.13011

  Beta  occ. eigenvalues --  -18.97106 -18.96612 -14.20160 -10.11261 -10.10460
  Beta  occ. eigenvalues --  -10.08877 -10.08842 -10.08810 -10.07381 -10.06761
  Beta  occ. eigenvalues --  -10.06710 -10.06678 -10.06360 -10.05912 -10.05576
  Beta  occ. eigenvalues --  -10.05529 -10.05321  -0.90732  -0.89958  -0.82562
  Beta  occ. eigenvalues --   -0.72066  -0.69269  -0.67590  -0.64703  -0.61977
  Beta  occ. eigenvalues --   -0.60235  -0.58806  -0.53971  -0.51552  -0.49493
  Beta  occ. eigenvalues --   -0.47417  -0.45410  -0.42771  -0.39569  -0.38589
  Beta  occ. eigenvalues --   -0.37236  -0.35841  -0.35516  -0.34503  -0.34416
  Beta  occ. eigenvalues --   -0.33319  -0.32635  -0.31551  -0.30981  -0.30320
  Beta  occ. eigenvalues --   -0.29808  -0.29392  -0.29102  -0.28656  -0.27704
  Beta  occ. eigenvalues --   -0.25926  -0.25488  -0.25075  -0.24991  -0.24314
  Beta  occ. eigenvalues --   -0.23523  -0.23305  -0.22801  -0.22257  -0.20934
  Beta  occ. eigenvalues --   -0.20034  -0.19565  -0.12722  -0.11759  -0.10864
  Beta virt. eigenvalues --    0.06424   0.07354   0.08088   0.08226   0.09039
  Beta virt. eigenvalues --    0.09217   0.09541   0.10095   0.10403   0.11136
  Beta virt. eigenvalues --    0.11716   0.11865   0.12234   0.12456   0.12942

 Mulliken charges and spin densities:
               1          2
     1  C    0.490507  -1.040640
     2  C   -0.968205   0.759386
     3  C    0.092507  -0.329491
     4  N    0.336476   0.026904
     5  C    0.133818  -0.300740
     6  C   -0.255962  -0.285463
     7  C   -0.340230   0.032801
     8  C    0.649947   0.370962
     9  C   -1.106064  -0.323497
    10  C   -0.228253  -0.114571
    11  C    0.890522  -0.030375
    12  C   -0.532996   0.126437
    13  O   -0.320749   0.100833
    14  C   -0.285611  -0.324507
    15  C   -0.300514   0.160465
    16  O   -0.302079   0.097544
    17  C   -0.482842  -0.089078
    18  H   -0.140002   0.269860
    19  H   -0.357564   0.494997
    20  H    0.008161   0.124475
    21  H    0.121114   0.040528
    22  H    0.010198   0.124941
    23  H    0.124244   0.006377
    24  H    0.151704  -0.020209
    25  H    0.007308   0.148355
    26  H    0.179234  -0.080819
    27  H   -0.239786   0.412605
    28  H    0.169065  -0.048376
    29  H   -0.035416   0.175166
    30  H    0.093640   0.045367
    31  H    0.176247   0.025351
    32  H    0.108922   0.145354
    33  H    0.175544   0.009445
    34  H    0.171476  -0.002166
    35  H    0.192011   0.065665
    36  H    0.087232   0.089688
    37  H    0.177938   0.010231
    38  H    0.057549   0.123564
    39  H    0.143858   0.003772
    40  H    0.147052  -0.001137
 Sum of Mulliken charges =  -1.00000   1.00000

 Dipole moment (field-independent basis, Debye):
    X=             -0.6853    Y=              0.3032    Z=              1.5797  Tot=              1.7484
 Quadrupole moment (field-independent basis, Debye-Ang):
   XX=           -191.9805   YY=           -136.3847   ZZ=           -130.0018
   XY=             -7.0759   XZ=             -6.7889   YZ=             -4.5510

 Summary of Natural Population Analysis:

                                       Natural Population
                Natural  -----------------------------------------------
    Atom  No    Charge         Core      Valence    Rydberg      Total
 -----------------------------------------------------------------------
      C    1   -0.28636      0.99967     2.28157    0.00512     3.28636
      C    2   -0.20095      0.99964     2.19234    0.00897     3.20095
      C    3   -0.08375      0.99961     2.07324    0.01089     3.08375
      N    4   -0.27849      0.99969     2.76856    0.01023     3.77849
      C    5   -0.08583      0.99961     2.07431    0.01191     3.08583
      C    6   -0.19185      0.99962     2.18345    0.00877     3.19185
      C    7   -0.18605      0.99961     2.17766    0.00878     3.18605
      C    8   -0.10608      0.99957     2.09711    0.00940     3.10608
      C    9   -0.00604      0.99955     1.99334    0.01316     3.00604
      C   10   -0.19149      0.99960     2.18154    0.01035     3.19149
      C   11   -0.19063      0.99951     2.18094    0.01017     3.19063
      C   12    0.33256      0.99962     1.64425    0.02356     2.66744
      O   13   -0.27729      0.99987     3.27057    0.00685     4.27729
      C   14   -0.23560      0.99957     2.22638    0.00965     3.23560
      C   15    0.32770      0.99967     1.64995    0.02267     2.67230
      O   16   -0.27715      0.99987     3.27089    0.00638     4.27715
      C   17   -0.33619      0.99963     2.33159    0.00498     3.33619
      H   18    0.09759      0.00000     0.40136    0.00106     0.40241
      H   19    0.09757      0.00000     0.40138    0.00104     0.40243
      H   20    0.09542      0.00000     0.40368    0.00090     0.40458
      H   21    0.09962      0.00000     0.39915    0.00123     0.40038
      H   22    0.09514      0.00000     0.40397    0.00089     0.40486
      H   23    0.09747      0.00000     0.40137    0.00116     0.40253
      H   24    0.08147      0.00000     0.41742    0.00111     0.41853
      H   25    0.09554      0.00000     0.40250    0.00196     0.40446
      H   26    0.07874      0.00000     0.41980    0.00146     0.42126
      H   27    0.09767      0.00000     0.40140    0.00093     0.40233
      H   28    0.09501      0.00000     0.40378    0.00121     0.40499
      H   29    0.09571      0.00000     0.40316    0.00112     0.40429
      H   30    0.09696      0.00000     0.40215    0.00089     0.40304
      H   31    0.09469      0.00000     0.40365    0.00166     0.40531
      H   32    0.09164      0.00000     0.40648    0.00188     0.40836
      H   33    0.10794      0.00000     0.39083    0.00123     0.39206
      H   34    0.09914      0.00000     0.39997    0.00089     0.40086
      H   35    0.11748      0.00000     0.38144    0.00108     0.38252
      H   36    0.10913      0.00000     0.38932    0.00155     0.39087
      H   37    0.10590      0.00000     0.39294    0.00116     0.39410
      H   38    0.11381      0.00000     0.38476    0.00143     0.38619
      H   39    0.10692      0.00000     0.39241    0.00067     0.39308
      H   40    0.10292      0.00000     0.39608    0.00100     0.39708
 =======================================================================
   * Total *    0.00000     16.99393    47.79669    0.20937    65.00000

 Normal termination of Gaussian 16 at Mon Dec 14 17:58:48 2020.
