 Gaussian 16, Revision A.03,

 -----------------------------------------------------------
 # opt freq B3LYP/6-31G(d) empiricaldispersion=gd3bj scf=xqc
 -----------------------------------------------------------

 -----------------------------
 CID_21793372_JID_179_neutraal
 -----------------------------
 Symbolic Z-matrix:
 Charge =  0 Multiplicity = 1

 SCF Done:  E(RB3LYP) =  -479.790069003     A.U. after   14 cycles
 SCF Done:  E(RB3LYP) =  -479.793198164     A.U. after   12 cycles
 SCF Done:  E(RB3LYP) =  -479.793538905     A.U. after   11 cycles
 SCF Done:  E(RB3LYP) =  -479.793609137     A.U. after   10 cycles
 SCF Done:  E(RB3LYP) =  -479.793639409     A.U. after   10 cycles
 SCF Done:  E(RB3LYP) =  -479.793652870     A.U. after    9 cycles
 SCF Done:  E(RB3LYP) =  -479.793669083     A.U. after   10 cycles
 SCF Done:  E(RB3LYP) =  -479.793673448     A.U. after    9 cycles
 SCF Done:  E(RB3LYP) =  -479.793675534     A.U. after    9 cycles
 SCF Done:  E(RB3LYP) =  -479.793676201     A.U. after    8 cycles
 SCF Done:  E(RB3LYP) =  -479.793676853     A.U. after    8 cycles
 SCF Done:  E(RB3LYP) =  -479.793677205     A.U. after    8 cycles
 SCF Done:  E(RB3LYP) =  -479.793677355     A.U. after    7 cycles
 SCF Done:  E(RB3LYP) =  -479.793677411     A.U. after    6 cycles
 Optimization completed.
    -- Stationary point found.
 Normal termination of Gaussian 16 at Tue Dec  8 10:20:02 2020.

 --------------------------------------------------------------------
 #N Geom=AllCheck Guess=TCheck SCRF=Check GenChk RB3LYP/6-31G(d) Freq
 --------------------------------------------------------------------

 Structure from the checkpoint file:  "JID_179.chk"
 -----------------------------
 CID_21793372_JID_179_neutraal
 -----------------------------
 Charge =  0 Multiplicity = 1

 SCF Done:  E(RB3LYP) =  -479.793677411     A.U. after    1 cycles

  Exact polarizability: 104.944   2.678  73.648   0.862  -1.399  73.085
 Approx polarizability: 134.864   4.150  97.161   4.193  -0.690 115.007

                      1                      2                      3
                      A                      A                      A
 Frequencies --     32.8114                69.8175                85.5956
 Red. masses --      3.3059                 4.7699                 2.4086
 Frc consts  --      0.0021                 0.0137                 0.0104
 IR Inten    --      1.1588                 0.2676                 0.2331

                      4                      5                      6
                      A                      A                      A
 Frequencies --    125.0416               185.9989               208.7143
 Red. masses --      2.1756                 2.2996                 1.3127
 Frc consts  --      0.0200                 0.0469                 0.0337
 IR Inten    --      0.7146                 0.6378                 1.0833

                      7                      8                      9
                      A                      A                      A
 Frequencies --    247.4716               279.5325               289.3113
 Red. masses --      1.4925                 1.8349                 2.6371
 Frc consts  --      0.0539                 0.0845                 0.1301
 IR Inten    --      1.9853                 0.9257                 2.7915

                     10                     11                     12
                      A                      A                      A
 Frequencies --    344.1203               407.2430               515.0079
 Red. masses --      2.5599                 2.9861                 3.0572
 Frc consts  --      0.1786                 0.2918                 0.4777
 IR Inten    --      6.2409                 1.2802                 1.1212

                     13                     14                     15
                      A                      A                      A
 Frequencies --    565.5922               661.7606               706.6501
 Red. masses --      3.6482                 4.8243                 9.0212
 Frc consts  --      0.6876                 1.2448                 2.6541
 IR Inten    --      7.5338                 5.3753                15.5692

                     16                     17                     18
                      A                      A                      A
 Frequencies --    771.5152               794.3614               817.1549
 Red. masses --      3.6607                 1.2744                 3.2705
 Frc consts  --      1.2838                 0.4738                 1.2867
 IR Inten    --      4.7259                 1.1567                 3.1874

                     19                     20                     21
                      A                      A                      A
 Frequencies --    824.5180               891.9556               945.7342
 Red. masses --      1.1848                 3.3599                 2.4417
 Frc consts  --      0.4746                 1.5749                 1.2867
 IR Inten    --      0.5460                 4.4661                27.1360

                     22                     23                     24
                      A                      A                      A
 Frequencies --    960.1162               996.6372              1003.6846
 Red. masses --      3.0152                 1.9518                 1.8673
 Frc consts  --      1.6376                 1.1423                 1.1083
 IR Inten    --      3.2373                10.9035                22.6097

                     25                     26                     27
                      A                      A                      A
 Frequencies --   1036.2730              1093.2980              1116.3335
 Red. masses --      6.5588                 3.3627                 2.1428
 Frc consts  --      4.1498                 2.3682                 1.5733
 IR Inten    --     92.4010                69.6738                20.3573

                     28                     29                     30
                      A                      A                      A
 Frequencies --   1126.1031              1133.3116              1168.2999
 Red. masses --      2.1242                 2.1114                 1.9481
 Frc consts  --      1.5871                 1.5978                 1.5667
 IR Inten    --      2.2249                67.0492                21.6978

                     31                     32                     33
                      A                      A                      A
 Frequencies --   1201.8935              1232.7381              1286.9659
 Red. masses --      1.7183                 1.0997                 1.3739
 Frc consts  --      1.4624                 0.9846                 1.3408
 IR Inten    --      0.3142                 4.2936                22.9890

                     34                     35                     36
                      A                      A                      A
 Frequencies --   1312.5031              1344.1306              1349.5095
 Red. masses --      1.5575                 1.2689                 1.3275
 Frc consts  --      1.5808                 1.3507                 1.4245
 IR Inten    --     90.9892                 5.8934                83.7389

                     37                     38                     39
                      A                      A                      A
 Frequencies --   1364.8756              1386.0396              1405.5084
 Red. masses --      1.6637                 1.4079                 1.3285
 Frc consts  --      1.8260                 1.5935                 1.5463
 IR Inten    --     21.3003                84.9532                 7.3113

                     40                     41                     42
                      A                      A                      A
 Frequencies --   1433.5560              1443.9484              1450.1520
 Red. masses --      1.3592                 1.2939                 1.4983
 Frc consts  --      1.6458                 1.5895                 1.8564
 IR Inten    --     40.9661                11.6822                33.5680

                     43                     44                     45
                      A                      A                      A
 Frequencies --   1510.0073              1516.7800              1526.1388
 Red. masses --      1.0804                 1.0440                 1.0606
 Frc consts  --      1.4514                 1.4151                 1.4555
 IR Inten    --      1.6553                 1.9889                 4.5247

                     46                     47                     48
                      A                      A                      A
 Frequencies --   1529.0984              1539.9142              1541.2808
 Red. masses --      1.0594                 1.0705                 1.0755
 Frc consts  --      1.4594                 1.4956                 1.5054
 IR Inten    --      0.8323                 9.2013                 0.8331

                     49                     50                     51
                      A                      A                      A
 Frequencies --   1553.7768              1759.5971              3033.2762
 Red. masses --      1.0999                10.2423                 1.0667
 Frc consts  --      1.5646                18.6843                 5.7825
 IR Inten    --      9.6997               579.8376                22.5674

                     52                     53                     54
                      A                      A                      A
 Frequencies --   3050.5985              3054.3263              3061.6606
 Red. masses --      1.0414                 1.0820                 1.0362
 Frc consts  --      5.7098                 5.9473                 5.7225
 IR Inten    --     31.2629                39.8719                14.4349

                     55                     56                     57
                      A                      A                      A
 Frequencies --   3079.3373              3084.7146              3094.8015
 Red. masses --      1.0609                 1.0959                 1.0596
 Frc consts  --      5.9272                 6.1437                 5.9796
 IR Inten    --     56.4536                13.3741                28.1301

                     58                     59                     60
                      A                      A                      A
 Frequencies --   3112.7520              3130.1501              3130.4636
 Red. masses --      1.0996                 1.1093                 1.1007
 Frc consts  --      6.2772                 6.4037                 6.3555
 IR Inten    --     54.6110                22.4508                29.6612

                     61                     62                     63
                      A                      A                      A
 Frequencies --   3136.1862              3136.5907              3158.2011
 Red. masses --      1.1036                 1.1034                 1.1077
 Frc consts  --      6.3952                 6.3957                 6.5096
 IR Inten    --     19.2958                15.1241                36.7095

 - Thermochemistry -
 -------------------
 Temperature   298.150 Kelvin.  Pressure   1.00000 Atm.
 Atom     1 has atomic number  6 and mass  12.00000

 Molecular mass:   143.09463 amu.
 Principal axes and moments of inertia in atomic units:
                           1         2         3
     Eigenvalues --   752.011462091.560152253.20145
           X            0.99998   0.00413   0.00498
           Y           -0.00398   0.99955  -0.02957
           Z           -0.00510   0.02955   0.99955
 This molecule is an asymmetric top.
 Rotational symmetry number  1.
 Warning -- assumption of classical behavior for rotation
           may cause significant error
 Rotational temperatures (Kelvin)      0.11518     0.04141     0.03844
 Rotational constants (GHZ):           2.39989     0.86287     0.80097
 Zero-point vibrational energy     528482.9 (Joules/Mol)
                                  126.31044 (Kcal/Mol)
 Warning -- explicit consideration of  13 degrees of freedom as
           vibrations may cause significant error
 Vibrational temperatures:     47.21   100.45   123.15   179.91   267.61
          (Kelvin)            300.29   356.06   402.18   416.25   495.11
                              585.93   740.98   813.76   952.13  1016.71
                             1110.04  1142.91  1175.70  1186.30  1283.33
                             1360.70  1381.39  1433.94  1444.08  1490.97
                             1573.01  1606.15  1620.21  1630.58  1680.92
                             1729.26  1773.64  1851.66  1888.40  1933.90
                             1941.64  1963.75  1994.20  2022.21  2062.57
                             2077.52  2086.45  2172.56  2182.31  2195.77
                             2200.03  2215.59  2217.56  2235.54  2531.67
                             4364.21  4389.13  4394.49  4405.05  4430.48
                             4438.22  4452.73  4478.56  4503.59  4504.04
                             4512.27  4512.85  4543.95

 Zero-point correction=                           0.201288 (Hartree/Particle)
 Thermal correction to Energy=                    0.211861
 Thermal correction to Enthalpy=                  0.212805
 Thermal correction to Gibbs Free Energy=         0.164280
 Sum of electronic and zero-point Energies=           -479.592389
 Sum of electronic and thermal Energies=              -479.581817
 Sum of electronic and thermal Enthalpies=            -479.580873
 Sum of electronic and thermal Free Energies=         -479.629397

                     E (Thermal)             CV                S
                      KCal/Mol        Cal/Mol-Kelvin    Cal/Mol-Kelvin
 Total                  132.944             38.143            102.128
 Electronic               0.000              0.000              0.000
 Translational            0.889              2.981             40.786
 Rotational               0.889              2.981             29.651
 Vibrational            131.167             32.181             31.691
 Vibration     1          0.594              1.983              5.652
 Vibration     2          0.598              1.969              4.158
 Vibration     3          0.601              1.959              3.758
 Vibration     4          0.610              1.928              3.021
 Vibration     5          0.632              1.859              2.267
 Vibration     6          0.642              1.827              2.055
 Vibration     7          0.661              1.767              1.749
 Vibration     8          0.680              1.711              1.537
 Vibration     9          0.686              1.694              1.478
 Vibration    10          0.723              1.587              1.193
 Vibration    11          0.772              1.454              0.936
 Vibration    12          0.870              1.217              0.622
 Vibration    13          0.921              1.106              0.513

 Optimization completed.
    -- Stationary point found.
 Normal termination of Gaussian 16 at Tue Dec  8 10:23:52 2020.

 ----------------------------------------------------------------------
 # B3LYP/6-311++G(d,p) empiricaldispersion=gd3bj scf=xqc pop=npa geom=c
 heck
 ----------------------------------------------------------------------

 -------------------------------------
 CID_21793372_JID_179_Energie_neutraal
 -------------------------------------
 Structure from the checkpoint file:  "JID_179.chk"
 Charge =  0 Multiplicity = 1

 SCF Done:  E(RB3LYP) =  -479.930548231     A.U. after   14 cycles
 Normal termination of Gaussian 16 at Tue Dec  8 10:25:30 2020.

 ----------------------------------------------------------------------
 # B3LYP/6-311++G(d,p) empiricaldispersion=gd3bj scf=xqc pop=npa geom=c
 heck
 ----------------------------------------------------------------------

 -----------------------------------
 CID_21793372_JID_179_Energie_kation
 -----------------------------------
 Structure from the checkpoint file:  "JID_179.chk"
 Charge =  1 Multiplicity = 2

 SCF Done:  E(UB3LYP) =  -479.613360111     A.U. after   20 cycles
 Normal termination of Gaussian 16 at Tue Dec  8 10:28:40 2020.
 Gaussian 16:  ES64L-G16RevA.03 25-Dec-2016

 ----------------------------------------------------------------------
 # B3LYP/6-311++G(d,p) empiricaldispersion=gd3bj scf=xqc pop=npa geom=c
 heck
 ----------------------------------------------------------------------

 ----------------------------------
 CID_21793372_JID_179_Energie_anion
 ----------------------------------
 Structure from the checkpoint file:  "JID_179.chk"
 Charge = -1 Multiplicity = 2

                         Standard orientation:
 ---------------------------------------------------------------------
 Center     Atomic      Atomic             Coordinates (Angstroms)
 Number     Number       Type             X           Y           Z
 ---------------------------------------------------------------------
      1          6           0       -1.962471    1.783935   -0.017016
      2          6           0       -2.678727    0.449800   -0.237877
      3          6           0       -1.751637   -0.774676   -0.165658
      4          6           0       -1.039235   -0.941506    1.208946
      5          8           0        0.348798   -0.650851    0.921110
      6          6           0        0.415559   -0.575255   -0.445830
      7          7           0       -0.651277   -0.664081   -1.133554
      8          8           0        1.630504   -0.418111   -0.965748
      9          6           0        2.741285   -0.168303   -0.075828
     10          6           0        2.757764    1.272707    0.408698
     11          1           0       -1.476598    1.831550    0.965440
     12          1           0       -2.668346    2.619193   -0.074156
     13          1           0       -1.193043    1.934451   -0.779962
     14          1           0       -3.481095    0.320019    0.502175
     15          1           0       -3.155711    0.452397   -1.224921
     16          1           0       -2.344987   -1.668552   -0.392096
     17          1           0       -1.379289   -0.241932    1.976584
     18          1           0       -1.096122   -1.962266    1.599300
     19          1           0        2.706159   -0.872905    0.758810
     20          1           0        3.616944   -0.390369   -0.689679
     21          1           0        1.881579    1.481559    1.028730
     22          1           0        3.656234    1.453750    1.009629
     23          1           0        2.763574    1.963163   -0.440484
 ---------------------------------------------------------------------

 SCF Done:  E(UB3LYP) =  -479.914438698     A.U. after   29 cycles

 The electronic state is 2-A.
 Alpha  occ. eigenvalues --  -19.06468 -19.06002 -14.17813 -10.20334 -10.12991
 Alpha  occ. eigenvalues --  -10.12119 -10.10038 -10.06364 -10.06334 -10.05359
 Alpha  occ. eigenvalues --   -1.02116  -0.95306  -0.80401  -0.69158  -0.66305
 Alpha  occ. eigenvalues --   -0.62388  -0.55811  -0.55058  -0.47975  -0.46515
 Alpha  occ. eigenvalues --   -0.42435  -0.40405  -0.38370  -0.35960  -0.35032
 Alpha  occ. eigenvalues --   -0.34612  -0.31816  -0.31697  -0.29879  -0.28260
 Alpha  occ. eigenvalues --   -0.27527  -0.27379  -0.25129  -0.24293  -0.24184
 Alpha  occ. eigenvalues --   -0.22641  -0.20666  -0.17374  -0.13628   0.04670
 Alpha virt. eigenvalues --    0.06521   0.07647   0.08583   0.09344   0.09590
 Alpha virt. eigenvalues --    0.09866   0.11242   0.11483   0.12128   0.13491
 Alpha virt. eigenvalues --    0.14041   0.14192   0.14752   0.15362   0.16214

  Beta  occ. eigenvalues --  -19.06468 -19.05995 -14.17810 -10.20327 -10.12969
  Beta  occ. eigenvalues --  -10.12078 -10.10030 -10.06326 -10.06315 -10.05333
  Beta  occ. eigenvalues --   -1.02103  -0.95297  -0.80386  -0.69119  -0.66264
  Beta  occ. eigenvalues --   -0.62333  -0.55741  -0.55004  -0.47927  -0.46461
  Beta  occ. eigenvalues --   -0.42408  -0.40367  -0.38316  -0.35910  -0.35000
  Beta  occ. eigenvalues --   -0.34550  -0.31781  -0.31670  -0.29839  -0.28218
  Beta  occ. eigenvalues --   -0.27476  -0.27339  -0.25097  -0.24265  -0.24144
  Beta  occ. eigenvalues --   -0.22609  -0.20643  -0.17364  -0.13609
  Beta virt. eigenvalues --    0.07124   0.07787   0.08404   0.09286   0.09846
  Beta virt. eigenvalues --    0.10289   0.10562   0.11782   0.11950   0.12754
  Beta virt. eigenvalues --    0.13567   0.14306   0.14357   0.15067   0.15631

 Mulliken charges and spin densities:
               1          2
     1  C   -0.082312  -0.338581
     2  C    1.066245  -1.615891
     3  C   -1.594305   2.042909
     4  C    1.737449  -2.267184
     5  O   -0.173041   0.082050
     6  C    0.429873  -0.519330
     7  N   -0.151377  -0.046286
     8  O   -0.124283   0.044005
     9  C   -0.041362  -0.226336
    10  C    0.844129  -1.186592
    11  H    0.066173   0.071661
    12  H   -0.135452   0.282663
    13  H    0.029950   0.112288
    14  H   -0.380811   0.513304
    15  H    0.065400   0.081153
    16  H   -0.394588   0.628481
    17  H   -0.573111   0.771612
    18  H   -0.482326   0.662350
    19  H    0.044318   0.138974
    20  H   -0.376649   0.549325
    21  H   -0.165844   0.322033
    22  H   -0.650632   0.799711
    23  H    0.042557   0.097680
 Sum of Mulliken charges =  -1.00000   1.00000

 Dipole moment (field-independent basis, Debye):
    X=             -0.1383    Y=              0.2779    Z=             -2.7537  Tot=              2.7711
 Quadrupole moment (field-independent basis, Debye-Ang):
   XX=           -127.7593   YY=            -95.9500   ZZ=           -100.3514
   XY=             -5.6605   XZ=              1.0106   YZ=             -0.2224

 Summary of Natural Population Analysis:

                                       Natural Population
                Natural  -----------------------------------------------
    Atom  No    Charge         Core      Valence    Rydberg      Total
 -----------------------------------------------------------------------
      C    1   -0.29280      0.99966     2.28711    0.00603     3.29280
      C    2   -0.19106      0.99962     2.18237    0.00908     3.19106
      C    3   -0.03089      0.99960     2.01644    0.01485     3.03089
      C    4   -0.01410      0.99957     2.00328    0.01124     3.01410
      O    5   -0.28962      0.99987     3.28170    0.00805     4.28962
      C    6    0.42481      0.99952     1.55289    0.02279     2.57519
      N    7   -0.29150      0.99966     2.78197    0.00987     3.79150
      O    8   -0.26995      0.99984     3.26134    0.00877     4.26995
      C    9   -0.01333      0.99957     2.00141    0.01234     3.01333
      C   10   -0.30054      0.99966     2.29581    0.00506     3.30054
      H   11    0.09687      0.00000     0.40179    0.00134     0.40313
      H   12    0.09872      0.00000     0.40039    0.00089     0.40128
      H   13    0.10228      0.00000     0.39646    0.00127     0.39772
      H   14    0.09723      0.00000     0.40079    0.00198     0.40277
      H   15    0.09818      0.00000     0.40069    0.00113     0.40182
      H   16    0.09678      0.00000     0.40165    0.00157     0.40322
      H   17    0.09287      0.00000     0.40485    0.00228     0.40713
      H   18    0.09180      0.00000     0.40540    0.00280     0.40820
      H   19    0.09369      0.00000     0.40456    0.00175     0.40631
      H   20    0.09056      0.00000     0.40800    0.00144     0.40944
      H   21    0.10547      0.00000     0.39280    0.00173     0.39453
      H   22    0.10517      0.00000     0.39228    0.00255     0.39483
      H   23    0.09937      0.00000     0.39959    0.00104     0.40063
 =======================================================================
   * Total *    0.00000      9.99658    28.87356    0.12986    39.00000

 Normal termination of Gaussian 16 at Tue Dec  8 10:35:09 2020.
