 Gaussian 16, Revision A.03,

 -----------------------------------------------------------
 # opt freq B3LYP/6-31G(d) empiricaldispersion=gd3bj scf=xqc
 -----------------------------------------------------------

 ------------------------------
 CID_85794979_JID_1738_neutraal
 ------------------------------
 Symbolic Z-matrix:
 Charge =  0 Multiplicity = 1

 SCF Done:  E(RB3LYP) =  -467.095877247     A.U. after   13 cycles
 SCF Done:  E(RB3LYP) =  -467.099563609     A.U. after   11 cycles
 SCF Done:  E(RB3LYP) =  -467.099853319     A.U. after   10 cycles
 SCF Done:  E(RB3LYP) =  -467.099952526     A.U. after   10 cycles
 SCF Done:  E(RB3LYP) =  -467.099972706     A.U. after    9 cycles
 SCF Done:  E(RB3LYP) =  -467.099985227     A.U. after    9 cycles
 SCF Done:  E(RB3LYP) =  -467.099986104     A.U. after    7 cycles
 SCF Done:  E(RB3LYP) =  -467.099986408     A.U. after    7 cycles
 SCF Done:  E(RB3LYP) =  -467.099986452     A.U. after    6 cycles
 Optimization completed.
    -- Stationary point found.
 Normal termination of Gaussian 16 at Tue Dec  8 21:04:21 2020.

 --------------------------------------------------------------------
 #N Geom=AllCheck Guess=TCheck SCRF=Check GenChk RB3LYP/6-31G(d) Freq
 --------------------------------------------------------------------

 Structure from the checkpoint file:  "JID_1738.chk"
 ------------------------------
 CID_85794979_JID_1738_neutraal
 ------------------------------
 Charge =  0 Multiplicity = 1

 SCF Done:  E(RB3LYP) =  -467.099986452     A.U. after    1 cycles

  Exact polarizability: 116.096   3.191 104.876   0.497   0.409  91.896
 Approx polarizability: 146.743   2.349 145.764   2.767   0.509 139.558

                      1                      2                      3
                      A                      A                      A
 Frequencies --     63.8576                71.1744                84.9892
 Red. masses --      3.3505                 3.3618                 3.3837
 Frc consts  --      0.0080                 0.0100                 0.0144
 IR Inten    --      0.8768                 0.7824                 0.3852

                      4                      5                      6
                      A                      A                      A
 Frequencies --     98.9550               135.0405               152.8107
 Red. masses --      2.3784                 2.3444                 2.3911
 Frc consts  --      0.0137                 0.0252                 0.0329
 IR Inten    --      0.8243                 1.2609                 1.1179

                      7                      8                      9
                      A                      A                      A
 Frequencies --    186.6723               231.6937               274.2175
 Red. masses --      1.5687                 1.0770                 2.1288
 Frc consts  --      0.0322                 0.0341                 0.0943
 IR Inten    --      1.4095                 0.0152                 0.7221

                     10                     11                     12
                      A                      A                      A
 Frequencies --    279.7514               300.1196               330.4749
 Red. masses --      1.8742                 2.3287                 1.2082
 Frc consts  --      0.0864                 0.1236                 0.0777
 IR Inten    --      2.6470                 1.2877               115.0034

                     13                     14                     15
                      A                      A                      A
 Frequencies --    343.5200               410.7999               431.4016
 Red. masses --      2.2700                 2.5491                 3.0904
 Frc consts  --      0.1578                 0.2535                 0.3389
 IR Inten    --      1.4464                 6.3876                 9.8931

                     16                     17                     18
                      A                      A                      A
 Frequencies --    448.6624               463.4491               566.8565
 Red. masses --      2.2069                 2.8155                 2.6816
 Frc consts  --      0.2617                 0.3563                 0.5077
 IR Inten    --      3.4972                 2.7975                 3.2436

                     19                     20                     21
                      A                      A                      A
 Frequencies --    669.9386               692.2627               794.3672
 Red. masses --      2.7786                 2.5787                 1.2615
 Frc consts  --      0.7348                 0.7281                 0.4690
 IR Inten    --      1.7042                 0.7936                 0.7250

                     22                     23                     24
                      A                      A                      A
 Frequencies --    805.4904               817.8108               885.0799
 Red. masses --      1.1780                 1.5926                 1.6186
 Frc consts  --      0.4503                 0.6276                 0.7471
 IR Inten    --      4.9579                 2.9872                 5.3742

                     25                     26                     27
                      A                      A                      A
 Frequencies --    899.7903               927.8337               959.1011
 Red. masses --      1.6392                 1.7364                 2.2299
 Frc consts  --      0.7819                 0.8807                 1.2086
 IR Inten    --      4.6350                 4.1015                 2.7434

                     28                     29                     30
                      A                      A                      A
 Frequencies --    981.5212               998.4840              1019.1286
 Red. masses --      1.5705                 1.7803                 1.6799
 Frc consts  --      0.8914                 1.0457                 1.0280
 IR Inten    --      3.5815                 7.8582                 5.5025

                     31                     32                     33
                      A                      A                      A
 Frequencies --   1033.3391              1047.3546              1061.3034
 Red. masses --      2.1937                 1.4167                 2.6114
 Frc consts  --      1.3801                 0.9156                 1.7330
 IR Inten    --     10.2921                 3.5037                51.7708

                     34                     35                     36
                      A                      A                      A
 Frequencies --   1064.0380              1075.9602              1095.2399
 Red. masses --      2.2070                 1.4060                 1.7720
 Frc consts  --      1.4722                 0.9590                 1.2524
 IR Inten    --     23.8238                12.8278                 1.8006

                     37                     38                     39
                      A                      A                      A
 Frequencies --   1104.2954              1134.2663              1145.0187
 Red. masses --      1.8314                 1.8109                 1.8195
 Frc consts  --      1.3158                 1.3727                 1.4055
 IR Inten    --      0.9682                 1.6037                 2.9014

                     40                     41                     42
                      A                      A                      A
 Frequencies --   1156.1342              1169.5752              1234.8514
 Red. masses --      1.7534                 1.7947                 1.7787
 Frc consts  --      1.3809                 1.4464                 1.5980
 IR Inten    --     15.3764                 7.8318                 4.6241

                     43                     44                     45
                      A                      A                      A
 Frequencies --   1247.3216              1277.5122              1327.4195
 Red. masses --      1.6281                 1.9432                 1.2686
 Frc consts  --      1.4924                 1.8685                 1.3170
 IR Inten    --      7.6852                 0.3700                 4.9700

                     46                     47                     48
                      A                      A                      A
 Frequencies --   1333.0235              1356.2289              1384.8299
 Red. masses --      1.3444                 1.3746                 1.6541
 Frc consts  --      1.4075                 1.4897                 1.8690
 IR Inten    --      0.8974                 2.4893                 3.6348

                     49                     50                     51
                      A                      A                      A
 Frequencies --   1392.6363              1411.1047              1437.7449
 Red. masses --      1.3560                 1.3755                 1.2461
 Frc consts  --      1.5495                 1.6137                 1.5177
 IR Inten    --      4.1635                14.0518                15.7799

                     52                     53                     54
                      A                      A                      A
 Frequencies --   1439.4412              1441.3768              1476.3563
 Red. masses --      1.2516                 1.3688                 1.1916
 Frc consts  --      1.5279                 1.6755                 1.5303
 IR Inten    --      5.8543                35.6307                 6.6407

                     55                     56                     57
                      A                      A                      A
 Frequencies --   1506.1063              1514.7006              1519.7575
 Red. masses --      1.1473                 1.0642                 1.0662
 Frc consts  --      1.5334                 1.4386                 1.4510
 IR Inten    --      0.7416                 2.8430                 2.2291

                     58                     59                     60
                      A                      A                      A
 Frequencies --   1530.9822              1532.4082              1533.0097
 Red. masses --      1.0426                 1.0922                 1.0724
 Frc consts  --      1.4399                 1.5112                 1.4849
 IR Inten    --      3.8088                 1.0090                10.7394

                     61                     62                     63
                      A                      A                      A
 Frequencies --   1533.8385              1544.8660              1588.5856
 Red. masses --      1.0418                 1.0731                 4.9194
 Frc consts  --      1.4441                 1.5090                 7.3145
 IR Inten    --      1.2869                 0.8028                 4.0865

                     64                     65                     66
                      A                      A                      A
 Frequencies --   2996.6037              3036.2281              3038.8271
 Red. masses --      1.0713                 1.0598                 1.0606
 Frc consts  --      5.6679                 5.7563                 5.7702
 IR Inten    --     53.1590                35.5064                 5.1373

                     67                     68                     69
                      A                      A                      A
 Frequencies --   3048.9339              3050.2324              3064.9854
 Red. masses --      1.0366                 1.0368                 1.1012
 Frc consts  --      5.6775                 5.6834                 6.0951
 IR Inten    --     31.6381                26.1086                24.2723

                     70                     71                     72
                      A                      A                      A
 Frequencies --   3072.5328              3097.3791              3114.0921
 Red. masses --      1.1011                 1.0924                 1.0967
 Frc consts  --      6.1247                 6.1747                 6.2660
 IR Inten    --     18.4779                44.7157                11.2112

                     73                     74                     75
                      A                      A                      A
 Frequencies --   3116.4475              3116.4726              3117.7323
 Red. masses --      1.1006                 1.0637                 1.1019
 Frc consts  --      6.2980                 6.0866                 6.3106
 IR Inten    --     36.1131                37.4398                74.2516

                     76                     77                     78
                      A                      A                      A
 Frequencies --   3119.4150              3129.4376              3144.9092
 Red. masses --      1.0999                 1.0541                 1.0890
 Frc consts  --      6.3061                 6.0825                 6.3460
 IR Inten    --     27.3971                24.6416                19.8300

                     79                     80                     81
                      A                      A                      A
 Frequencies --   3194.4245              3208.0905              3746.2637
 Red. masses --      1.1153                 1.1165                 1.0657
 Frc consts  --      6.7056                 6.7703                 8.8120
 IR Inten    --     17.5431                14.1169                 5.8220

 - Thermochemistry -
 -------------------
 Temperature   298.150 Kelvin.  Pressure   1.00000 Atm.
 Atom     1 has atomic number  6 and mass  12.00000

 Molecular mass:   154.13577 amu.
 Principal axes and moments of inertia in atomic units:
                           1         2         3
     Eigenvalues --  1165.116002421.905133044.16000
           X            0.99978   0.01812  -0.01050
           Y           -0.01801   0.99978   0.01095
           Z            0.01069  -0.01076   0.99988
 This molecule is an asymmetric top.
 Rotational symmetry number  1.
 Warning -- assumption of classical behavior for rotation
           may cause significant error
 Rotational temperatures (Kelvin)      0.07434     0.03576     0.02845
 Rotational constants (GHZ):           1.54898     0.74517     0.59285
 Zero-point vibrational energy     690178.8 (Joules/Mol)
                                  164.95670 (Kcal/Mol)
 Warning -- explicit consideration of  18 degrees of freedom as
           vibrations may cause significant error
 Vibrational temperatures:     91.88   102.40   122.28   142.37   194.29
          (Kelvin)            219.86   268.58   333.36   394.54   402.50
                              431.81   475.48   494.25   591.05   620.69
                              645.53   666.80   815.58   963.89   996.01
                             1142.92  1158.92  1176.65  1273.43  1294.60
                             1334.95  1379.93  1412.19  1436.60  1466.30
                             1486.74  1506.91  1526.98  1530.91  1548.07
                             1575.81  1588.83  1631.96  1647.43  1663.42
                             1682.76  1776.68  1794.62  1838.06  1909.86
                             1917.92  1951.31  1992.46  2003.69  2030.26
                             2068.59  2071.03  2073.82  2124.15  2166.95
                             2179.32  2186.59  2202.74  2204.79  2205.66
                             2206.85  2222.72  2285.62  4311.44  4368.46
                             4372.19  4386.74  4388.60  4409.83  4420.69
                             4456.44  4480.48  4483.87  4483.91  4485.72
                             4488.14  4502.56  4524.82  4596.06  4615.73
                             5390.04

 Zero-point correction=                           0.262875 (Hartree/Particle)
 Thermal correction to Energy=                    0.275775
 Thermal correction to Enthalpy=                  0.276720
 Thermal correction to Gibbs Free Energy=         0.224055
 Sum of electronic and zero-point Energies=           -466.837111
 Sum of electronic and thermal Energies=              -466.824211
 Sum of electronic and thermal Enthalpies=            -466.823267
 Sum of electronic and thermal Free Energies=         -466.875932

                     E (Thermal)             CV                S
                      KCal/Mol        Cal/Mol-Kelvin    Cal/Mol-Kelvin
 Total                  173.052             48.239            110.842
 Electronic               0.000              0.000              0.000
 Translational            0.889              2.981             41.008
 Rotational               0.889              2.981             30.530
 Vibrational            171.274             42.277             39.304
 Vibration     1          0.597              1.972              4.334
 Vibration     2          0.598              1.968              4.121
 Vibration     3          0.601              1.960              3.772
 Vibration     4          0.604              1.950              3.475
 Vibration     5          0.613              1.918              2.873
 Vibration     6          0.619              1.900              2.637
 Vibration     7          0.632              1.858              2.261
 Vibration     8          0.653              1.793              1.866
 Vibration     9          0.677              1.721              1.569
 Vibration    10          0.680              1.711              1.535
 Vibration    11          0.693              1.673              1.416
 Vibration    12          0.713              1.615              1.258
 Vibration    13          0.722              1.588              1.196
 Vibration    14          0.775              1.447              0.924
 Vibration    15          0.792              1.402              0.854
 Vibration    16          0.808              1.364              0.800
 Vibration    17          0.821              1.331              0.756
 Vibration    18          0.923              1.103              0.510

                           ! Non-Optimized Parameters !
 Normal termination of Gaussian 16 at Tue Dec  8 21:11:24 2020.

 ----------------------------------------------------------------------
 # B3LYP/6-311++G(d,p) empiricaldispersion=gd3bj scf=xqc pop=npa geom=c
 heck
 ----------------------------------------------------------------------

 --------------------------------------
 CID_85794979_JID_1738_Energie_neutraal
 --------------------------------------
 Structure from the checkpoint file:  "JID_1738.chk"
 Charge =  0 Multiplicity = 1

 SCF Done:  E(RB3LYP) =  -467.238711362     A.U. after   13 cycles
 Normal termination of Gaussian 16 at Tue Dec  8 21:14:09 2020.

 ----------------------------------------------------------------------
 # B3LYP/6-311++G(d,p) empiricaldispersion=gd3bj scf=xqc pop=npa geom=c
 heck
 ----------------------------------------------------------------------

 ------------------------------------
 CID_85794979_JID_1738_Energie_kation
 ------------------------------------
 Structure from the checkpoint file:  "JID_1738.chk"
 Charge =  1 Multiplicity = 2

 SCF Done:  E(UB3LYP) =  -466.905972282     A.U. after   25 cycles
 Normal termination of Gaussian 16 at Tue Dec  8 21:20:46 2020.
 Gaussian 16:  ES64L-G16RevA.03 25-Dec-2016

 ----------------------------------------------------------------------
 # B3LYP/6-311++G(d,p) empiricaldispersion=gd3bj scf=xqc pop=npa geom=c
 heck
 ----------------------------------------------------------------------

 -----------------------------------
 CID_85794979_JID_1738_Energie_anion
 -----------------------------------
 Structure from the checkpoint file:  "JID_1738.chk"
 Charge = -1 Multiplicity = 2

                         Standard orientation:
 ---------------------------------------------------------------------
 Center     Atomic      Atomic             Coordinates (Angstroms)
 Number     Number       Type             X           Y           Z
 ---------------------------------------------------------------------
      1          6           0        2.634191   -1.439028   -0.801065
      2          6           0        2.096000   -0.848056    0.506425
      3          6           0        0.884787    0.054047    0.310492
      4          6           0       -0.061130    0.219843    1.503676
      5          6           0       -0.458989   -0.581260    0.312236
      6          6           0       -1.061894   -1.914390    0.063836
      7          6           0       -1.631720   -0.659605   -0.597129
      8          6           0       -2.955066   -0.090917   -0.146137
      9          8           0       -3.022256    1.319736   -0.342301
     10          6           0        1.064540    1.273720   -0.584434
     11          6           0        2.110652    2.266973   -0.070333
     12          1           0        1.848889   -1.984432   -1.337120
     13          1           0        3.456663   -2.136247   -0.607515
     14          1           0        3.013184   -0.659887   -1.471505
     15          1           0        1.811986   -1.664838    1.181172
     16          1           0        2.894358   -0.292062    1.016036
     17          1           0        0.179267   -0.308180    2.424136
     18          1           0       -0.508275    1.200206    1.665027
     19          1           0       -0.535384   -2.624010   -0.569914
     20          1           0       -1.644380   -2.374240    0.860233
     21          1           0       -1.432026   -0.539401   -1.661548
     22          1           0       -3.782641   -0.507130   -0.729841
     23          1           0       -3.126744   -0.354895    0.910049
     24          1           0       -2.290231    1.703424    0.164998
     25          1           0        1.330845    0.948057   -1.598807
     26          1           0        0.093534    1.776344   -0.683026
     27          1           0        3.111360    1.821388   -0.047143
     28          1           0        2.158866    3.154922   -0.710045
     29          1           0        1.870551    2.595136    0.947813
 ---------------------------------------------------------------------

 SCF Done:  E(UB3LYP) =  -467.221952339     A.U. after   31 cycles

 The electronic state is 2-A.
 Alpha  occ. eigenvalues --  -19.02495 -10.11999 -10.08170 -10.08082 -10.08012
 Alpha  occ. eigenvalues --  -10.07600 -10.06875 -10.06304 -10.06128 -10.05243
 Alpha  occ. eigenvalues --  -10.05144  -0.92553  -0.79328  -0.72408  -0.65260
 Alpha  occ. eigenvalues --   -0.64515  -0.59623  -0.53593  -0.52296  -0.49054
 Alpha  occ. eigenvalues --   -0.46450  -0.42598  -0.41396  -0.38653  -0.36771
 Alpha  occ. eigenvalues --   -0.35589  -0.34033  -0.33565  -0.32022  -0.30617
 Alpha  occ. eigenvalues --   -0.29070  -0.28201  -0.27703  -0.26496  -0.25390
 Alpha  occ. eigenvalues --   -0.24734  -0.23971  -0.22758  -0.22148  -0.18876
 Alpha  occ. eigenvalues --   -0.18379  -0.17259  -0.16067   0.04731
 Alpha virt. eigenvalues --    0.07001   0.07154   0.07803   0.08882   0.09301
 Alpha virt. eigenvalues --    0.09517   0.09972   0.10309   0.11640   0.12151
 Alpha virt. eigenvalues --    0.12380   0.13058   0.13449   0.13527   0.15098

  Beta  occ. eigenvalues --  -19.02478 -10.11985 -10.08170 -10.08082 -10.08007
  Beta  occ. eigenvalues --  -10.07575 -10.06842 -10.06288 -10.06105 -10.05206
  Beta  occ. eigenvalues --  -10.05103  -0.92520  -0.79314  -0.72388  -0.65223
  Beta  occ. eigenvalues --   -0.64470  -0.59581  -0.53512  -0.52209  -0.48995
  Beta  occ. eigenvalues --   -0.46379  -0.42564  -0.41349  -0.38618  -0.36742
  Beta  occ. eigenvalues --   -0.35552  -0.34001  -0.33531  -0.31978  -0.30583
  Beta  occ. eigenvalues --   -0.29040  -0.28156  -0.27657  -0.26430  -0.25358
  Beta  occ. eigenvalues --   -0.24699  -0.23934  -0.22728  -0.22117  -0.18852
  Beta  occ. eigenvalues --   -0.18363  -0.17239  -0.16039
  Beta virt. eigenvalues --    0.06956   0.07802   0.07903   0.08408   0.09405
  Beta virt. eigenvalues --    0.09762   0.09985   0.10514   0.10842   0.12118
  Beta virt. eigenvalues --    0.12602   0.12840   0.13486   0.13768   0.13938

 Mulliken charges and spin densities:
               1          2
     1  C    1.029520  -1.694586
     2  C   -0.152297  -0.234438
     3  C    0.018134   1.242165
     4  C    0.467598  -1.238209
     5  C   -0.813244   0.517223
     6  C    1.126371  -1.821505
     7  C   -0.415185   0.981071
     8  C    0.453423  -1.113026
     9  O   -0.254389   0.017384
    10  C   -1.355614   1.083971
    11  C    1.176163  -1.836553
    12  H   -0.081407   0.218214
    13  H   -0.439998   0.583663
    14  H   -0.133267   0.277752
    15  H   -0.138176   0.273310
    16  H   -0.110025   0.275846
    17  H   -0.299176   0.487359
    18  H   -0.147880   0.286107
    19  H   -0.093113   0.238153
    20  H   -0.131861   0.286210
    21  H   -0.082782   0.292969
    22  H    0.026443   0.136581
    23  H   -0.042835   0.205549
    24  H    0.084189   0.149729
    25  H    0.004564   0.144315
    26  H    0.130961  -0.017079
    27  H   -0.203203   0.347147
    28  H   -0.288561   0.426588
    29  H   -0.334354   0.484090
 Sum of Mulliken charges =  -1.00000   1.00000

 Dipole moment (field-independent basis, Debye):
    X=             -3.3139    Y=             -0.9113    Z=             -0.6490  Tot=              3.4976
 Quadrupole moment (field-independent basis, Debye-Ang):
   XX=           -132.5740   YY=           -121.1362   ZZ=           -105.0798
   XY=              3.3179   XZ=              1.0231   YZ=             -0.4936

 Summary of Natural Population Analysis:

                                       Natural Population
                Natural  -----------------------------------------------
    Atom  No    Charge         Core      Valence    Rydberg      Total
 -----------------------------------------------------------------------
      C    1   -0.28442      0.99966     2.27936    0.00541     3.28442
      C    2   -0.18522      0.99959     2.17612    0.00951     3.18522
      C    3   -0.03102      0.99949     2.01698    0.01455     3.03102
      C    4   -0.18462      0.99956     2.17558    0.00949     3.18462
      C    5   -0.04997      0.99948     2.03314    0.01735     3.04997
      C    6   -0.18361      0.99957     2.17516    0.00888     3.18361
      C    7   -0.11745      0.99953     2.10941    0.00851     3.11745
      C    8   -0.00789      0.99957     1.99611    0.01221     3.00789
      O    9   -0.36930      0.99990     3.36285    0.00654     4.36930
      C   10   -0.18526      0.99959     2.17604    0.00963     3.18526
      C   11   -0.28503      0.99966     2.28035    0.00502     3.28503
      H   12    0.09567      0.00000     0.40287    0.00146     0.40433
      H   13    0.09951      0.00000     0.39940    0.00108     0.40049
      H   14    0.09688      0.00000     0.40190    0.00122     0.40312
      H   15    0.09892      0.00000     0.39947    0.00161     0.40108
      H   16    0.09847      0.00000     0.40024    0.00129     0.40153
      H   17    0.10460      0.00000     0.39402    0.00138     0.39540
      H   18    0.09943      0.00000     0.39883    0.00174     0.40057
      H   19    0.10574      0.00000     0.39305    0.00120     0.39426
      H   20    0.10076      0.00000     0.39803    0.00120     0.39924
      H   21    0.10448      0.00000     0.39419    0.00133     0.39552
      H   22    0.08465      0.00000     0.41406    0.00129     0.41535
      H   23    0.07740      0.00000     0.42097    0.00163     0.42260
      H   24    0.22823      0.00000     0.26802    0.00375     0.27177
      H   25    0.09800      0.00000     0.40058    0.00142     0.40200
      H   26    0.09651      0.00000     0.40173    0.00177     0.40349
      H   27    0.09764      0.00000     0.40107    0.00129     0.40236
      H   28    0.09859      0.00000     0.40036    0.00105     0.40141
      H   29    0.09831      0.00000     0.40024    0.00145     0.40169
 =======================================================================
   * Total *    0.00000     10.99562    31.87013    0.13425    43.00000

 Normal termination of Gaussian 16 at Tue Dec  8 21:30:56 2020.
