 Gaussian 16, Revision A.03,

 -----------------------------------------------------------
 # opt freq B3LYP/6-31G(d) empiricaldispersion=gd3bj scf=xqc
 -----------------------------------------------------------

 ------------------------------
 CID_23037917_JID_4443_neutraal
 ------------------------------
 Symbolic Z-matrix:
 Charge =  0 Multiplicity = 1

 SCF Done:  E(RB3LYP) =  -1278.19609487     A.U. after   15 cycles
 SCF Done:  E(RB3LYP) =  -1278.19867201     A.U. after   13 cycles
 SCF Done:  E(RB3LYP) =  -1278.19607292     A.U. after   14 cycles
 SCF Done:  E(RB3LYP) =  -1278.19936228     A.U. after   13 cycles
 SCF Done:  E(RB3LYP) =  -1278.20031831     A.U. after   15 cycles
 SCF Done:  E(RB3LYP) =  -1278.20061523     A.U. after   12 cycles
 SCF Done:  E(RB3LYP) =  -1278.20064491     A.U. after   11 cycles
 SCF Done:  E(RB3LYP) =  -1278.20064574     A.U. after   11 cycles
 SCF Done:  E(RB3LYP) =  -1278.20065777     A.U. after   10 cycles
 SCF Done:  E(RB3LYP) =  -1278.20065815     A.U. after    9 cycles
 SCF Done:  E(RB3LYP) =  -1278.20065812     A.U. after    7 cycles
 Optimization completed.
    -- Stationary point found.
 Normal termination of Gaussian 16 at Thu Dec 10 09:47:48 2020.

 --------------------------------------------------------------------
 #N Geom=AllCheck Guess=TCheck SCRF=Check GenChk RB3LYP/6-31G(d) Freq
 --------------------------------------------------------------------

 Structure from the checkpoint file:  "JID_4443.chk"
 ------------------------------
 CID_23037917_JID_4443_neutraal
 ------------------------------
 Charge =  0 Multiplicity = 1

 SCF Done:  E(RB3LYP) =  -1278.20065812     A.U. after    1 cycles

  Exact polarizability: 214.108 -23.222 115.510  -4.554 -16.235 130.528
 Approx polarizability: 317.728 -49.752 185.995 -11.097 -46.285 245.141

                      1                      2                      3
                      A                      A                      A
 Frequencies --     26.4366                41.1240                69.9264
 Red. masses --      4.5404                 4.1024                 3.7465
 Frc consts  --      0.0019                 0.0041                 0.0108
 IR Inten    --      0.2663                 0.1722                 0.5514

                      4                      5                      6
                      A                      A                      A
 Frequencies --    113.4496               149.9296               181.0006
 Red. masses --      3.8402                 2.3573                 1.9539
 Frc consts  --      0.0291                 0.0312                 0.0377
 IR Inten    --      0.1189                 0.0797                 0.5008

                      7                      8                      9
                      A                      A                      A
 Frequencies --    201.8510               210.1545               242.2326
 Red. masses --      4.9358                 6.4375                 2.6842
 Frc consts  --      0.1185                 0.1675                 0.0928
 IR Inten    --      1.9293                 0.6875                 0.5766

                     10                     11                     12
                      A                      A                      A
 Frequencies --    266.6644               312.2443               370.6484
 Red. masses --      1.7841                 3.9435                 2.3063
 Frc consts  --      0.0747                 0.2265                 0.1867
 IR Inten    --      0.1270                 0.2634                 0.3874

                     13                     14                     15
                      A                      A                      A
 Frequencies --    378.4078               400.2294               440.8390
 Red. masses --      5.9171                 5.8657                 3.1473
 Frc consts  --      0.4992                 0.5536                 0.3604
 IR Inten    --      1.4822                 1.3410                 5.5386

                     16                     17                     18
                      A                      A                      A
 Frequencies --    469.4084               526.0640               532.3534
 Red. masses --      2.2342                 6.4314                 7.5273
 Frc consts  --      0.2900                 1.0486                 1.2569
 IR Inten    --      1.8757                 3.1879                 0.3907

                     19                     20                     21
                      A                      A                      A
 Frequencies --    615.5993               628.8054               651.0668
 Red. masses --      3.9325                 7.4062                 4.5065
 Frc consts  --      0.8780                 1.7254                 1.1255
 IR Inten    --      2.7776                 3.7994                 3.3897

                     22                     23                     24
                      A                      A                      A
 Frequencies --    676.6321               744.9036               752.5012
 Red. masses --      8.7349                 3.1724                 1.4549
 Frc consts  --      2.3562                 1.0371                 0.4854
 IR Inten    --      2.4097                 3.4438                12.3897

                     25                     26                     27
                      A                      A                      A
 Frequencies --    765.2550               809.2621               815.3356
 Red. masses --      7.3478                 2.0179                 6.4118
 Frc consts  --      2.5352                 0.7786                 2.5113
 IR Inten    --     12.3366                 2.4728                32.7029

                     28                     29                     30
                      A                      A                      A
 Frequencies --    822.6690               849.8590               889.0562
 Red. masses --      1.2845                 1.4993                 1.4730
 Frc consts  --      0.5122                 0.6380                 0.6860
 IR Inten    --      0.5243                41.2531                 1.7349

                     31                     32                     33
                      A                      A                      A
 Frequencies --    894.8645               896.5018               936.2843
 Red. masses --      1.3915                 4.5523                 1.8517
 Frc consts  --      0.6565                 2.1557                 0.9564
 IR Inten    --      7.0380                22.3255                 5.7481

                     34                     35                     36
                      A                      A                      A
 Frequencies --    969.0937               986.1941              1069.3026
 Red. masses --      1.3018                 1.7422                 2.3954
 Frc consts  --      0.7203                 0.9983                 1.6138
 IR Inten    --      0.2318                 0.7783                 2.1919

                     37                     38                     39
                      A                      A                      A
 Frequencies --   1080.9077              1103.9281              1120.9818
 Red. masses --      1.8821                 1.3806                 3.7614
 Frc consts  --      1.2956                 0.9913                 2.7848
 IR Inten    --      1.9937                 2.4672                 4.0507

                     40                     41                     42
                      A                      A                      A
 Frequencies --   1128.5264              1163.7185              1220.1868
 Red. masses --      1.8607                 1.4901                 1.2846
 Frc consts  --      1.3962                 1.1889                 1.1269
 IR Inten    --      1.4262                 0.4628                 0.6159

                     43                     44                     45
                      A                      A                      A
 Frequencies --   1237.4521              1269.9812              1293.7981
 Red. masses --      1.8270                 1.3336                 1.3695
 Frc consts  --      1.6483                 1.2673                 1.3507
 IR Inten    --      2.9446                 0.8383                 0.7814

                     46                     47                     48
                      A                      A                      A
 Frequencies --   1325.0821              1336.2254              1341.5711
 Red. masses --      1.2348                 1.8041                 1.2351
 Frc consts  --      1.2774                 1.8979                 1.3097
 IR Inten    --     17.4237                13.1427                13.0129

                     49                     50                     51
                      A                      A                      A
 Frequencies --   1351.1642              1400.3922              1407.1773
 Red. masses --      5.3341                 1.3568                 1.4700
 Frc consts  --      5.7376                 1.5677                 1.7149
 IR Inten    --      6.9153                 3.7301                 5.1821

                     52                     53                     54
                      A                      A                      A
 Frequencies --   1439.5390              1445.6626              1481.7436
 Red. masses --      3.7007                 1.2663                 2.7610
 Frc consts  --      4.5183                 1.5592                 3.5717
 IR Inten    --     20.2274                 5.1917                23.7565

                     55                     56                     57
                      A                      A                      A
 Frequencies --   1492.4332              1508.2192              1522.0231
 Red. masses --      1.0948                 1.0916                 1.0628
 Frc consts  --      1.4367                 1.4630                 1.4505
 IR Inten    --      8.1614                 3.4420                 3.3629

                     58                     59                     60
                      A                      A                      A
 Frequencies --   1531.7452              1542.5995              1543.0888
 Red. masses --      1.0589                 2.0455                 1.7018
 Frc consts  --      1.4637                 2.8678                 2.3874
 IR Inten    --      9.2832                33.4819                25.6494

                     61                     62                     63
                      A                      A                      A
 Frequencies --   1593.1191              1645.5300              3016.8834
 Red. masses --      6.1617                 6.7351                 1.0671
 Frc consts  --      9.2140                10.7449                 5.7225
 IR Inten    --      5.3914                17.7206                37.0789

                     64                     65                     66
                      A                      A                      A
 Frequencies --   3046.6062              3047.6625              3073.3628
 Red. masses --      1.0576                 1.0492                 1.0899
 Frc consts  --      5.7838                 5.7419                 6.0654
 IR Inten    --     28.3830                22.4880                23.5944

                     67                     68                     69
                      A                      A                      A
 Frequencies --   3081.4544              3090.6385              3112.0617
 Red. masses --      1.0653                 1.0948                 1.1000
 Frc consts  --      5.9599                 6.1614                 6.2768
 IR Inten    --     23.8671                22.9054                43.6670

                     70                     71                     72
                      A                      A                      A
 Frequencies --   3129.0939              3134.3995              3205.4344
 Red. masses --      1.1034                 1.1018                 1.0880
 Frc consts  --      6.3650                 6.3775                 6.5867
 IR Inten    --     24.2852                25.7900                 2.6413

                     73                     74                     75
                      A                      A                      A
 Frequencies --   3218.9497              3223.7776              3240.4258
 Red. masses --      1.0916                 1.0947                 1.0943
 Frc consts  --      6.6642                 6.7031                 6.7700
 IR Inten    --      1.4760                 5.7443                 1.1494

 - Thermochemistry -
 -------------------
 Temperature   298.150 Kelvin.  Pressure   1.00000 Atm.
 Atom     1 has atomic number  6 and mass  12.00000

 Molecular mass:   223.04894 amu.
 Principal axes and moments of inertia in atomic units:
                           1         2         3
     Eigenvalues --  1771.244805583.411295878.58838
           X            0.99981   0.01880   0.00596
           Y           -0.01882   0.99982   0.00246
           Z           -0.00591  -0.00257   0.99998
 This molecule is an asymmetric top.
 Rotational symmetry number  1.
 Warning -- assumption of classical behavior for rotation
           may cause significant error
 Rotational temperatures (Kelvin)      0.04890     0.01551     0.01473
 Rotational constants (GHZ):           1.01891     0.32323     0.30700
 Zero-point vibrational energy     573332.4 (Joules/Mol)
                                  137.02974 (Kcal/Mol)
 Warning -- explicit consideration of  19 degrees of freedom as
           vibrations may cause significant error
 Vibrational temperatures:     38.04    59.17   100.61   163.23   215.72
          (Kelvin)            260.42   290.42   302.37   348.52   383.67
                              449.25   533.28   544.44   575.84   634.27
                              675.37   756.89   765.94   885.71   904.71
                              936.74   973.52  1071.75  1082.68  1101.03
                             1164.35  1173.09  1183.64  1222.76  1279.15
                             1287.51  1289.87  1347.10  1394.31  1418.91
                             1538.49  1555.19  1588.31  1612.84  1623.70
                             1674.33  1755.58  1780.42  1827.22  1861.49
                             1906.50  1922.53  1930.22  1944.02  2014.85
                             2024.61  2071.18  2079.99  2131.90  2147.28
                             2169.99  2189.85  2203.84  2219.46  2220.16
                             2292.14  2367.55  4340.62  4383.39  4384.91
                             4421.88  4433.53  4446.74  4477.56  4502.07
                             4509.70  4611.91  4631.35  4638.30  4662.25

 Zero-point correction=                           0.218371 (Hartree/Particle)
 Thermal correction to Energy=                    0.231767
 Thermal correction to Enthalpy=                  0.232711
 Thermal correction to Gibbs Free Energy=         0.176909
 Sum of electronic and zero-point Energies=          -1277.982287
 Sum of electronic and thermal Energies=             -1277.968891
 Sum of electronic and thermal Enthalpies=           -1277.967947
 Sum of electronic and thermal Free Energies=        -1278.023749

                     E (Thermal)             CV                S
                      KCal/Mol        Cal/Mol-Kelvin    Cal/Mol-Kelvin
 Total                  145.436             51.028            117.447
 Electronic               0.000              0.000              0.000
 Translational            0.889              2.981             42.109
 Rotational               0.889              2.981             32.430
 Vibrational            143.659             45.067             42.907
 Vibration     1          0.593              1.985              6.080
 Vibration     2          0.594              1.981              5.204
 Vibration     3          0.598              1.968              4.155
 Vibration     4          0.607              1.938              3.209
 Vibration     5          0.618              1.903              2.673
 Vibration     6          0.630              1.866              2.318
 Vibration     7          0.639              1.837              2.116
 Vibration     8          0.642              1.825              2.042
 Vibration     9          0.658              1.776              1.786
 Vibration    10          0.672              1.734              1.618
 Vibration    11          0.701              1.650              1.350
 Vibration    12          0.743              1.532              1.077
 Vibration    13          0.749              1.516              1.046
 Vibration    14          0.766              1.470              0.962
 Vibration    15          0.801              1.381              0.824
 Vibration    16          0.827              1.318              0.739
 Vibration    17          0.881              1.192              0.596
 Vibration    18          0.887              1.178              0.582
 Vibration    19          0.975              0.999              0.424

 Optimization completed.
    -- Stationary point found.
 Normal termination of Gaussian 16 at Thu Dec 10 09:55:42 2020.

 ----------------------------------------------------------------------
 # B3LYP/6-311++G(d,p) empiricaldispersion=gd3bj scf=xqc pop=npa geom=c
 heck
 ----------------------------------------------------------------------

 --------------------------------------
 CID_23037917_JID_4443_Energie_neutraal
 --------------------------------------
 Structure from the checkpoint file:  "JID_4443.chk"
 Charge =  0 Multiplicity = 1

 SCF Done:  E(RB3LYP) =  -1278.37706204     A.U. after   16 cycles
 Normal termination of Gaussian 16 at Thu Dec 10 09:59:04 2020.

 ----------------------------------------------------------------------
 # B3LYP/6-311++G(d,p) empiricaldispersion=gd3bj scf=xqc pop=npa geom=c
 heck
 ----------------------------------------------------------------------

 ------------------------------------
 CID_23037917_JID_4443_Energie_kation
 ------------------------------------
 Structure from the checkpoint file:  "JID_4443.chk"
 Charge =  1 Multiplicity = 2

 SCF Done:  E(UB3LYP) =  -1278.08446257     A.U. after   27 cycles
 Normal termination of Gaussian 16 at Thu Dec 10 10:08:01 2020.
 Gaussian 16:  ES64L-G16RevA.03 25-Dec-2016

 ----------------------------------------------------------------------
 # B3LYP/6-311++G(d,p) empiricaldispersion=gd3bj scf=xqc pop=npa geom=c
 heck
 ----------------------------------------------------------------------

 -----------------------------------
 CID_23037917_JID_4443_Energie_anion
 -----------------------------------
 Structure from the checkpoint file:  "JID_4443.chk"
 Charge = -1 Multiplicity = 2

                         Standard orientation:
 ---------------------------------------------------------------------
 Center     Atomic      Atomic             Coordinates (Angstroms)
 Number     Number       Type             X           Y           Z
 ---------------------------------------------------------------------
      1          6           0        1.651595    1.969386    1.378967
      2          6           0        2.379177    1.937365    0.032222
      3          6           0        3.585708    0.991461   -0.014614
      4          6           0        3.285615   -0.488733    0.239209
      5         16           0        2.191453   -1.286850   -1.018684
      6          6           0        0.566385   -0.993327   -0.327750
      7          6           0       -0.356563   -0.242992   -1.056922
      8          6           0       -1.625958   -0.045475   -0.512063
      9          6           0       -1.981956   -0.572796    0.753209
     10          6           0       -1.045350   -1.331414    1.469347
     11          6           0        0.209729   -1.547069    0.921222
     12          7           0       -3.270877   -0.280586    1.177421
     13          6           0       -3.885898    0.435497    0.295904
     14         16           0       -2.983218    0.849010   -1.168034
     15          1           0        1.189253    1.006140    1.615341
     16          1           0        0.852573    2.718727    1.371892
     17          1           0        2.340103    2.223288    2.194861
     18          1           0        1.673767    1.661470   -0.759704
     19          1           0        2.732530    2.947693   -0.211519
     20          1           0        4.078751    1.084413   -0.990057
     21          1           0        4.322427    1.307681    0.739764
     22          1           0        4.213029   -1.069159    0.207684
     23          1           0        2.837513   -0.650511    1.223342
     24          1           0       -0.076330    0.183757   -2.013604
     25          1           0       -1.323271   -1.747731    2.431954
     26          1           0        0.934582   -2.154334    1.453715
     27          1           0       -4.905456    0.786684    0.409487
 ---------------------------------------------------------------------

 SCF Done:  E(UB3LYP) =  -1278.37758642     A.U. after   31 cycles

 The electronic state is 2-A.
 Alpha  occ. eigenvalues --  -88.73489 -88.71583 -14.16716 -10.07916 -10.07390
 Alpha  occ. eigenvalues --  -10.07068 -10.06426 -10.06040 -10.05899 -10.05689
 Alpha  occ. eigenvalues --  -10.05008 -10.04584 -10.04274 -10.03724  -7.82173
 Alpha  occ. eigenvalues --   -7.80133  -5.78461  -5.78136  -5.77745  -5.76516
 Alpha  occ. eigenvalues --   -5.76160  -5.75539  -0.81893  -0.72511  -0.69843
 Alpha  occ. eigenvalues --   -0.66237  -0.65023  -0.61436  -0.59503  -0.56599
 Alpha  occ. eigenvalues --   -0.52102  -0.48338  -0.46299  -0.44556  -0.43524
 Alpha  occ. eigenvalues --   -0.36392  -0.35907  -0.35461  -0.35109  -0.32342
 Alpha  occ. eigenvalues --   -0.30701  -0.29838  -0.28970  -0.28614  -0.28292
 Alpha  occ. eigenvalues --   -0.27413  -0.26384  -0.24666  -0.23279  -0.22885
 Alpha  occ. eigenvalues --   -0.22525  -0.20901  -0.20838  -0.18696  -0.16971
 Alpha  occ. eigenvalues --   -0.13841  -0.12560  -0.10856  -0.09332   0.04951
 Alpha virt. eigenvalues --    0.06962   0.08506   0.09193   0.09385   0.09880
 Alpha virt. eigenvalues --    0.10824   0.11116   0.11578   0.11714   0.12512
 Alpha virt. eigenvalues --    0.12635   0.13300   0.13394   0.13957   0.14724

  Beta  occ. eigenvalues --  -88.73453 -88.71586 -14.16691 -10.07828 -10.07073
  Beta  occ. eigenvalues --  -10.06871 -10.06417 -10.05900 -10.05896 -10.05411
  Beta  occ. eigenvalues --  -10.05007 -10.04651 -10.04153 -10.03580  -7.82141
  Beta  occ. eigenvalues --   -7.80134  -5.78448  -5.78126  -5.77618  -5.76518
  Beta  occ. eigenvalues --   -5.76172  -5.75533  -0.81512  -0.72210  -0.69760
  Beta  occ. eigenvalues --   -0.66042  -0.64824  -0.61190  -0.59168  -0.56423
  Beta  occ. eigenvalues --   -0.51948  -0.47946  -0.46170  -0.44154  -0.43339
  Beta  occ. eigenvalues --   -0.36296  -0.35819  -0.35296  -0.34892  -0.32183
  Beta  occ. eigenvalues --   -0.30586  -0.29764  -0.28749  -0.28559  -0.27534
  Beta  occ. eigenvalues --   -0.27158  -0.26247  -0.24462  -0.23037  -0.22778
  Beta  occ. eigenvalues --   -0.22343  -0.20710  -0.20344  -0.18246  -0.16274
  Beta  occ. eigenvalues --   -0.13757  -0.11866  -0.10089  -0.08295
  Beta virt. eigenvalues --    0.07169   0.08676   0.09112   0.09346   0.09818
  Beta virt. eigenvalues --    0.10485   0.10960   0.11097   0.11637   0.11794
  Beta virt. eigenvalues --    0.12560   0.12609   0.13278   0.13944   0.14461

 Mulliken charges and spin densities:
               1          2
     1  C   -0.503678  -0.075140
     2  C   -0.100050   0.077943
     3  C   -0.259333  -0.235594
     4  C    0.120661  -0.336840
     5  S   -0.169317  -0.077604
     6  C    1.366890   0.141105
     7  C   -0.707639   0.085732
     8  C    1.396915   0.048167
     9  C   -1.409887   0.031748
    10  C   -0.830211   0.171570
    11  C   -0.502966  -0.027367
    12  N   -0.000668  -0.013906
    13  C    0.130176   0.387596
    14  S   -0.682361   0.030381
    15  H    0.218963  -0.009672
    16  H    0.106971   0.002854
    17  H    0.077233   0.032517
    18  H    0.133658   0.005222
    19  H    0.148181   0.002746
    20  H    0.061086   0.065251
    21  H   -0.013054   0.113394
    22  H   -0.400974   0.626259
    23  H    0.217726  -0.082111
    24  H    0.166318  -0.006903
    25  H    0.148553  -0.008079
    26  H    0.075147   0.076809
    27  H    0.211659  -0.026079
 Sum of Mulliken charges =  -1.00000   1.00000

 Dipole moment (field-independent basis, Debye):
    X=              1.1877    Y=              2.7823    Z=             -0.1319  Tot=              3.0281
 Quadrupole moment (field-independent basis, Debye-Ang):
   XX=           -157.2360   YY=           -118.4603   ZZ=           -115.2596
   XY=              4.6384   XZ=              6.9647   YZ=             -2.3104

 Summary of Natural Population Analysis:

                                       Natural Population
                Natural  -----------------------------------------------
    Atom  No    Charge         Core      Valence    Rydberg      Total
 -----------------------------------------------------------------------
      C    1   -0.28907      0.99967     2.28508    0.00432     3.28907
      C    2   -0.19619      0.99964     2.18815    0.00840     3.19619
      C    3   -0.19418      0.99962     2.18369    0.01088     3.19418
      C    4   -0.24286      0.99958     2.23093    0.01235     3.24286
      S    5    0.08934      4.99955     2.89099    0.02012     7.91066
      C    6   -0.05218      0.99941     2.04003    0.01274     3.05218
      C    7   -0.09600      0.99944     2.08657    0.01000     3.09600
      C    8   -0.10266      0.99940     2.09276    0.01051     3.10266
      C    9    0.07522      0.99942     1.91262    0.01273     2.92478
      C   10   -0.07279      0.99952     2.06482    0.00844     3.07279
      C   11   -0.13298      0.99951     2.12090    0.01257     3.13298
      N   12   -0.24867      0.99966     2.73667    0.01233     3.74867
      C   13    0.05786      0.99966     1.92568    0.01680     2.94214
      S   14    0.14909      4.99948     2.83082    0.02061     7.85091
      H   15    0.10825      0.00000     0.39057    0.00119     0.39175
      H   16    0.09836      0.00000     0.40083    0.00080     0.40164
      H   17    0.08795      0.00000     0.41117    0.00088     0.41205
      H   18    0.10496      0.00000     0.39367    0.00137     0.39504
      H   19    0.08895      0.00000     0.41013    0.00092     0.41105
      H   20    0.09657      0.00000     0.40217    0.00126     0.40343
      H   21    0.09093      0.00000     0.40784    0.00123     0.40907
      H   22    0.10245      0.00000     0.39560    0.00195     0.39755
      H   23    0.10111      0.00000     0.39763    0.00126     0.39889
      H   24    0.09950      0.00000     0.39935    0.00115     0.40050
      H   25    0.09747      0.00000     0.40114    0.00139     0.40253
      H   26    0.09791      0.00000     0.40099    0.00110     0.40209
      H   27    0.08164      0.00000     0.41704    0.00132     0.41836
 =======================================================================
   * Total *   -0.00000     21.99355    36.81783    0.18862    59.00000

 Normal termination of Gaussian 16 at Thu Dec 10 10:18:07 2020.
