 Gaussian 16, Revision A.03,

 -----------------------------------------------------------
 # opt freq B3LYP/6-31G(d) empiricaldispersion=gd3bj scf=xqc
 -----------------------------------------------------------

 -------------------------------
 CID_137916377_JID_6434_neutraal
 -------------------------------
 Symbolic Z-matrix:
 Charge =  0 Multiplicity = 1

 SCF Done:  E(RB3LYP) =  -1068.51909967     A.U. after   15 cycles
 SCF Done:  E(RB3LYP) =  -1068.52348289     A.U. after   12 cycles
 SCF Done:  E(RB3LYP) =  -1068.52380595     A.U. after   12 cycles
 SCF Done:  E(RB3LYP) =  -1068.52396450     A.U. after   11 cycles
 SCF Done:  E(RB3LYP) =  -1068.52406691     A.U. after   10 cycles
 SCF Done:  E(RB3LYP) =  -1068.52411455     A.U. after   11 cycles
 SCF Done:  E(RB3LYP) =  -1068.52417448     A.U. after   12 cycles
 SCF Done:  E(RB3LYP) =  -1068.52421031     A.U. after   12 cycles
 SCF Done:  E(RB3LYP) =  -1068.52424492     A.U. after   11 cycles
 SCF Done:  E(RB3LYP) =  -1068.52429831     A.U. after   13 cycles
 SCF Done:  E(RB3LYP) =  -1068.52887077     A.U. after   10 cycles
 SCF Done:  E(RB3LYP) =  -1068.52887211     A.U. after    9 cycles
 SCF Done:  E(RB3LYP) =  -1068.52887240     A.U. after    8 cycles
 SCF Done:  E(RB3LYP) =  -1068.52887254     A.U. after    8 cycles
 SCF Done:  E(RB3LYP) =  -1068.52887256     A.U. after    7 cycles
 Optimization completed.
    -- Stationary point found.
 Normal termination of Gaussian 16 at Thu Dec 10 23:13:35 2020.

 --------------------------------------------------------------------
 #N Geom=AllCheck Guess=TCheck SCRF=Check GenChk RB3LYP/6-31G(d) Freq
 --------------------------------------------------------------------

 Structure from the checkpoint file:  "JID_6434.chk"
 -------------------------------
 CID_137916377_JID_6434_neutraal
 -------------------------------
 Charge =  0 Multiplicity = 1

 SCF Done:  E(RB3LYP) =  -1068.52887256     A.U. after    1 cycles

  Exact polarizability: 176.116  14.444 168.086   7.709 -12.680  93.616
 Approx polarizability: 246.026  26.938 303.050  13.445 -41.823 146.717

                      1                      2                      3
                      A                      A                      A
 Frequencies --     23.7806                29.9926                32.9847
 Red. masses --      4.2238                 4.0068                 4.2349
 Frc consts  --      0.0014                 0.0021                 0.0027
 IR Inten    --      0.6460                 0.6891                 0.0912

                      4                      5                      6
                      A                      A                      A
 Frequencies --     43.1036                68.4265               103.0482
 Red. masses --      6.0682                 2.3191                 6.6665
 Frc consts  --      0.0066                 0.0064                 0.0417
 IR Inten    --      1.8528                 0.7105                 1.1465

                      7                      8                      9
                      A                      A                      A
 Frequencies --    113.9182               202.6743               212.5259
 Red. masses --      6.0841                 3.3913                 6.0580
 Frc consts  --      0.0465                 0.0821                 0.1612
 IR Inten    --      0.2913                 1.3986                 1.1861

                     10                     11                     12
                      A                      A                      A
 Frequencies --    233.9760               267.3895               298.8012
 Red. masses --      1.1972                 2.9567                 2.2208
 Frc consts  --      0.0386                 0.1246                 0.1168
 IR Inten    --      1.5879                 2.5531                 0.9892

                     13                     14                     15
                      A                      A                      A
 Frequencies --    322.4347               339.8160               357.4831
 Red. masses --      6.3019                 7.4445                 7.1154
 Frc consts  --      0.3860                 0.5065                 0.5357
 IR Inten    --      0.1435                 0.9071                 1.0001

                     16                     17                     18
                      A                      A                      A
 Frequencies --    435.8142               473.9007               506.0157
 Red. masses --      4.7958                 3.7919                 3.4162
 Frc consts  --      0.5367                 0.5017                 0.5154
 IR Inten    --      0.0351                 2.7443                 6.8947

                     19                     20                     21
                      A                      A                      A
 Frequencies --    528.7641               584.4926               614.8096
 Red. masses --      2.1723                 6.0914                 3.8233
 Frc consts  --      0.3578                 1.2261                 0.8515
 IR Inten    --     43.0492                17.2964                13.4465

                     22                     23                     24
                      A                      A                      A
 Frequencies --    618.6706               633.1301               669.7123
 Red. masses --      3.8044                 2.2932                 1.7764
 Frc consts  --      0.8579                 0.5416                 0.4694
 IR Inten    --      2.2379                28.7273                 3.0974

                     25                     26                     27
                      A                      A                      A
 Frequencies --    704.5285               716.2438               746.1096
 Red. masses --      2.0898                 1.3176                 1.4480
 Frc consts  --      0.6112                 0.3982                 0.4749
 IR Inten    --     70.0325                 0.9025                48.7418

                     28                     29                     30
                      A                      A                      A
 Frequencies --    782.0142               787.6680               796.1976
 Red. masses --      3.0891                 1.8966                 3.4538
 Frc consts  --      1.1131                 0.6933                 1.2900
 IR Inten    --     10.9034                23.7558                 8.7971

                     31                     32                     33
                      A                      A                      A
 Frequencies --    811.4644               815.1816               838.0430
 Red. masses --      2.5932                 2.1269                 1.3314
 Frc consts  --      1.0061                 0.8327                 0.5509
 IR Inten    --     27.2748                 8.8824                 5.7811

                     34                     35                     36
                      A                      A                      A
 Frequencies --    864.8856               886.9814               895.8635
 Red. masses --      1.4242                 4.7586                 5.8553
 Frc consts  --      0.6277                 2.2058                 2.7688
 IR Inten    --     15.4577                 4.4828                24.0373

                     37                     38                     39
                      A                      A                      A
 Frequencies --    976.8481               998.1426              1022.0114
 Red. masses --      1.9154                 3.9892                 1.9038
 Frc consts  --      1.0768                 2.3417                 1.1716
 IR Inten    --     11.6608                 6.3397                 0.7674

                     40                     41                     42
                      A                      A                      A
 Frequencies --   1054.8501              1090.1662              1104.5811
 Red. masses --      1.6892                 3.8296                 1.9701
 Frc consts  --      1.1074                 2.6816                 1.4163
 IR Inten    --     14.0346                 4.0588                 4.0620

                     43                     44                     45
                      A                      A                      A
 Frequencies --   1108.5781              1114.4475              1132.2356
 Red. masses --      2.6541                 1.5871                 1.8315
 Frc consts  --      1.9217                 1.1614                 1.3833
 IR Inten    --     44.1870                10.9114                 0.8807

                     46                     47                     48
                      A                      A                      A
 Frequencies --   1158.0530              1207.4744              1235.5098
 Red. masses --      2.6011                 3.0272                 1.4285
 Frc consts  --      2.0553                 2.6004                 1.2847
 IR Inten    --     13.6412                44.1145                16.1549

                     49                     50                     51
                      A                      A                      A
 Frequencies --   1268.6814              1274.1501              1293.3476
 Red. masses --      1.3403                 1.6774                 1.7654
 Frc consts  --      1.2711                 1.6045                 1.7399
 IR Inten    --     15.5424                69.8894                13.8843

                     52                     53                     54
                      A                      A                      A
 Frequencies --   1299.4508              1324.3305              1379.2507
 Red. masses --      1.2062                 1.4969                 2.5946
 Frc consts  --      1.2001                 1.5468                 2.9081
 IR Inten    --      3.7113                52.4863                18.7026

                     55                     56                     57
                      A                      A                      A
 Frequencies --   1400.9817              1430.9469              1433.6483
 Red. masses --      1.5662                 1.3818                 1.6231
 Frc consts  --      1.8112                 1.6670                 1.9656
 IR Inten    --     26.5059                 6.0611                46.4481

                     58                     59                     60
                      A                      A                      A
 Frequencies --   1446.3167              1484.5354              1504.6578
 Red. masses --      5.2951                 1.6276                 1.0988
 Frc consts  --      6.5260                 2.1134                 1.4657
 IR Inten    --      5.0310                42.3571                11.0256

                     61                     62                     63
                      A                      A                      A
 Frequencies --   1510.2855              1524.2223              1527.4728
 Red. masses --      3.6290                 1.2085                 1.0419
 Frc consts  --      4.8771                 1.6543                 1.4322
 IR Inten    --     16.0864                 7.2927                 4.8976

                     64                     65                     66
                      A                      A                      A
 Frequencies --   1540.3907              1564.5330              1610.5473
 Red. masses --      1.0629                 4.4947                 5.6183
 Frc consts  --      1.4860                 6.4821                 8.5862
 IR Inten    --      7.9735                 7.6686                 3.2525

                     67                     68                     69
                      A                      A                      A
 Frequencies --   1661.0952              1787.4127              3054.4373
 Red. masses --      6.5484                 8.0967                 1.0671
 Frc consts  --     10.6457                15.2409                 5.8655
 IR Inten    --      4.1918               269.4830                 2.5292

                     70                     71                     72
                      A                      A                      A
 Frequencies --   3057.3143              3062.7416              3086.6355
 Red. masses --      1.0616                 1.0367                 1.1042
 Frc consts  --      5.8464                 5.7297                 6.1982
 IR Inten    --     32.8458                26.7620                13.3000

                     73                     74                     75
                      A                      A                      A
 Frequencies --   3124.3731              3129.3948              3156.0451
 Red. masses --      1.0953                 1.1002                 1.1018
 Frc consts  --      6.2998                 6.3479                 6.4661
 IR Inten    --     18.3789                29.5056                20.6140

                     76                     77                     78
                      A                      A                      A
 Frequencies --   3232.8449              3267.9239              3272.3828
 Red. masses --      1.0925                 1.0928                 1.0926
 Frc consts  --      6.7270                 6.8758                 6.8937
 IR Inten    --      1.4712                 1.1809                 1.8102

                     79                     80                     81
                      A                      A                      A
 Frequencies --   3297.6224              3306.0537              3584.7819
 Red. masses --      1.0969                 1.1053                 1.0760
 Frc consts  --      7.0276                 7.1178                 8.1466
 IR Inten    --      1.2750                 1.1687                20.0117

 - Thermochemistry -
 -------------------
 Temperature   298.150 Kelvin.  Pressure   1.00000 Atm.
 Atom     1 has atomic number  6 and mass  12.00000

 Molecular mass:   235.06670 amu.
 Principal axes and moments of inertia in atomic units:
                           1         2         3
     Eigenvalues --  2795.807595807.904407678.81138
           X            0.99995  -0.00828  -0.00531
           Y            0.00841   0.99968   0.02380
           Z            0.00511  -0.02385   0.99970
 This molecule is an asymmetric top.
 Rotational symmetry number  1.
 Warning -- assumption of classical behavior for rotation
           may cause significant error
 Rotational temperatures (Kelvin)      0.03098     0.01491     0.01128
 Rotational constants (GHZ):           0.64552     0.31074     0.23503
 Zero-point vibrational energy     606880.8 (Joules/Mol)
                                  145.04800 (Kcal/Mol)
 Warning -- explicit consideration of  22 degrees of freedom as
           vibrations may cause significant error
 Vibrational temperatures:     34.21    43.15    47.46    62.02    98.45
          (Kelvin)            148.26   163.90   291.60   305.78   336.64
                              384.71   429.91   463.91   488.92   514.34
                              627.04   681.84   728.04   760.77   840.95
                              884.57   890.13   910.93   963.57  1013.66
                             1030.52  1073.49  1125.14  1133.28  1145.55
                             1167.52  1172.86  1205.76  1244.38  1276.17
                             1288.95  1405.47  1436.10  1470.45  1517.69
                             1568.51  1589.25  1595.00  1603.44  1629.03
                             1666.18  1737.29  1777.62  1825.35  1833.22
                             1860.84  1869.62  1905.42  1984.43  2015.70
                             2058.81  2062.70  2080.93  2135.92  2164.87
                             2172.96  2193.02  2197.69  2216.28  2251.01
                             2317.22  2389.95  2571.69  4394.65  4398.79
                             4406.60  4440.98  4495.28  4502.50  4540.85
                             4651.34  4701.81  4708.23  4744.54  4756.67
                             5157.70

 Zero-point correction=                           0.231149 (Hartree/Particle)
 Thermal correction to Energy=                    0.246388
 Thermal correction to Enthalpy=                  0.247332
 Thermal correction to Gibbs Free Energy=         0.185443
 Sum of electronic and zero-point Energies=          -1068.297724
 Sum of electronic and thermal Energies=             -1068.282485
 Sum of electronic and thermal Enthalpies=           -1068.281540
 Sum of electronic and thermal Free Energies=        -1068.343430

                     E (Thermal)             CV                S
                      KCal/Mol        Cal/Mol-Kelvin    Cal/Mol-Kelvin
 Total                  154.611             56.515            130.257
 Electronic               0.000              0.000              0.000
 Translational            0.889              2.981             42.266
 Rotational               0.889              2.981             33.189
 Vibrational            152.833             50.553             54.803
 Vibration     1          0.593              1.985              6.290
 Vibration     2          0.594              1.984              5.830
 Vibration     3          0.594              1.983              5.641
 Vibration     4          0.595              1.980              5.111
 Vibration     5          0.598              1.969              4.198
 Vibration     6          0.605              1.947              3.396
 Vibration     7          0.607              1.938              3.201
 Vibration     8          0.639              1.836              2.109
 Vibration     9          0.644              1.822              2.022
 Vibration    10          0.654              1.789              1.848
 Vibration    11          0.672              1.733              1.613
 Vibration    12          0.692              1.676              1.424
 Vibration    13          0.707              1.631              1.298
 Vibration    14          0.720              1.596              1.213
 Vibration    15          0.733              1.560              1.133
 Vibration    16          0.796              1.392              0.840
 Vibration    17          0.831              1.308              0.727
 Vibration    18          0.861              1.237              0.643
 Vibration    19          0.884              1.186              0.590
 Vibration    20          0.941              1.065              0.477
 Vibration    21          0.974              1.001              0.425
 Vibration    22          0.979              0.992              0.419

                           ! Non-Optimized Parameters !
 Normal termination of Gaussian 16 at Thu Dec 10 23:22:31 2020.

 ----------------------------------------------------------------------
 # B3LYP/6-311++G(d,p) empiricaldispersion=gd3bj scf=xqc pop=npa geom=c
 heck
 ----------------------------------------------------------------------

 ---------------------------------------
 CID_137916377_JID_6434_Energie_neutraal
 ---------------------------------------
 Structure from the checkpoint file:  "JID_6434.chk"
 Charge =  0 Multiplicity = 1

 SCF Done:  E(RB3LYP) =  -1068.74334420     A.U. after   15 cycles
 Normal termination of Gaussian 16 at Thu Dec 10 23:26:06 2020.

 ----------------------------------------------------------------------
 # B3LYP/6-311++G(d,p) empiricaldispersion=gd3bj scf=xqc pop=npa geom=c
 heck
 ----------------------------------------------------------------------

 -------------------------------------
 CID_137916377_JID_6434_Energie_kation
 -------------------------------------
 Structure from the checkpoint file:  "JID_6434.chk"
 Charge =  1 Multiplicity = 2

 SCF Done:  E(UB3LYP) =  -1068.45483198     A.U. after   27 cycles
 Normal termination of Gaussian 16 at Thu Dec 10 23:34:42 2020.
 Gaussian 16:  ES64L-G16RevA.03 25-Dec-2016

 ----------------------------------------------------------------------
 # B3LYP/6-311++G(d,p) empiricaldispersion=gd3bj scf=xqc pop=npa geom=c
 heck
 ----------------------------------------------------------------------

 ------------------------------------
 CID_137916377_JID_6434_Energie_anion
 ------------------------------------
 Structure from the checkpoint file:  "JID_6434.chk"
 Charge = -1 Multiplicity = 2

                         Standard orientation:
 ---------------------------------------------------------------------
 Center     Atomic      Atomic             Coordinates (Angstroms)
 Number     Number       Type             X           Y           Z
 ---------------------------------------------------------------------
      1          6           0        1.800383   -2.063160   -1.752849
      2          6           0        2.815759   -1.069849   -1.178696
      3          6           0        2.893161   -1.187765    0.339056
      4          8           0        2.959398   -2.277012    0.894563
      5          7           0        2.930641   -0.026726    1.081522
      6          6           0        2.496739    1.288776    0.643173
      7          6           0        1.021928    1.350277    0.322335
      8          6           0        0.082669    0.375273    0.493981
      9          6           0       -1.236213    0.754019    0.058793
     10          6           0       -1.256419    2.036217   -0.429316
     11         16           0        0.310308    2.785900   -0.378736
     12          6           0       -2.393429   -0.134046    0.117872
     13          6           0       -2.390619   -1.474024    0.400484
     14          8           0       -3.654635   -1.981035    0.356437
     15          6           0       -4.485785   -0.945700    0.038660
     16          6           0       -3.776991    0.201543   -0.119751
     17          1           0        2.011978   -3.069684   -1.384046
     18          1           0        1.840108   -2.068461   -2.846540
     19          1           0        0.782117   -1.792604   -1.452762
     20          1           0        3.818999   -1.304607   -1.558199
     21          1           0        2.578562   -0.054286   -1.503314
     22          1           0        2.894842   -0.211353    2.077351
     23          1           0        2.745116    1.993935    1.444452
     24          1           0        3.087603    1.603544   -0.224665
     25          1           0        0.313210   -0.592121    0.923569
     26          1           0       -2.097237    2.580223   -0.836209
     27          1           0       -1.609522   -2.181530    0.631533
     28          1           0       -5.534124   -1.191304   -0.029934
     29          1           0       -4.176264    1.175942   -0.362574
 ---------------------------------------------------------------------

 SCF Done:  E(UB3LYP) =  -1068.73344806     A.U. after   33 cycles
 SCF Done:  E(UB3LYP) =  -1068.73344806     a.u. after    2 cycles

 The electronic state is 2-A.
 Alpha  occ. eigenvalues --  -88.76130 -19.09318 -18.99394 -14.23946 -10.17816
 Alpha  occ. eigenvalues --  -10.12721 -10.12164 -10.11755 -10.09066 -10.08808
 Alpha  occ. eigenvalues --  -10.08272 -10.07655 -10.07589 -10.07395 -10.07265
 Alpha  occ. eigenvalues --  -10.06398  -7.84754  -5.81052  -5.80685  -5.80349
 Alpha  occ. eigenvalues --   -1.01673  -0.94508  -0.82980  -0.77191  -0.71415
 Alpha  occ. eigenvalues --   -0.68654  -0.66055  -0.64669  -0.62071  -0.58548
 Alpha  occ. eigenvalues --   -0.56118  -0.51048  -0.48288  -0.47098  -0.45939
 Alpha  occ. eigenvalues --   -0.43827  -0.43051  -0.40144  -0.39781  -0.37204
 Alpha  occ. eigenvalues --   -0.36055  -0.35773  -0.34588  -0.33078  -0.32298
 Alpha  occ. eigenvalues --   -0.31940  -0.31714  -0.29841  -0.29530  -0.27966
 Alpha  occ. eigenvalues --   -0.27477  -0.27143  -0.26846  -0.26257  -0.25274
 Alpha  occ. eigenvalues --   -0.23618  -0.20075  -0.17010  -0.16085  -0.15499
 Alpha  occ. eigenvalues --   -0.13594  -0.11067   0.04536
 Alpha virt. eigenvalues --    0.06025   0.06755   0.07118   0.07951   0.08677
 Alpha virt. eigenvalues --    0.08968   0.09449   0.10109   0.10340   0.10664
 Alpha virt. eigenvalues --    0.11429   0.11750   0.12468   0.12751   0.13298

  Beta  occ. eigenvalues --  -88.76107 -19.09313 -18.99390 -14.23929 -10.17811
  Beta  occ. eigenvalues --  -10.12716 -10.12150 -10.11697 -10.08919 -10.08799
  Beta  occ. eigenvalues --  -10.08270 -10.07639 -10.07397 -10.07330 -10.07262
  Beta  occ. eigenvalues --  -10.06399  -7.84733  -5.81045  -5.80677  -5.80268
  Beta  occ. eigenvalues --   -1.01650  -0.94496  -0.82931  -0.77009  -0.71359
  Beta  occ. eigenvalues --   -0.68639  -0.65969  -0.64471  -0.61949  -0.58407
  Beta  occ. eigenvalues --   -0.56080  -0.50943  -0.48205  -0.47031  -0.45799
  Beta  occ. eigenvalues --   -0.43622  -0.42977  -0.40111  -0.39689  -0.37155
  Beta  occ. eigenvalues --   -0.36007  -0.35692  -0.34543  -0.33007  -0.32154
  Beta  occ. eigenvalues --   -0.31892  -0.31659  -0.29780  -0.29448  -0.27926
  Beta  occ. eigenvalues --   -0.27441  -0.27014  -0.26577  -0.26124  -0.25235
  Beta  occ. eigenvalues --   -0.23451  -0.19870  -0.16982  -0.16052  -0.15309
  Beta  occ. eigenvalues --   -0.13041  -0.10318
  Beta virt. eigenvalues --    0.06619   0.06890   0.07880   0.08149   0.08327
  Beta virt. eigenvalues --    0.08773   0.09076   0.09659   0.10374   0.10458
  Beta virt. eigenvalues --    0.10846   0.11468   0.11865   0.12495   0.12930

 Mulliken charges and spin densities:
               1          2
     1  C   -0.558074  -0.093204
     2  C    0.262797  -0.142524
     3  C   -0.085121  -0.055630
     4  O   -0.343075   0.026726
     5  N   -0.233756   0.131044
     6  C    1.457098  -1.777038
     7  C   -0.142107   0.037876
     8  C   -0.398389   0.520814
     9  C    0.094055  -1.024833
    10  C    0.057520   1.294816
    11  S   -0.269664  -0.456552
    12  C    0.288454  -0.950925
    13  C   -0.345983   0.346293
    14  O   -0.027552   0.016163
    15  C    0.174473  -0.516065
    16  C   -0.070732   0.432035
    17  H    0.148411   0.018491
    18  H    0.082598   0.042150
    19  H    0.120547   0.005117
    20  H    0.076020   0.108122
    21  H    0.152415  -0.027966
    22  H   -0.014463   0.333275
    23  H   -1.049640   1.276015
    24  H    0.180836   0.019129
    25  H    0.113565   0.012853
    26  H   -0.100606   0.338067
    27  H    0.168902   0.024941
    28  H   -0.596252   0.787175
    29  H   -0.142278   0.273635
 Sum of Mulliken charges =  -1.00000   1.00000

 Dipole moment (field-independent basis, Debye):
    X=              0.2335    Y=             -1.1522    Z=             -3.9398  Tot=              4.1114
 Quadrupole moment (field-independent basis, Debye-Ang):
   XX=           -178.5114   YY=           -145.3693   ZZ=           -131.5694
   XY=             -5.4236   XZ=            -17.8702   YZ=             -4.5531

 Summary of Natural Population Analysis:

                                       Natural Population
                Natural  -----------------------------------------------
    Atom  No    Charge         Core      Valence    Rydberg      Total
 -----------------------------------------------------------------------
      C    1   -0.28424      0.99966     2.27981    0.00477     3.28424
      C    2   -0.23431      0.99959     2.22804    0.00668     3.23431
      C    3    0.34606      0.99967     1.62971    0.02455     2.65394
      O    4   -0.32698      0.99988     3.32140    0.00571     4.32698
      N    5   -0.31671      0.99968     2.80488    0.01216     3.81671
      C    6   -0.10302      0.99954     2.09011    0.01337     3.10302
      C    7   -0.08373      0.99948     2.07113    0.01312     3.08373
      C    8   -0.12961      0.99942     2.12058    0.00961     3.12961
      C    9   -0.05463      0.99947     2.04585    0.00931     3.05463
      C   10   -0.14190      0.99948     2.13204    0.01038     3.14190
      S   11    0.20158      4.99941     2.77940    0.01961     7.79842
      C   12   -0.06216      0.99951     2.05335    0.00929     3.06216
      C   13    0.07117      0.99947     1.91623    0.01313     2.92883
      O   14   -0.23401      0.99987     3.22598    0.00816     4.23401
      C   15    0.05662      0.99952     1.92885    0.01500     2.94338
      C   16   -0.14008      0.99954     2.13207    0.00847     3.14008
      H   17    0.10481      0.00000     0.39405    0.00114     0.39519
      H   18    0.09492      0.00000     0.40419    0.00089     0.40508
      H   19    0.10313      0.00000     0.39553    0.00133     0.39687
      H   20    0.10624      0.00000     0.39266    0.00110     0.39376
      H   21    0.10462      0.00000     0.39397    0.00141     0.39538
      H   22    0.19602      0.00000     0.30091    0.00307     0.30398
      H   23    0.11719      0.00000     0.37380    0.00901     0.38281
      H   24    0.09781      0.00000     0.40078    0.00141     0.40219
      H   25    0.10743      0.00000     0.39068    0.00189     0.39257
      H   26    0.10392      0.00000     0.39504    0.00104     0.39608
      H   27    0.09555      0.00000     0.40333    0.00112     0.40445
      H   28    0.09481      0.00000     0.40376    0.00143     0.40519
      H   29    0.10951      0.00000     0.38958    0.00091     0.39049
 =======================================================================
   * Total *   -0.00000     19.99321    41.79773    0.20906    62.00000

 Normal termination of Gaussian 16 at Thu Dec 10 23:56:56 2020.
