 Gaussian 16, Revision A.03,

 -----------------------------------------------------------
 # opt freq B3LYP/6-31G(d) empiricaldispersion=gd3bj scf=xqc
 -----------------------------------------------------------

 ------------------------------
 CID_12440894_JID_1329_neutraal
 ------------------------------
 Symbolic Z-matrix:
 Charge =  0 Multiplicity = 1

 SCF Done:  E(RB3LYP) =  -496.842308619     A.U. after   14 cycles
 SCF Done:  E(RB3LYP) =  -496.844511711     A.U. after   12 cycles
 SCF Done:  E(RB3LYP) =  -496.844726292     A.U. after   11 cycles
 SCF Done:  E(RB3LYP) =  -496.844751423     A.U. after   10 cycles
 SCF Done:  E(RB3LYP) =  -496.844763524     A.U. after   10 cycles
 SCF Done:  E(RB3LYP) =  -496.844780213     A.U. after   10 cycles
 SCF Done:  E(RB3LYP) =  -496.844801906     A.U. after   11 cycles
 SCF Done:  E(RB3LYP) =  -496.844818242     A.U. after   10 cycles
 SCF Done:  E(RB3LYP) =  -496.844821721     A.U. after   10 cycles
 SCF Done:  E(RB3LYP) =  -496.844822398     A.U. after    8 cycles
 SCF Done:  E(RB3LYP) =  -496.844822513     A.U. after    7 cycles
 SCF Done:  E(RB3LYP) =  -496.844822536     A.U. after    7 cycles
 Optimization completed.
    -- Stationary point found.
 Normal termination of Gaussian 16 at Tue Dec  8 19:42:37 2020.

 --------------------------------------------------------------------
 #N Geom=AllCheck Guess=TCheck SCRF=Check GenChk RB3LYP/6-31G(d) Freq
 --------------------------------------------------------------------

 Structure from the checkpoint file:  "JID_1329.chk"
 ------------------------------
 CID_12440894_JID_1329_neutraal
 ------------------------------
 Charge =  0 Multiplicity = 1

 SCF Done:  E(RB3LYP) =  -496.844822536     A.U. after    1 cycles

  Exact polarizability: 130.476  -0.123  98.007   0.001  -0.002  64.234
 Approx polarizability: 178.497   6.155 163.800   0.001  -0.005  89.374

                      1                      2                      3
                      A                      A                      A
 Frequencies --     25.9421                83.0404               130.3089
 Red. masses --      3.0547                 3.0747                 3.3376
 Frc consts  --      0.0012                 0.0125                 0.0334
 IR Inten    --      0.6987                 4.6540                 0.2027

                      4                      5                      6
                      A                      A                      A
 Frequencies --    159.8869               195.3010               231.3994
 Red. masses --      3.1017                 2.3205                 1.0436
 Frc consts  --      0.0467                 0.0521                 0.0329
 IR Inten    --      2.2985                 2.2160                 0.0057

                      7                      8                      9
                      A                      A                      A
 Frequencies --    259.5048               263.1228               277.8350
 Red. masses --      1.2079                 1.4574                 2.3038
 Frc consts  --      0.0479                 0.0595                 0.1048
 IR Inten    --      0.8109                 2.1251                 0.7986

                     10                     11                     12
                      A                      A                      A
 Frequencies --    315.0954               320.7038               462.6809
 Red. masses --      4.3419                 2.7291                 3.5621
 Frc consts  --      0.2540                 0.1654                 0.4493
 IR Inten    --      1.3158                 0.3845                 4.5486

                     13                     14                     15
                      A                      A                      A
 Frequencies --    476.6062               508.2153               566.5499
 Red. masses --      3.2829                 4.0344                 5.4284
 Frc consts  --      0.4394                 0.6139                 1.0266
 IR Inten    --      1.7038                 2.1822                 0.8734

                     16                     17                     18
                      A                      A                      A
 Frequencies --    626.4661               711.5817               750.9067
 Red. masses --      3.4862                 4.1852                 5.2919
 Frc consts  --      0.8061                 1.2486                 1.7581
 IR Inten    --      4.8051                 0.7673                14.6304

                     19                     20                     21
                      A                      A                      A
 Frequencies --    818.6199               832.1031               883.7802
 Red. masses --      1.8428                 3.5703                 2.9805
 Frc consts  --      0.7276                 1.4565                 1.3716
 IR Inten    --      4.0036                30.3244                10.7747

                     22                     23                     24
                      A                      A                      A
 Frequencies --    944.8327               948.7704               980.2671
 Red. masses --      3.1205                 1.1608                 1.5258
 Frc consts  --      1.6413                 0.6157                 0.8638
 IR Inten    --      7.7912                 2.2336                 0.0704

                     25                     26                     27
                      A                      A                      A
 Frequencies --    993.4264              1006.5043              1086.9147
 Red. masses --      1.3953                 8.2160                 2.4815
 Frc consts  --      0.8113                 4.9039                 1.7273
 IR Inten    --      0.1346                 4.0775               106.6425

                     28                     29                     30
                      A                      A                      A
 Frequencies --   1130.5928              1133.4985              1164.8101
 Red. masses --      2.3725                 1.7989                 2.2874
 Frc consts  --      1.7868                 1.3617                 1.8286
 IR Inten    --      0.0427                36.9629                 3.4155

                     31                     32                     33
                      A                      A                      A
 Frequencies --   1185.5205              1203.7298              1211.3035
 Red. masses --      1.2719                 1.8048                 1.4708
 Frc consts  --      1.0532                 1.5408                 1.2715
 IR Inten    --      0.7638                 2.7294                 1.5356

                     34                     35                     36
                      A                      A                      A
 Frequencies --   1272.1672              1283.2935              1347.8662
 Red. masses --      1.8093                 4.3037                 3.0774
 Frc consts  --      1.7253                 4.1759                 3.2940
 IR Inten    --     37.5671                 3.0327               231.8194

                     37                     38                     39
                      A                      A                      A
 Frequencies --   1369.1351              1397.6374              1419.1145
 Red. masses --      1.3084                 1.8635                 1.2311
 Frc consts  --      1.4451                 2.1447                 1.4607
 IR Inten    --      1.4632                33.6885                 2.8302

                     40                     41                     42
                      A                      A                      A
 Frequencies --   1428.5677              1459.4617              1482.0036
 Red. masses --      1.6606                 2.2700                 1.5993
 Frc consts  --      1.9967                 2.8488                 2.0696
 IR Inten    --     11.2459                20.0425               128.4190

                     43                     44                     45
                      A                      A                      A
 Frequencies --   1516.5294              1521.5679              1523.5332
 Red. masses --      1.0424                 1.7226                 1.0485
 Frc consts  --      1.4125                 2.3497                 1.4339
 IR Inten    --      1.1775                74.6643                 0.5486

                     46                     47                     48
                      A                      A                      A
 Frequencies --   1524.3972              1530.7860              1532.8128
 Red. masses --      1.0470                 1.0508                 1.0792
 Frc consts  --      1.4335                 1.4508                 1.4939
 IR Inten    --      6.6182                13.0081                13.2704

                     49                     50                     51
                      A                      A                      A
 Frequencies --   1546.3348              1614.8340              1638.1986
 Red. masses --      1.0838                 6.2017                 6.2476
 Frc consts  --      1.5269                 9.5283                 9.8786
 IR Inten    --     14.2384               230.9256               266.8571

                     52                     53                     54
                      A                      A                      A
 Frequencies --   3038.2627              3049.2544              3052.5654
 Red. masses --      1.0344                 1.0343                 1.0352
 Frc consts  --      5.6261                 5.6663                 5.6836
 IR Inten    --     43.0648                33.5277                23.7496

                     55                     56                     57
                      A                      A                      A
 Frequencies --   3082.4332              3102.0849              3115.4304
 Red. masses --      1.0853                 1.1072                 1.1032
 Frc consts  --      6.0759                 6.2775                 6.3086
 IR Inten    --      6.5590                34.8926                18.7476

                     58                     59                     60
                      A                      A                      A
 Frequencies --   3117.8878              3130.7716              3137.0802
 Red. masses --      1.1025                 1.1029                 1.1013
 Frc consts  --      6.3148                 6.3691                 6.3860
 IR Inten    --     50.8462                 4.3449                44.4471

                     61                     62                     63
                      A                      A                      A
 Frequencies --   3171.8120              3172.9992              3245.9592
 Red. masses --      1.0994                 1.0919                 1.0928
 Frc consts  --      6.5169                 6.4769                 6.7841
 IR Inten    --     30.2105                17.5775                 7.5522

 - Thermochemistry -
 -------------------
 Temperature   298.150 Kelvin.  Pressure   1.00000 Atm.
 Atom     1 has atomic number  6 and mass  12.00000

 Molecular mass:   152.09496 amu.
 Principal axes and moments of inertia in atomic units:
                           1         2         3
     Eigenvalues --   894.589052522.666653014.34225
           X            0.99981  -0.01969  -0.00000
           Y            0.01969   0.99981   0.00001
           Z            0.00000  -0.00001   1.00000
 This molecule is an asymmetric top.
 Rotational symmetry number  1.
 Warning -- assumption of classical behavior for rotation
           may cause significant error
 Rotational temperatures (Kelvin)      0.09682     0.03433     0.02873
 Rotational constants (GHZ):           2.01740     0.71541     0.59872
 Zero-point vibrational energy     512687.2 (Joules/Mol)
                                  122.53518 (Kcal/Mol)
 Warning -- explicit consideration of  15 degrees of freedom as
           vibrations may cause significant error
 Vibrational temperatures:     37.32   119.48   187.49   230.04   280.99
          (Kelvin)            332.93   373.37   378.57   399.74   453.35
                              461.42   665.69   685.73   731.21   815.14
                              901.34  1023.81  1080.39  1177.81  1197.21
                             1271.56  1359.40  1365.07  1410.39  1429.32
                             1448.14  1563.83  1626.67  1630.85  1675.90
                             1705.70  1731.90  1742.80  1830.36  1846.37
                             1939.28  1969.88  2010.89  2041.79  2055.39
                             2099.84  2132.27  2181.95  2189.20  2192.02
                             2193.27  2202.46  2205.38  2224.83  2323.39
                             2357.00  4371.38  4387.20  4391.96  4434.93
                             4463.21  4482.41  4485.95  4504.48  4513.56
                             4563.53  4565.24  4670.21

 Zero-point correction=                           0.195272 (Hartree/Particle)
 Thermal correction to Energy=                    0.206226
 Thermal correction to Enthalpy=                  0.207171
 Thermal correction to Gibbs Free Energy=         0.158009
 Sum of electronic and zero-point Energies=           -496.649550
 Sum of electronic and thermal Energies=              -496.638596
 Sum of electronic and thermal Enthalpies=            -496.637652
 Sum of electronic and thermal Free Energies=         -496.686814

                     E (Thermal)             CV                S
                      KCal/Mol        Cal/Mol-Kelvin    Cal/Mol-Kelvin
 Total                  129.409             40.350            103.470
 Electronic               0.000              0.000              0.000
 Translational            0.889              2.981             40.968
 Rotational               0.889              2.981             30.299
 Vibrational            127.632             34.388             32.203
 Vibration     1          0.593              1.985              6.118
 Vibration     2          0.600              1.961              3.818
 Vibration     3          0.612              1.923              2.941
 Vibration     4          0.622              1.891              2.551
 Vibration     5          0.636              1.846              2.177
 Vibration     6          0.653              1.793              1.868
 Vibration     7          0.668              1.747              1.665
 Vibration     8          0.670              1.740              1.641
 Vibration     9          0.679              1.714              1.547
 Vibration    10          0.702              1.645              1.335
 Vibration    11          0.706              1.634              1.307
 Vibration    12          0.820              1.333              0.758
 Vibration    13          0.833              1.302              0.719
 Vibration    14          0.863              1.232              0.638
 Vibration    15          0.922              1.104              0.511

 Optimization completed.
    -- Stationary point found.
 Normal termination of Gaussian 16 at Tue Dec  8 19:47:02 2020.

 ----------------------------------------------------------------------
 # B3LYP/6-311++G(d,p) empiricaldispersion=gd3bj scf=xqc pop=npa geom=c
 heck
 ----------------------------------------------------------------------

 --------------------------------------
 CID_12440894_JID_1329_Energie_neutraal
 --------------------------------------
 Structure from the checkpoint file:  "JID_1329.chk"
 Charge =  0 Multiplicity = 1

 SCF Done:  E(RB3LYP) =  -496.980426371     A.U. after   14 cycles
 Normal termination of Gaussian 16 at Tue Dec  8 19:49:16 2020.

 ----------------------------------------------------------------------
 # B3LYP/6-311++G(d,p) empiricaldispersion=gd3bj scf=xqc pop=npa geom=c
 heck
 ----------------------------------------------------------------------

 ------------------------------------
 CID_12440894_JID_1329_Energie_kation
 ------------------------------------
 Structure from the checkpoint file:  "JID_1329.chk"
 Charge =  1 Multiplicity = 2

 SCF Done:  E(UB3LYP) =  -496.640912910     A.U. after   25 cycles
 Normal termination of Gaussian 16 at Tue Dec  8 19:54:11 2020.
 Gaussian 16:  ES64L-G16RevA.03 25-Dec-2016

 ----------------------------------------------------------------------
 # B3LYP/6-311++G(d,p) empiricaldispersion=gd3bj scf=xqc pop=npa geom=c
 heck
 ----------------------------------------------------------------------

 -----------------------------------
 CID_12440894_JID_1329_Energie_anion
 -----------------------------------
 Structure from the checkpoint file:  "JID_1329.chk"
 Charge = -1 Multiplicity = 2

                         Standard orientation:
 ---------------------------------------------------------------------
 Center     Atomic      Atomic             Coordinates (Angstroms)
 Number     Number       Type             X           Y           Z
 ---------------------------------------------------------------------
      1          6           0        2.682558   -0.794670    1.267971
      2          6           0        2.354179    0.009836   -0.000169
      3          6           0        2.682335   -0.796059   -1.267463
      4          6           0        0.899401    0.427402   -0.000172
      5          7           0        0.630261    1.743642   -0.000221
      6          6           0       -0.668114    2.069168   -0.000259
      7          6           0       -1.696238    1.135122   -0.000229
      8          6           0       -1.292320   -0.209685   -0.000118
      9          7           0       -0.008185   -0.557048   -0.000115
     10          8           0       -2.138680   -1.259581   -0.000083
     11          6           0       -3.536487   -0.992868    0.000494
     12          1           0        2.071351   -1.701748    1.309786
     13          1           0        2.486213   -0.207771    2.172173
     14          1           0        3.739141   -1.085098    1.272530
     15          1           0        2.938006    0.935928   -0.000710
     16          1           0        2.071201   -1.703235   -1.308152
     17          1           0        2.485744   -0.210196   -2.172285
     18          1           0        3.738946   -1.086378   -1.271911
     19          1           0       -0.897935    3.133569   -0.000327
     20          1           0       -2.732926    1.444989   -0.000362
     21          1           0       -3.836465   -0.434814    0.895826
     22          1           0       -3.837324   -0.435464   -0.894960
     23          1           0       -4.022925   -1.968773    0.001075
 ---------------------------------------------------------------------

 SCF Done:  E(UB3LYP) =  -496.968491034     A.U. after   33 cycles
 SCF Done:  E(UB3LYP) =  -496.968491034     a.u. after    1 cycles

 The electronic state is 2-A.
 Alpha  occ. eigenvalues --  -19.04906 -14.18991 -14.18597 -10.15841 -10.12275
 Alpha  occ. eigenvalues --  -10.10906 -10.09220 -10.07512 -10.06291 -10.06188
 Alpha  occ. eigenvalues --  -10.06160  -0.97299  -0.86381  -0.76667  -0.70891
 Alpha  occ. eigenvalues --   -0.65568  -0.61229  -0.58798  -0.54939  -0.51558
 Alpha  occ. eigenvalues --   -0.47364  -0.42807  -0.40988  -0.36681  -0.35914
 Alpha  occ. eigenvalues --   -0.34901  -0.34428  -0.32767  -0.32375  -0.30949
 Alpha  occ. eigenvalues --   -0.29513  -0.28576  -0.25203  -0.25024  -0.23837
 Alpha  occ. eigenvalues --   -0.23553  -0.23428  -0.18383  -0.17603  -0.14383
 Alpha  occ. eigenvalues --   -0.13975   0.04934
 Alpha virt. eigenvalues --    0.06956   0.07113   0.08283   0.08911   0.09918
 Alpha virt. eigenvalues --    0.10027   0.10339   0.10644   0.10813   0.12798
 Alpha virt. eigenvalues --    0.12978   0.13362   0.13912   0.14092   0.15642

  Beta  occ. eigenvalues --  -19.04895 -14.19015 -14.18457 -10.15825 -10.12219
  Beta  occ. eigenvalues --  -10.10838 -10.09034 -10.07516 -10.06285 -10.06175
  Beta  occ. eigenvalues --  -10.06119  -0.97257  -0.86230  -0.76492  -0.70817
  Beta  occ. eigenvalues --   -0.65426  -0.61135  -0.58778  -0.54754  -0.51378
  Beta  occ. eigenvalues --   -0.47283  -0.42744  -0.40895  -0.36560  -0.35847
  Beta  occ. eigenvalues --   -0.34840  -0.34362  -0.32592  -0.32284  -0.30851
  Beta  occ. eigenvalues --   -0.29396  -0.28471  -0.25153  -0.24974  -0.23781
  Beta  occ. eigenvalues --   -0.23508  -0.23200  -0.18282  -0.16921  -0.14142
  Beta  occ. eigenvalues --   -0.13898
  Beta virt. eigenvalues --    0.06864   0.08190   0.08435   0.08953   0.09082
  Beta virt. eigenvalues --    0.10005   0.10275   0.10484   0.11393   0.11786
  Beta virt. eigenvalues --    0.12832   0.12989   0.13726   0.13885   0.14470

 Mulliken charges and spin densities:
               1          2
     1  C   -0.346963  -0.220837
     2  C    0.315193  -0.162309
     3  C   -0.468182  -0.100379
     4  C   -0.861225   0.194401
     5  N   -0.062444   0.032227
     6  C    0.776263  -0.895949
     7  C    0.758707  -0.425941
     8  C   -0.346429   0.320216
     9  N   -0.225598   0.173235
    10  O   -0.123330   0.047526
    11  C    1.836293  -2.081534
    12  H    0.143781   0.012030
    13  H    0.053058   0.081143
    14  H    0.058064   0.071892
    15  H    0.121124   0.038025
    16  H    0.139364   0.016999
    17  H    0.105429   0.026044
    18  H    0.105263   0.023417
    19  H   -0.447307   0.628122
    20  H   -0.836809   1.045580
    21  H   -0.624194   0.790923
    22  H   -0.361554   0.510682
    23  H   -0.708502   0.874485
 Sum of Mulliken charges =  -1.00000   1.00000

 Dipole moment (field-independent basis, Debye):
    X=              9.8000    Y=             -1.2620    Z=             -0.7024  Tot=              9.9058
 Quadrupole moment (field-independent basis, Debye-Ang):
   XX=           -141.9532   YY=           -103.6966   ZZ=            -88.7951
   XY=             -2.1817   XZ=              1.7398   YZ=              0.6388

 Summary of Natural Population Analysis:

                                       Natural Population
                Natural  -----------------------------------------------
    Atom  No    Charge         Core      Valence    Rydberg      Total
 -----------------------------------------------------------------------
      C    1   -0.28076      0.99965     2.27652    0.00458     3.28076
      C    2   -0.13057      0.99957     2.12124    0.00975     3.13057
      C    3   -0.28083      0.99965     2.27660    0.00458     3.28083
      C    4    0.23385      0.99958     1.74569    0.02088     2.76615
      N    5   -0.27441      0.99968     2.76421    0.01053     3.77441
      C    6    0.08007      0.99960     1.90523    0.01511     2.91993
      C    7   -0.18101      0.99951     2.17261    0.00889     3.18101
      C    8    0.28584      0.99944     1.69681    0.01790     2.71416
      N    9   -0.25428      0.99962     2.74428    0.01039     3.75428
      O   10   -0.26345      0.99985     3.25364    0.00996     4.26345
      C   11   -0.10231      0.99960     2.09352    0.00919     3.10231
      H   12    0.10508      0.00000     0.39381    0.00111     0.39492
      H   13    0.09982      0.00000     0.39938    0.00080     0.40018
      H   14    0.09201      0.00000     0.40706    0.00093     0.40799
      H   15    0.10077      0.00000     0.39734    0.00189     0.39923
      H   16    0.10536      0.00000     0.39358    0.00106     0.39464
      H   17    0.09898      0.00000     0.40028    0.00074     0.40102
      H   18    0.09169      0.00000     0.40747    0.00083     0.40831
      H   19    0.08745      0.00000     0.41122    0.00133     0.41255
      H   20    0.11406      0.00000     0.38297    0.00298     0.38594
      H   21    0.09167      0.00000     0.40387    0.00446     0.40833
      H   22    0.08612      0.00000     0.41158    0.00230     0.41388
      H   23    0.09486      0.00000     0.40335    0.00179     0.40514
 =======================================================================
   * Total *    0.00000     10.99576    29.86226    0.14198    41.00000

 Normal termination of Gaussian 16 at Tue Dec  8 20:00:43 2020.
