 Gaussian 16, Revision A.03,

 -----------------------------------------------------------
 # opt freq B3LYP/6-31G(d) empiricaldispersion=gd3bj scf=xqc
 -----------------------------------------------------------

 ------------------------------
 CID_9943419_JID_10220_neutraal
 ------------------------------
 Symbolic Z-matrix:
 Charge =  0 Multiplicity = 1

 SCF Done:  E(RB3LYP) =  -936.335678830     A.U. after   16 cycles
 SCF Done:  E(RB3LYP) =  -936.343936799     A.U. after   13 cycles
 SCF Done:  E(RB3LYP) =  -936.345143845     A.U. after   13 cycles
 SCF Done:  E(RB3LYP) =  -936.344628779     A.U. after   13 cycles
 SCF Done:  E(RB3LYP) =  -936.346172618     A.U. after   12 cycles
 SCF Done:  E(RB3LYP) =  -936.346407287     A.U. after   12 cycles
 SCF Done:  E(RB3LYP) =  -936.346501647     A.U. after   12 cycles
 SCF Done:  E(RB3LYP) =  -936.346771446     A.U. after   11 cycles
 SCF Done:  E(RB3LYP) =  -936.347562407     A.U. after   14 cycles
 SCF Done:  E(RB3LYP) =  -936.342820744     A.U. after   13 cycles
 SCF Done:  E(RB3LYP) =  -936.350848626     A.U. after   10 cycles
 SCF Done:  E(RB3LYP) =  -936.350852104     A.U. after   10 cycles
 SCF Done:  E(RB3LYP) =  -936.350852842     A.U. after   10 cycles
 SCF Done:  E(RB3LYP) =  -936.350852903     A.U. after    8 cycles
 SCF Done:  E(RB3LYP) =  -936.350852916     A.U. after    7 cycles
 SCF Done:  E(RB3LYP) =  -936.350852919     A.U. after    7 cycles
 Optimization completed.
    -- Stationary point found.
 Normal termination of Gaussian 16 at Sat Dec 12 15:13:04 2020.

 --------------------------------------------------------------------
 #N Geom=AllCheck Guess=TCheck SCRF=Check GenChk RB3LYP/6-31G(d) Freq
 --------------------------------------------------------------------

 Structure from the checkpoint file:  "JID_10220.chk"
 ------------------------------
 CID_9943419_JID_10220_neutraal
 ------------------------------
 Charge =  0 Multiplicity = 1

 SCF Done:  E(RB3LYP) =  -936.350852919     A.U. after    1 cycles

  Exact polarizability: 311.208  10.583 209.505   0.001   0.002  78.018
 Approx polarizability: 410.412  34.966 392.957   0.001   0.003 119.175

                      1                      2                      3
                      A                      A                      A
 Frequencies --     17.2778                42.9088                58.0143
 Red. masses --      3.0427                 2.7942                 3.9584
 Frc consts  --      0.0005                 0.0030                 0.0078
 IR Inten    --      0.9331                 1.8386                 1.7139

                      4                      5                      6
                      A                      A                      A
 Frequencies --     73.3880                81.4842               101.9874
 Red. masses --      3.9218                 4.2503                 2.7351
 Frc consts  --      0.0124                 0.0166                 0.0168
 IR Inten    --      0.1435                 0.9688                 0.1287

                      7                      8                      9
                      A                      A                      A
 Frequencies --    116.9734               121.1407               135.2246
 Red. masses --      4.0296                 3.8405                 1.2509
 Frc consts  --      0.0325                 0.0332                 0.0135
 IR Inten    --      1.7969                 1.2957                 0.8909

                     10                     11                     12
                      A                      A                      A
 Frequencies --    166.5052               184.0478               192.0850
 Red. masses --      4.4642                 4.3559                 4.6891
 Frc consts  --      0.0729                 0.0869                 0.1019
 IR Inten    --      4.6730                 1.1171                 3.2509

                     13                     14                     15
                      A                      A                      A
 Frequencies --    198.0269               209.7475               248.1122
 Red. masses --      1.3275                 1.9566                 1.9322
 Frc consts  --      0.0307                 0.0507                 0.0701
 IR Inten    --      0.1671                 0.7649                 0.0024

                     16                     17                     18
                      A                      A                      A
 Frequencies --    249.0927               274.9739               296.3360
 Red. masses --      5.8775                 3.8492                 2.2535
 Frc consts  --      0.2149                 0.1715                 0.1166
 IR Inten    --      0.8234                 4.3381                 0.8028

                     19                     20                     21
                      A                      A                      A
 Frequencies --    314.0520               350.7395               377.0724
 Red. masses --      4.9825                 5.6710                 4.8763
 Frc consts  --      0.2895                 0.4110                 0.4085
 IR Inten    --     30.2844                 8.1797                 4.1285

                     22                     23                     24
                      A                      A                      A
 Frequencies --    395.1174               416.2705               457.7337
 Red. masses --      5.3910                 4.4682                 8.8165
 Frc consts  --      0.4959                 0.4562                 1.0884
 IR Inten    --      0.5978                 2.9041                 4.3371

                     25                     26                     27
                      A                      A                      A
 Frequencies --    508.9962               520.5760               543.8809
 Red. masses --      5.0640                 7.0594                 7.9738
 Frc consts  --      0.7730                 1.1272                 1.3897
 IR Inten    --      0.1730                 7.9353                 9.4010

                     28                     29                     30
                      A                      A                      A
 Frequencies --    548.1196               585.6461               623.1659
 Red. masses --      8.8557                 5.7059                 3.2342
 Frc consts  --      1.5676                 1.1530                 0.7400
 IR Inten    --     15.4320                 1.8768                 1.5485

                     31                     32                     33
                      A                      A                      A
 Frequencies --    646.9927               670.6768               693.0986
 Red. masses --      1.2101                 4.6820                 4.6213
 Frc consts  --      0.2985                 1.2408                 1.3080
 IR Inten    --     54.4863                 1.8191                13.8223

                     34                     35                     36
                      A                      A                      A
 Frequencies --    700.9603               766.1090               781.2615
 Red. masses --      3.8631                 3.4710                 8.1743
 Frc consts  --      1.1183                 1.2003                 2.9396
 IR Inten    --      3.9024                 7.4387                16.6638

                     37                     38                     39
                      A                      A                      A
 Frequencies --    786.1092               816.2326               862.1713
 Red. masses --      5.5302                 1.5776                 4.5049
 Frc consts  --      2.0135                 0.6193                 1.9730
 IR Inten    --      3.8825                 9.4927                11.9057

                     40                     41                     42
                      A                      A                      A
 Frequencies --    879.0667               885.0375               919.2601
 Red. masses --      1.5771                 1.4930                 1.4520
 Frc consts  --      0.7181                 0.6890                 0.7230
 IR Inten    --     12.5100                29.7414                 3.9494

                     43                     44                     45
                      A                      A                      A
 Frequencies --    920.2449               940.8491               988.5616
 Red. masses --      6.5166                 2.0587                 5.8320
 Frc consts  --      3.2514                 1.0737                 3.3580
 IR Inten    --      8.6981                26.7027                 2.4900

                     46                     47                     48
                      A                      A                      A
 Frequencies --   1009.9964              1017.0167              1046.3436
 Red. masses --      1.0914                 3.3293                 5.3395
 Frc consts  --      0.6559                 2.0289                 3.4443
 IR Inten    --     29.8106                 0.4974                65.7688

                     49                     50                     51
                      A                      A                      A
 Frequencies --   1075.7028              1106.9484              1133.6147
 Red. masses --      1.5264                 3.1271                 2.2967
 Frc consts  --      1.0406                 2.2576                 1.7389
 IR Inten    --      0.0226                39.0270                 0.5706

                     52                     53                     54
                      A                      A                      A
 Frequencies --   1143.5483              1179.9190              1186.0209
 Red. masses --      2.1469                 2.7815                 1.2706
 Frc consts  --      1.6542                 2.2816                 1.0531
 IR Inten    --     13.9552                95.5656                 0.8326

                     55                     56                     57
                      A                      A                      A
 Frequencies --   1187.6807              1221.1102              1226.6847
 Red. masses --      1.2678                 1.8915                 1.4476
 Frc consts  --      1.0536                 1.6618                 1.2834
 IR Inten    --      0.7780                29.5724                12.9106

                     58                     59                     60
                      A                      A                      A
 Frequencies --   1231.9302              1279.9193              1300.9645
 Red. masses --      1.7185                 1.7235                 2.6834
 Frc consts  --      1.5366                 1.6635                 2.6759
 IR Inten    --     63.9724                31.6621               281.5995

                     61                     62                     63
                      A                      A                      A
 Frequencies --   1308.5151              1319.4016              1353.3523
 Red. masses --      2.3494                 2.5420                 1.5478
 Frc consts  --      2.3701                 2.6072                 1.6703
 IR Inten    --     65.8220               390.0086                25.0028

                     64                     65                     66
                      A                      A                      A
 Frequencies --   1369.6492              1391.1447              1422.2258
 Red. masses --      1.7809                 2.8648                 4.8639
 Frc consts  --      1.9684                 3.2666                 5.7965
 IR Inten    --     25.7571               246.8959                15.4655

                     67                     68                     69
                      A                      A                      A
 Frequencies --   1441.3926              1464.4858              1493.8341
 Red. masses --      1.2856                 2.8469                 1.2734
 Frc consts  --      1.5737                 3.5975                 1.6743
 IR Inten    --      5.2293                44.3861                16.2086

                     70                     71                     72
                      A                      A                      A
 Frequencies --   1503.8678              1506.9204              1513.0643
 Red. masses --      1.3895                 1.0454                 1.0474
 Frc consts  --      1.8516                 1.3986                 1.4128
 IR Inten    --     28.6574                 5.7462                 7.2677

                     73                     74                     75
                      A                      A                      A
 Frequencies --   1519.1957              1521.8669              1522.5226
 Red. masses --      1.0473                 1.0931                 1.0605
 Frc consts  --      1.4241                 1.4916                 1.4484
 IR Inten    --      6.4094                 2.2953                 9.2891

                     76                     77                     78
                      A                      A                      A
 Frequencies --   1526.6947              1539.5046              1571.0811
 Red. masses --      1.8624                 1.3139                 6.2907
 Frc consts  --      2.5575                 1.8347                 9.1484
 IR Inten    --    125.8011                 5.5480               171.1786

                     79                     80                     81
                      A                      A                      A
 Frequencies --   1634.3997              1658.0037              1666.2321
 Red. masses --      4.4798                 9.0715                 6.5499
 Frc consts  --      7.0506                14.6926                10.7141
 IR Inten    --     64.8252                66.4709                80.4553

                     82                     83                     84
                      A                      A                      A
 Frequencies --   1724.7908              1737.4586              1795.6785
 Red. masses --     10.5365                 5.4951                11.1850
 Frc consts  --     18.4680                 9.7736                21.2493
 IR Inten    --    264.8567                17.5930               209.8200

                     85                     86                     87
                      A                      A                      A
 Frequencies --   3029.2849              3034.6088              3074.2484
 Red. masses --      1.0373                 1.0340                 1.0998
 Frc consts  --      5.6085                 5.6101                 6.1240
 IR Inten    --     56.4315                52.6954                23.5916

                     88                     89                     90
                      A                      A                      A
 Frequencies --   3080.9760              3096.6708              3115.9426
 Red. masses --      1.0297                 1.1071                 1.0998
 Frc consts  --      5.7586                 6.2550                 6.2916
 IR Inten    --     36.4778                36.0152                15.3216

                     91                     92                     93
                      A                      A                      A
 Frequencies --   3136.8937              3157.5393              3166.9686
 Red. masses --      1.0886                 1.1079                 1.0882
 Frc consts  --      6.3111                 6.5079                 6.4305
 IR Inten    --     29.9559                17.5163                22.4568

                     94                     95                     96
                      A                      A                      A
 Frequencies --   3167.4500              3193.9543              3217.2485
 Red. masses --      1.1009                 1.1072                 1.0892
 Frc consts  --      6.5073                 6.6549                 6.6422
 IR Inten    --     19.9154                13.3407                11.4740

                     97                     98                     99
                      A                      A                      A
 Frequencies --   3231.5729              3261.1274              3597.7995
 Red. masses --      1.0893                 1.0917                 1.0769
 Frc consts  --      6.7025                 6.8404                 8.2128
 IR Inten    --      3.0874                 0.1294               151.3247

 - Thermochemistry -
 -------------------
 Temperature   298.150 Kelvin.  Pressure   1.00000 Atm.
 Atom     1 has atomic number  6 and mass  12.00000

 Molecular mass:   273.10011 amu.
 Principal axes and moments of inertia in atomic units:
                           1         2         3
     Eigenvalues --  2903.75244********************
           X            1.00000  -0.00016   0.00000
           Y            0.00016   1.00000   0.00000
           Z           -0.00000  -0.00000   1.00000
 This molecule is an asymmetric top.
 Rotational symmetry number  1.
 Warning -- assumption of classical behavior for rotation
           may cause significant error
 Rotational temperatures (Kelvin)      0.02983     0.00849     0.00662
 Rotational constants (GHZ):           0.62152     0.17683     0.13802
 Zero-point vibrational energy     730202.3 (Joules/Mol)
                                  174.52255 (Kcal/Mol)
 Warning -- explicit consideration of  29 degrees of freedom as
           vibrations may cause significant error
 Vibrational temperatures:     24.86    61.74    83.47   105.59   117.24
          (Kelvin)            146.74   168.30   174.29   194.56   239.56
                              264.80   276.37   284.92   301.78   356.98
                              358.39   395.63   426.36   451.85   504.64
                              542.52   568.49   598.92   658.58   732.33
                              748.99   782.52   788.62   842.61   896.60
                              930.88   964.95   997.21  1008.53  1102.26
                             1124.06  1131.04  1174.38  1240.47  1264.78
                             1273.37  1322.61  1324.03  1353.67  1422.32
                             1453.16  1463.26  1505.46  1547.70  1592.65
                             1631.02  1645.31  1697.64  1706.42  1708.81
                             1756.91  1764.93  1772.47  1841.52  1871.80
                             1882.66  1898.32  1947.17  1970.62  2001.55
                             2046.27  2073.84  2107.07  2149.29  2163.73
                             2168.12  2176.96  2185.78  2189.63  2190.57
                             2196.57  2215.00  2260.44  2351.54  2385.50
                             2397.34  2481.59  2499.82  2583.58  4358.47
                             4366.13  4423.16  4432.84  4455.42  4483.15
                             4513.29  4542.99  4556.56  4557.25  4595.39
                             4628.90  4649.51  4692.04  5176.43

 Zero-point correction=                           0.278119 (Hartree/Particle)
 Thermal correction to Energy=                    0.297327
 Thermal correction to Enthalpy=                  0.298271
 Thermal correction to Gibbs Free Energy=         0.229205
 Sum of electronic and zero-point Energies=           -936.072734
 Sum of electronic and thermal Energies=              -936.053526
 Sum of electronic and thermal Enthalpies=            -936.052581
 Sum of electronic and thermal Free Energies=         -936.121648

                     E (Thermal)             CV                S
                      KCal/Mol        Cal/Mol-Kelvin    Cal/Mol-Kelvin
 Total                  186.576             70.570            145.363
 Electronic               0.000              0.000              0.000
 Translational            0.889              2.981             42.713
 Rotational               0.889              2.981             34.315
 Vibrational            184.798             64.608             68.335
 Vibration     1          0.593              1.986              6.925
 Vibration     2          0.595              1.980              5.120
 Vibration     3          0.596              1.974              4.524
 Vibration     4          0.599              1.967              4.060
 Vibration     5          0.600              1.962              3.855
 Vibration     6          0.604              1.948              3.416
 Vibration     7          0.608              1.935              3.150
 Vibration     8          0.609              1.932              3.082
 Vibration     9          0.613              1.918              2.870
 Vibration    10          0.624              1.884              2.475
 Vibration    11          0.631              1.862              2.287
 Vibration    12          0.634              1.851              2.208
 Vibration    13          0.637              1.843              2.151
 Vibration    14          0.642              1.826              2.046
 Vibration    15          0.662              1.766              1.744
 Vibration    16          0.662              1.764              1.737
 Vibration    17          0.677              1.720              1.565
 Vibration    18          0.690              1.681              1.438
 Vibration    19          0.702              1.647              1.341
 Vibration    20          0.728              1.574              1.163
 Vibration    21          0.748              1.519              1.051
 Vibration    22          0.762              1.481              0.981
 Vibration    23          0.779              1.435              0.905
 Vibration    24          0.816              1.344              0.773
 Vibration    25          0.864              1.230              0.636
 Vibration    26          0.876              1.204              0.609
 Vibration    27          0.899              1.153              0.557
 Vibration    28          0.903              1.144              0.548
 Vibration    29          0.943              1.062              0.475

 Optimization completed.
    -- Stationary point found.
 Normal termination of Gaussian 16 at Sat Dec 12 15:28:23 2020.

 ----------------------------------------------------------------------
 # B3LYP/6-311++G(d,p) empiricaldispersion=gd3bj scf=xqc pop=npa geom=c
 heck
 ----------------------------------------------------------------------

 --------------------------------------
 CID_9943419_JID_10220_Energie_neutraal
 --------------------------------------
 Structure from the checkpoint file:  "JID_10220.chk"
 Charge =  0 Multiplicity = 1

 SCF Done:  E(RB3LYP) =  -936.611034842     A.U. after   18 cycles
 Normal termination of Gaussian 16 at Sat Dec 12 15:36:37 2020.

 ----------------------------------------------------------------------
 # B3LYP/6-311++G(d,p) empiricaldispersion=gd3bj scf=xqc pop=npa geom=c
 heck
 ----------------------------------------------------------------------

 ------------------------------------
 CID_9943419_JID_10220_Energie_kation
 ------------------------------------
 Structure from the checkpoint file:  "JID_10220.chk"
 Charge =  1 Multiplicity = 2

 SCF Done:  E(UB3LYP) =  -936.346540235     A.U. after   25 cycles
 Normal termination of Gaussian 16 at Sat Dec 12 15:53:04 2020.
 Gaussian 16:  ES64L-G16RevA.03 25-Dec-2016

 ----------------------------------------------------------------------
 # B3LYP/6-311++G(d,p) empiricaldispersion=gd3bj scf=xqc pop=npa geom=c
 heck
 ----------------------------------------------------------------------

 -----------------------------------
 CID_9943419_JID_10220_Energie_anion
 -----------------------------------
 Structure from the checkpoint file:  "JID_10220.chk"
 Charge = -1 Multiplicity = 2

                         Standard orientation:
 ---------------------------------------------------------------------
 Center     Atomic      Atomic             Coordinates (Angstroms)
 Number     Number       Type             X           Y           Z
 ---------------------------------------------------------------------
      1          6           0       -6.416945   -1.222659   -0.000095
      2          6           0       -4.919785   -1.168456   -0.000118
      3          6           0       -4.203056   -0.035406    0.000092
      4          6           0       -2.739947    0.087317    0.000072
      5          6           0       -1.876419   -1.005354    0.000068
      6          6           0       -0.487268   -0.831843    0.000033
      7          6           0        0.050820    0.467845    0.000010
      8          6           0       -0.813299    1.588281    0.000023
      9          6           0       -2.181629    1.392498    0.000056
     10          8           0       -0.170970    2.795089   -0.000005
     11          6           0       -0.968378    3.969695   -0.000024
     12          7           0        1.410957    0.658543   -0.000018
     13          6           0        2.276059   -0.396322   -0.000014
     14          6           0        1.839556   -1.689070    0.000009
     15          6           0        0.416809   -2.009692    0.000032
     16          8           0       -0.010180   -3.167574    0.000051
     17          6           0        3.703066    0.031709   -0.000028
     18          8           0        4.034534    1.203560   -0.000037
     19          8           0        4.557476   -0.998426   -0.000032
     20          6           0        5.950432   -0.640190   -0.000012
     21          1           0       -6.856411   -0.219519    0.000242
     22          1           0       -6.794719   -1.761303    0.879695
     23          1           0       -6.794765   -1.760724   -0.880223
     24          1           0       -4.407165   -2.129555   -0.000338
     25          1           0       -4.744922    0.911427    0.000285
     26          1           0       -2.240001   -2.026325    0.000099
     27          1           0       -2.853090    2.243836    0.000067
     28          1           0       -1.601096    4.018467   -0.895072
     29          1           0       -1.601055    4.018525    0.895048
     30          1           0       -0.269615    4.807239   -0.000067
     31          1           0        1.794544    1.596327   -0.000020
     32          1           0        2.550580   -2.504309    0.000012
     33          1           0        6.191425   -0.054976   -0.890794
     34          1           0        6.191273   -0.054429    0.890448
     35          1           0        6.491334   -1.585782    0.000313
 ---------------------------------------------------------------------

 SCF Done:  E(UB3LYP) =  -936.640703152     A.U. after   22 cycles

 The electronic state is 2-A.
 Alpha  occ. eigenvalues --  -19.05784 -19.04302 -18.96900 -18.92183 -14.22261
 Alpha  occ. eigenvalues --  -10.15189 -10.14080 -10.12371 -10.11481 -10.09684
 Alpha  occ. eigenvalues --  -10.08297 -10.07520 -10.07233 -10.06086 -10.05945
 Alpha  occ. eigenvalues --  -10.05582 -10.05572 -10.04662 -10.03412 -10.01616
 Alpha  occ. eigenvalues --   -0.98355  -0.97377  -0.89131  -0.86051  -0.84072
 Alpha  occ. eigenvalues --   -0.73626  -0.69149  -0.66458  -0.64516  -0.63972
 Alpha  occ. eigenvalues --   -0.61067  -0.60405  -0.57492  -0.52422  -0.50545
 Alpha  occ. eigenvalues --   -0.48594  -0.45965  -0.44833  -0.44094  -0.40981
 Alpha  occ. eigenvalues --   -0.40150  -0.38308  -0.37970  -0.37388  -0.37137
 Alpha  occ. eigenvalues --   -0.35371  -0.34942  -0.33220  -0.32672  -0.32129
 Alpha  occ. eigenvalues --   -0.31258  -0.31228  -0.30190  -0.29380  -0.28522
 Alpha  occ. eigenvalues --   -0.28295  -0.26368  -0.25535  -0.25150  -0.24957
 Alpha  occ. eigenvalues --   -0.24279  -0.23385  -0.22937  -0.22263  -0.21842
 Alpha  occ. eigenvalues --   -0.19206  -0.16506  -0.15745  -0.12594  -0.11555
 Alpha  occ. eigenvalues --   -0.09021  -0.07478   0.02416
 Alpha virt. eigenvalues --    0.06433   0.07084   0.07506   0.08446   0.09025
 Alpha virt. eigenvalues --    0.09740   0.10381   0.10450   0.10879   0.10927
 Alpha virt. eigenvalues --    0.11103   0.11613   0.12034   0.12391   0.13522

  Beta  occ. eigenvalues --  -19.05763 -19.04208 -18.96569 -18.91886 -14.22219
  Beta  occ. eigenvalues --  -10.14954 -10.14081 -10.12377 -10.11355 -10.09724
  Beta  occ. eigenvalues --  -10.08186 -10.07530 -10.06961 -10.06126 -10.05961
  Beta  occ. eigenvalues --  -10.05490 -10.05450 -10.04693 -10.03298 -10.01497
  Beta  occ. eigenvalues --   -0.98042  -0.97313  -0.88639  -0.85569  -0.83842
  Beta  occ. eigenvalues --   -0.73472  -0.68980  -0.66174  -0.64316  -0.63789
  Beta  occ. eigenvalues --   -0.60890  -0.60344  -0.57332  -0.51962  -0.50468
  Beta  occ. eigenvalues --   -0.48277  -0.45787  -0.44654  -0.44003  -0.40796
  Beta  occ. eigenvalues --   -0.39995  -0.38223  -0.37880  -0.37031  -0.36941
  Beta  occ. eigenvalues --   -0.35298  -0.34551  -0.33150  -0.32582  -0.31997
  Beta  occ. eigenvalues --   -0.31098  -0.30668  -0.30062  -0.29269  -0.28213
  Beta  occ. eigenvalues --   -0.27616  -0.26217  -0.25409  -0.24847  -0.24499
  Beta  occ. eigenvalues --   -0.24108  -0.22823  -0.22779  -0.22152  -0.20989
  Beta  occ. eigenvalues --   -0.18048  -0.15909  -0.15400  -0.12141  -0.10431
  Beta  occ. eigenvalues --   -0.08724  -0.06417
  Beta virt. eigenvalues --    0.06422   0.07066   0.07407   0.07506   0.09010
  Beta virt. eigenvalues --    0.09404   0.10215   0.10432   0.10883   0.10906
  Beta virt. eigenvalues --    0.11102   0.11204   0.11626   0.12025   0.12407

 Mulliken charges and spin densities:
               1          2
     1  C   -0.640184  -0.006495
     2  C   -0.148528   0.104353
     3  C    0.434331  -0.025647
     4  C    1.949306   0.054941
     5  C   -1.054771   0.104421
     6  C    0.166947  -0.018681
     7  C    0.050513  -0.025371
     8  C   -0.669039   0.074997
     9  C   -0.435679  -0.024921
    10  O   -0.181465   0.005084
    11  C   -0.310204   0.000375
    12  N   -0.121175   0.008871
    13  C   -0.231998   0.179396
    14  C   -0.003774   0.106674
    15  C   -0.636591   0.102957
    16  O   -0.420905   0.111631
    17  C   -0.202310   0.124201
    18  O   -0.359029   0.115002
    19  O   -0.115203   0.017549
    20  C   -0.246436  -0.001437
    21  H    0.124585   0.000206
    22  H    0.124207   0.004366
    23  H    0.124201   0.004370
    24  H    0.134456  -0.005925
    25  H    0.029509  -0.000450
    26  H    0.102785  -0.010507
    27  H    0.074006   0.001723
    28  H    0.139924   0.000541
    29  H    0.139924   0.000542
    30  H    0.162522  -0.000083
    31  H    0.381672  -0.001277
    32  H    0.190237  -0.005731
    33  H    0.160012   0.002376
    34  H    0.160034   0.002369
    35  H    0.128117  -0.000419
 Sum of Mulliken charges =  -1.00000   1.00000

 Dipole moment (field-independent basis, Debye):
    X=             -1.5489    Y=              6.7302    Z=             -0.0000  Tot=              6.9062
 Quadrupole moment (field-independent basis, Debye-Ang):
   XX=           -154.9551   YY=           -143.3753   ZZ=           -125.6023
   XY=            -12.0292   XZ=              0.0006   YZ=              0.0008

 Summary of Natural Population Analysis:

                                       Natural Population
                Natural  -----------------------------------------------
    Atom  No    Charge         Core      Valence    Rydberg      Total
 -----------------------------------------------------------------------
      C    1   -0.29678      0.99966     2.29284    0.00429     3.29678
      C    2   -0.06697      0.99955     2.05969    0.00774     3.06697
      C    3   -0.10298      0.99951     2.09398    0.00950     3.10298
      C    4   -0.03540      0.99953     2.02657    0.00930     3.03540
      C    5   -0.05554      0.99944     2.04764    0.00847     3.05554
      C    6   -0.07142      0.99948     2.06252    0.00941     3.07142
      C    7    0.07525      0.99938     1.91499    0.01038     2.92475
      C    8    0.16709      0.99929     1.82186    0.01176     2.83291
      C    9   -0.14101      0.99946     2.13403    0.00752     3.14101
      O   10   -0.27993      0.99985     3.26788    0.01220     4.27993
      C   11   -0.09340      0.99955     2.08645    0.00740     3.09340
      N   12   -0.26440      0.99959     2.75417    0.01064     3.76440
      C   13    0.10027      0.99948     1.88879    0.01146     2.89973
      C   14   -0.12500      0.99951     2.11657    0.00891     3.12500
      C   15    0.24691      0.99957     1.73315    0.02037     2.75309
      O   16   -0.29813      0.99989     3.29133    0.00691     4.29813
      C   17    0.42044      0.99965     1.55696    0.02296     2.57956
      O   18   -0.29952      0.99988     3.29357    0.00608     4.29952
      O   19   -0.26931      0.99986     3.26105    0.00841     4.26931
      C   20   -0.10513      0.99961     2.09704    0.00848     3.10513
      H   21    0.09418      0.00000     0.40486    0.00096     0.40582
      H   22    0.09672      0.00000     0.40214    0.00114     0.40328
      H   23    0.09672      0.00000     0.40214    0.00114     0.40328
      H   24    0.09105      0.00000     0.40783    0.00113     0.40895
      H   25    0.08384      0.00000     0.41460    0.00157     0.41616
      H   26    0.10808      0.00000     0.38973    0.00220     0.39192
      H   27    0.09465      0.00000     0.40370    0.00165     0.40535
      H   28    0.08074      0.00000     0.41730    0.00196     0.41926
      H   29    0.08074      0.00000     0.41730    0.00196     0.41926
      H   30    0.08874      0.00000     0.41015    0.00110     0.41126
      H   31    0.21288      0.00000     0.28519    0.00193     0.28712
      H   32    0.10669      0.00000     0.39214    0.00116     0.39331
      H   33    0.08768      0.00000     0.41111    0.00121     0.41232
      H   34    0.08769      0.00000     0.41110    0.00121     0.41231
      H   35    0.08466      0.00000     0.41452    0.00083     0.41534
 =======================================================================
   * Total *    0.00008     19.99174    51.78488    0.22331    71.99992

 Normal termination of Gaussian 16 at Sat Dec 12 16:07:37 2020.
