 Gaussian 16, Revision A.03,

 -----------------------------------------------------------
 # opt freq B3LYP/6-31G(d) empiricaldispersion=gd3bj scf=xqc
 -----------------------------------------------------------

 -------------------------------
 CID_115021690_JID_4269_neutraal
 -------------------------------
 Symbolic Z-matrix:
 Charge =  0 Multiplicity = 1

 SCF Done:  E(RB3LYP) =  -671.784710363     A.U. after   14 cycles
 SCF Done:  E(RB3LYP) =  -671.788694899     A.U. after   13 cycles
 SCF Done:  E(RB3LYP) =  -671.788584501     A.U. after   13 cycles
 SCF Done:  E(RB3LYP) =  -671.789354876     A.U. after   13 cycles
 SCF Done:  E(RB3LYP) =  -671.789459345     A.U. after   11 cycles
 SCF Done:  E(RB3LYP) =  -671.789646739     A.U. after   12 cycles
 SCF Done:  E(RB3LYP) =  -671.789708672     A.U. after   12 cycles
 SCF Done:  E(RB3LYP) =  -671.789728377     A.U. after   12 cycles
 SCF Done:  E(RB3LYP) =  -671.789752835     A.U. after   11 cycles
 SCF Done:  E(RB3LYP) =  -671.789760817     A.U. after   10 cycles
 SCF Done:  E(RB3LYP) =  -671.792036519     A.U. after    8 cycles
 SCF Done:  E(RB3LYP) =  -671.792036698     A.U. after    8 cycles
 SCF Done:  E(RB3LYP) =  -671.792036714     A.U. after    7 cycles
 SCF Done:  E(RB3LYP) =  -671.792036755     A.U. after    8 cycles
 SCF Done:  E(RB3LYP) =  -671.792036770     A.U. after    7 cycles
 Optimization completed.
    -- Stationary point found.
 Normal termination of Gaussian 16 at Thu Dec 10 09:46:31 2020.

 --------------------------------------------------------------------
 #N Geom=AllCheck Guess=TCheck SCRF=Check GenChk RB3LYP/6-31G(d) Freq
 --------------------------------------------------------------------

 Structure from the checkpoint file:  "JID_4269.chk"
 -------------------------------
 CID_115021690_JID_4269_neutraal
 -------------------------------
 Charge =  0 Multiplicity = 1

 SCF Done:  E(RB3LYP) =  -671.792036769     A.U. after    1 cycles

  Exact polarizability: 132.040  -0.052 107.240  -4.137  -0.906 108.009
 Approx polarizability: 171.632  -2.111 155.958  -8.816  -1.821 167.397

                      1                      2                      3
                      A                      A                      A
 Frequencies --     18.6612                59.2193                77.0140
 Red. masses --      6.6435                 9.1979                 3.4016
 Frc consts  --      0.0014                 0.0190                 0.0119
 IR Inten    --      2.6737                 1.4528                 1.5874

                      4                      5                      6
                      A                      A                      A
 Frequencies --    101.5161               130.9935               156.1408
 Red. masses --      3.1958                 3.7625                 3.7729
 Frc consts  --      0.0194                 0.0380                 0.0542
 IR Inten    --      1.7613                 0.1707                 1.7016

                      7                      8                      9
                      A                      A                      A
 Frequencies --    171.0932               207.8418               246.9732
 Red. masses --      1.0666                 2.9704                 1.5343
 Frc consts  --      0.0184                 0.0756                 0.0551
 IR Inten    --      0.5328                 2.7708                 0.3010

                     10                     11                     12
                      A                      A                      A
 Frequencies --    255.9759               262.0149               314.6356
 Red. masses --      2.3815                 2.6602                 2.6803
 Frc consts  --      0.0919                 0.1076                 0.1563
 IR Inten    --      0.5688                 1.1625                 1.7616

                     13                     14                     15
                      A                      A                      A
 Frequencies --    342.9603               361.0268               379.8788
 Red. masses --      2.3096                 4.5979                 2.4338
 Frc consts  --      0.1601                 0.3531                 0.2069
 IR Inten    --      0.9253                 3.6592                 1.8822

                     16                     17                     18
                      A                      A                      A
 Frequencies --    393.0459               424.4037               462.0437
 Red. masses --      2.5286                 2.0010                 3.9956
 Frc consts  --      0.2302                 0.2123                 0.5026
 IR Inten    --      1.3015                 6.6506                 1.0104

                     19                     20                     21
                      A                      A                      A
 Frequencies --    486.2117               524.8939               539.2018
 Red. masses --      2.3987                 3.3296                 2.2894
 Frc consts  --      0.3341                 0.5405                 0.3922
 IR Inten    --      5.2550                28.4007                 3.5367

                     22                     23                     24
                      A                      A                      A
 Frequencies --    614.7005               637.8477               660.4566
 Red. masses --      1.3241                 3.0742                 2.7886
 Frc consts  --      0.2948                 0.7369                 0.7167
 IR Inten    --     74.7171                23.9035                29.0891

                     25                     26                     27
                      A                      A                      A
 Frequencies --    744.8908               768.4550               808.4026
 Red. masses --      3.1134                 4.1041                 2.3287
 Frc consts  --      1.0178                 1.4279                 0.8966
 IR Inten    --      9.5081                29.8907                 4.3711

                     28                     29                     30
                      A                      A                      A
 Frequencies --    840.5085               875.5976               902.4022
 Red. masses --      2.7509                 2.0041                 1.6762
 Frc consts  --      1.1450                 0.9053                 0.8042
 IR Inten    --      5.3787                 6.9866                 3.7542

                     31                     32                     33
                      A                      A                      A
 Frequencies --    928.8613               942.9910               961.7496
 Red. masses --      2.3553                 2.4436                 2.0185
 Frc consts  --      1.1973                 1.2803                 1.1001
 IR Inten    --      1.5540                 1.6394                 9.9494

                     34                     35                     36
                      A                      A                      A
 Frequencies --   1004.3953              1031.9167              1049.7496
 Red. masses --      1.7079                 2.2236                 1.9002
 Frc consts  --      1.0151                 1.3951                 1.2337
 IR Inten    --      8.5977                 6.7176                 9.7721

                     37                     38                     39
                      A                      A                      A
 Frequencies --   1054.3297              1092.2993              1109.5256
 Red. masses --      1.9388                 1.9035                 2.4207
 Frc consts  --      1.2698                 1.3381                 1.7557
 IR Inten    --     11.8520                16.3335                10.7297

                     40                     41                     42
                      A                      A                      A
 Frequencies --   1135.3911              1140.1495              1169.1974
 Red. masses --      2.0410                 2.5152                 1.7142
 Frc consts  --      1.5502                 1.9264                 1.3806
 IR Inten    --     74.2579                 1.4592                68.8082

                     43                     44                     45
                      A                      A                      A
 Frequencies --   1195.0765              1205.6843              1223.3406
 Red. masses --      2.2627                 1.6421                 1.6454
 Frc consts  --      1.9040                 1.4064                 1.4508
 IR Inten    --     99.1915                35.2274                42.3708

                     46                     47                     48
                      A                      A                      A
 Frequencies --   1234.4459              1251.4490              1266.2880
 Red. masses --      1.7506                 1.8730                 1.4901
 Frc consts  --      1.5718                 1.7283                 1.4078
 IR Inten    --     36.4983                33.9058                38.5429

                     49                     50                     51
                      A                      A                      A
 Frequencies --   1314.6908              1341.8614              1352.6224
 Red. masses --      1.9836                 1.2774                 1.4350
 Frc consts  --      2.0200                 1.3552                 1.5469
 IR Inten    --     13.2352                 8.9087                10.2349

                     52                     53                     54
                      A                      A                      A
 Frequencies --   1375.0234              1383.4751              1390.6249
 Red. masses --      1.3210                 2.4305                 1.3531
 Frc consts  --      1.4715                 2.7409                 1.5417
 IR Inten    --      6.3390                45.6655                 7.4015

                     55                     56                     57
                      A                      A                      A
 Frequencies --   1401.9981              1410.4358              1419.5056
 Red. masses --      1.4362                 1.5247                 1.4733
 Frc consts  --      1.6633                 1.7870                 1.7491
 IR Inten    --     11.6255                44.2843                13.4815

                     58                     59                     60
                      A                      A                      A
 Frequencies --   1433.0051              1484.5481              1495.8887
 Red. masses --      1.4583                 1.1873                 1.0662
 Frc consts  --      1.7643                 1.5417                 1.4057
 IR Inten    --     35.9221                 0.5391                14.2667

                     61                     62                     63
                      A                      A                      A
 Frequencies --   1499.0841              1506.9313              1515.3562
 Red. masses --      1.0753                 1.0543                 1.0624
 Frc consts  --      1.4238                 1.4106                 1.4373
 IR Inten    --      4.8179                 8.0483                30.0715

                     64                     65                     66
                      A                      A                      A
 Frequencies --   1518.1006              1520.9186              1527.8261
 Red. masses --      1.0757                 1.0812                 1.0918
 Frc consts  --      1.4606                 1.4736                 1.5015
 IR Inten    --      2.2052                 2.0273                 4.0377

                     67                     68                     69
                      A                      A                      A
 Frequencies --   1537.8434              1543.0913              1807.0294
 Red. masses --      1.0529                 1.1052                 9.8210
 Frc consts  --      1.4671                 1.5505                18.8945
 IR Inten    --      3.8054                 7.1024               126.9559

                     70                     71                     72
                      A                      A                      A
 Frequencies --   1823.1519              2905.1364              2941.7283
 Red. masses --      9.8551                 1.0732                 1.0616
 Frc consts  --     19.3000                 5.3365                 5.4129
 IR Inten    --    267.3309                59.7797                87.4330

                     73                     74                     75
                      A                      A                      A
 Frequencies --   2961.4812              3051.5846              3060.5652
 Red. masses --      1.0699                 1.0385                 1.0631
 Frc consts  --      5.5287                 5.6977                 5.8671
 IR Inten    --     77.2422                 3.4759                18.5815

                     76                     77                     78
                      A                      A                      A
 Frequencies --   3067.2184              3069.0513              3075.8019
 Red. masses --      1.0821                 1.0764                 1.0630
 Frc consts  --      5.9979                 5.9736                 5.9253
 IR Inten    --     16.4901                17.3612                18.9118

                     79                     80                     81
                      A                      A                      A
 Frequencies --   3076.8584              3080.7145              3102.6294
 Red. masses --      1.0776                 1.0771                 1.1016
 Frc consts  --      6.0105                 6.0227                 6.2476
 IR Inten    --     24.6101                61.1228                48.4135

                     82                     83                     84
                      A                      A                      A
 Frequencies --   3115.4359              3118.3800              3122.9847
 Red. masses --      1.1018                 1.0970                 1.1041
 Frc consts  --      6.3007                 6.2854                 6.3445
 IR Inten    --     10.7723                 6.4206                32.4583

                     85                     86                     87
                      A                      A                      A
 Frequencies --   3157.5632              3167.7789              3683.4718
 Red. masses --      1.0956                 1.1035                 1.0640
 Frc consts  --      6.4358                 6.5242                 8.5060
 IR Inten    --      2.5032                14.9339                56.0934

 - Thermochemistry -
 -------------------
 Temperature   298.150 Kelvin.  Pressure   1.00000 Atm.
 Atom     1 has atomic number  6 and mass  12.00000

 Molecular mass:   199.12084 amu.
 Principal axes and moments of inertia in atomic units:
                           1         2         3
     Eigenvalues --  1910.328583458.936863999.75367
           X            0.99993  -0.00685  -0.00954
           Y            0.00702   0.99981   0.01791
           Z            0.00941  -0.01798   0.99979
 This molecule is an asymmetric top.
 Rotational symmetry number  1.
 Warning -- assumption of classical behavior for rotation
           may cause significant error
 Rotational temperatures (Kelvin)      0.04534     0.02504     0.02165
 Rotational constants (GHZ):           0.94473     0.52176     0.45121
 Zero-point vibrational energy     706557.8 (Joules/Mol)
                                  168.87137 (Kcal/Mol)
 Warning -- explicit consideration of  22 degrees of freedom as
           vibrations may cause significant error
 Vibrational temperatures:     26.85    85.20   110.81   146.06   188.47
          (Kelvin)            224.65   246.17   299.04   355.34   368.29
                              376.98   452.69   493.44   519.44   546.56
                              565.51   610.62   664.78   699.55   755.21
                              775.79   884.42   917.72   950.25  1071.73
                             1105.64  1163.11  1209.30  1259.79  1298.36
                             1336.42  1356.75  1383.74  1445.10  1484.70
                             1510.36  1516.95  1571.58  1596.36  1633.57
                             1640.42  1682.21  1719.45  1734.71  1760.11
                             1776.09  1800.56  1821.91  1891.55  1930.64
                             1946.12  1978.35  1990.51  2000.80  2017.16
                             2029.30  2042.35  2061.77  2135.93  2152.25
                             2156.85  2168.14  2180.26  2184.21  2188.26
                             2198.20  2212.61  2220.16  2599.91  2623.11
                             4179.84  4232.49  4260.91  4390.55  4403.47
                             4413.04  4415.68  4425.39  4426.91  4432.46
                             4463.99  4482.42  4486.65  4493.28  4543.03
                             4557.73  5299.69

 Zero-point correction=                           0.269114 (Hartree/Particle)
 Thermal correction to Energy=                    0.283483
 Thermal correction to Enthalpy=                  0.284427
 Thermal correction to Gibbs Free Energy=         0.227333
 Sum of electronic and zero-point Energies=           -671.522923
 Sum of electronic and thermal Energies=              -671.508554
 Sum of electronic and thermal Enthalpies=            -671.507610
 Sum of electronic and thermal Free Energies=         -671.564704

                     E (Thermal)             CV                S
                      KCal/Mol        Cal/Mol-Kelvin    Cal/Mol-Kelvin
 Total                  177.888             54.350            120.165
 Electronic               0.000              0.000              0.000
 Translational            0.889              2.981             41.771
 Rotational               0.889              2.981             31.647
 Vibrational            176.111             48.389             46.747
 Vibration     1          0.593              1.986              6.772
 Vibration     2          0.597              1.974              4.483
 Vibration     3          0.599              1.964              3.966
 Vibration     4          0.604              1.948              3.425
 Vibration     5          0.612              1.922              2.931
 Vibration     6          0.620              1.896              2.596
 Vibration     7          0.626              1.878              2.423
 Vibration     8          0.641              1.829              2.063
 Vibration     9          0.661              1.768              1.752
 Vibration    10          0.666              1.753              1.689
 Vibration    11          0.669              1.742              1.648
 Vibration    12          0.702              1.646              1.338
 Vibration    13          0.722              1.590              1.198
 Vibration    14          0.735              1.553              1.118
 Vibration    15          0.750              1.513              1.040
 Vibration    16          0.760              1.485              0.989
 Vibration    17          0.786              1.417              0.877
 Vibration    18          0.820              1.334              0.760
 Vibration    19          0.842              1.281              0.694
 Vibration    20          0.880              1.195              0.599
 Vibration    21          0.894              1.163              0.567
 Vibration    22          0.974              1.001              0.425

 Optimization completed.
    -- Stationary point found.
 Normal termination of Gaussian 16 at Thu Dec 10 09:56:14 2020.

 ----------------------------------------------------------------------
 # B3LYP/6-311++G(d,p) empiricaldispersion=gd3bj scf=xqc pop=npa geom=c
 heck
 ----------------------------------------------------------------------

 ---------------------------------------
 CID_115021690_JID_4269_Energie_neutraal
 ---------------------------------------
 Structure from the checkpoint file:  "JID_4269.chk"
 Charge =  0 Multiplicity = 1

 SCF Done:  E(RB3LYP) =  -671.992991266     A.U. after   14 cycles
 Normal termination of Gaussian 16 at Thu Dec 10 10:00:35 2020.

 ----------------------------------------------------------------------
 # B3LYP/6-311++G(d,p) empiricaldispersion=gd3bj scf=xqc pop=npa geom=c
 heck
 ----------------------------------------------------------------------

 -------------------------------------
 CID_115021690_JID_4269_Energie_kation
 -------------------------------------
 Structure from the checkpoint file:  "JID_4269.chk"
 Charge =  1 Multiplicity = 2

 SCF Done:  E(UB3LYP) =  -671.691413735     A.U. after   24 cycles
 Normal termination of Gaussian 16 at Thu Dec 10 10:12:06 2020.
 Gaussian 16:  ES64L-G16RevA.03 25-Dec-2016

 ----------------------------------------------------------------------
 # B3LYP/6-311++G(d,p) empiricaldispersion=gd3bj scf=xqc pop=npa geom=c
 heck
 ----------------------------------------------------------------------

 ------------------------------------
 CID_115021690_JID_4269_Energie_anion
 ------------------------------------
 Structure from the checkpoint file:  "JID_4269.chk"
 Charge = -1 Multiplicity = 2

                         Standard orientation:
 ---------------------------------------------------------------------
 Center     Atomic      Atomic             Coordinates (Angstroms)
 Number     Number       Type             X           Y           Z
 ---------------------------------------------------------------------
      1          6           0        3.261075   -1.253722   -1.128166
      2          6           0        2.109910   -1.155727   -0.151155
      3          8           0        2.238580   -1.456191    1.023289
      4          6           0        0.774095   -0.704467   -0.730071
      5          6           0        0.026064    0.394669    0.055088
      6          6           0       -0.322450    0.007399    1.518000
      7          6           0       -1.333902   -1.140128    1.554709
      8          6           0       -2.564144   -0.823927    0.703869
      9          7           0       -2.178967   -0.468370   -0.661857
     10          6           0       -1.307783    0.701012   -0.675196
     11          6           0       -3.340633   -0.271753   -1.513415
     12          6           0        0.896128    1.642821    0.056486
     13          8           0        2.017234    1.723200   -0.402873
     14          8           0        0.289951    2.706939    0.637051
     15          1           0        4.134108   -1.690378   -0.639448
     16          1           0        3.496486   -0.245859   -1.487928
     17          1           0        2.978955   -1.856458   -2.000661
     18          1           0        0.923072   -0.354687   -1.756463
     19          1           0        0.119125   -1.579963   -0.792868
     20          1           0       -0.755701    0.889772    2.002800
     21          1           0        0.585554   -0.268724    2.054760
     22          1           0       -1.644600   -1.321707    2.590173
     23          1           0       -0.864376   -2.063262    1.197579
     24          1           0       -3.139659   -0.001198    1.177889
     25          1           0       -3.228530   -1.694234    0.655054
     26          1           0       -1.105430    0.967265   -1.719638
     27          1           0       -1.787341    1.575536   -0.198195
     28          1           0       -3.986795    0.563910   -1.180399
     29          1           0       -3.017208   -0.063793   -2.538944
     30          1           0       -3.945649   -1.184472   -1.523322
     31          1           0        0.934471    3.438194    0.591989
 ---------------------------------------------------------------------

 SCF Done:  E(UB3LYP) =  -671.979818281     A.U. after   33 cycles
 SCF Done:  E(UB3LYP) =  -671.979818281     a.u. after    1 cycles

 The electronic state is 2-A.
 Alpha  occ. eigenvalues --  -19.07221 -19.02176 -19.01549 -14.21053 -10.21002
 Alpha  occ. eigenvalues --  -10.16752 -10.10772 -10.10007 -10.09464 -10.08792
 Alpha  occ. eigenvalues --  -10.07879 -10.07629 -10.07089 -10.06979  -1.01523
 Alpha  occ. eigenvalues --   -0.94853  -0.92523  -0.83778  -0.73372  -0.68062
 Alpha  occ. eigenvalues --   -0.66073  -0.60721  -0.59872  -0.56964  -0.52590
 Alpha  occ. eigenvalues --   -0.49529  -0.46331  -0.43374  -0.41376  -0.39717
 Alpha  occ. eigenvalues --   -0.38183  -0.37955  -0.37248  -0.35590  -0.35429
 Alpha  occ. eigenvalues --   -0.34716  -0.33694  -0.33323  -0.31882  -0.30686
 Alpha  occ. eigenvalues --   -0.30325  -0.30115  -0.28655  -0.28506  -0.26659
 Alpha  occ. eigenvalues --   -0.26301  -0.25089  -0.24060  -0.23721  -0.22851
 Alpha  occ. eigenvalues --   -0.22221  -0.18572  -0.15407  -0.12680   0.04370
 Alpha virt. eigenvalues --    0.06302   0.06648   0.07277   0.07508   0.08893
 Alpha virt. eigenvalues --    0.08950   0.09118   0.10123   0.10433   0.10754
 Alpha virt. eigenvalues --    0.11518   0.11903   0.12444   0.12740   0.13443

  Beta  occ. eigenvalues --  -19.07165 -19.02156 -19.01540 -14.21040 -10.20994
  Beta  occ. eigenvalues --  -10.16743 -10.10765 -10.09983 -10.09444 -10.08756
  Beta  occ. eigenvalues --  -10.07868 -10.07613 -10.07079 -10.06973  -1.01449
  Beta  occ. eigenvalues --   -0.94835  -0.92459  -0.83750  -0.73345  -0.68036
  Beta  occ. eigenvalues --   -0.66040  -0.60686  -0.59819  -0.56892  -0.52537
  Beta  occ. eigenvalues --   -0.49442  -0.46285  -0.43322  -0.41329  -0.39679
  Beta  occ. eigenvalues --   -0.38150  -0.37920  -0.37215  -0.35556  -0.35392
  Beta  occ. eigenvalues --   -0.34675  -0.33653  -0.33290  -0.31852  -0.30642
  Beta  occ. eigenvalues --   -0.30291  -0.30088  -0.28628  -0.28476  -0.26623
  Beta  occ. eigenvalues --   -0.26271  -0.25056  -0.24025  -0.23692  -0.22798
  Beta  occ. eigenvalues --   -0.22188  -0.18529  -0.15395  -0.12608
  Beta virt. eigenvalues --    0.06572   0.07097   0.07415   0.07834   0.08077
  Beta virt. eigenvalues --    0.08998   0.09439   0.09762   0.10370   0.10680
  Beta virt. eigenvalues --    0.11093   0.11754   0.12203   0.12763   0.12854

 Mulliken charges and spin densities:
               1          2
     1  C    0.504267  -1.243782
     2  C   -1.154046   1.362112
     3  O   -0.266403   0.011073
     4  C    0.259988  -0.796786
     5  C    0.785768  -0.202692
     6  C    0.140574  -0.504690
     7  C   -0.528229   0.092296
     8  C    0.349986  -0.675605
     9  N   -0.180911   0.334779
    10  C    0.010317  -0.646818
    11  C    0.684309  -0.945040
    12  C    0.128241  -0.170942
    13  O   -0.265136   0.021910
    14  O   -0.191783   0.082758
    15  H    0.007329   0.146763
    16  H    0.138126   0.054721
    17  H   -0.166147   0.317450
    18  H    0.044225   0.179723
    19  H    0.204688  -0.011276
    20  H   -0.014703   0.196276
    21  H    0.157485   0.070243
    22  H   -0.104373   0.277009
    23  H    0.111675   0.054019
    24  H   -0.007664   0.120497
    25  H   -0.200761   0.371031
    26  H   -0.171557   0.367348
    27  H    0.186518  -0.025652
    28  H   -0.189615   0.303859
    29  H   -0.423640   0.561487
    30  H   -0.358999   0.500073
    31  H   -0.489529   0.797856
 Sum of Mulliken charges =  -1.00000   1.00000

 Dipole moment (field-independent basis, Debye):
    X=              2.0492    Y=             -2.6457    Z=              1.3437  Tot=              3.6062
 Quadrupole moment (field-independent basis, Debye-Ang):
   XX=           -146.6172   YY=           -136.7435   ZZ=           -124.8511
   XY=             -5.2794   XZ=             -8.1377   YZ=             -1.9451

 Summary of Natural Population Analysis:

                                       Natural Population
                Natural  -----------------------------------------------
    Atom  No    Charge         Core      Valence    Rydberg      Total
 -----------------------------------------------------------------------
      C    1   -0.33333      0.99961     2.32925    0.00448     3.33333
      C    2    0.30546      0.99968     1.67413    0.02073     2.69454
      O    3   -0.29576      0.99987     3.28959    0.00631     4.29576
      C    4   -0.24291      0.99954     2.23082    0.01254     3.24291
      C    5   -0.07754      0.99951     2.06277    0.01526     3.07754
      C    6   -0.19180      0.99959     2.18256    0.00966     3.19180
      C    7   -0.19363      0.99962     2.18583    0.00818     3.19363
      C    8   -0.08201      0.99961     2.07144    0.01097     3.08201
      N    9   -0.28350      0.99971     2.77065    0.01314     3.78350
      C   10   -0.08027      0.99957     2.06731    0.01339     3.08027
      C   11   -0.17360      0.99964     2.16533    0.00863     3.17360
      C   12    0.42000      0.99962     1.55427    0.02612     2.58000
      O   13   -0.31016      0.99987     3.30416    0.00613     4.31016
      O   14   -0.34260      0.99987     3.33558    0.00715     4.34260
      H   15    0.10548      0.00000     0.39336    0.00115     0.39452
      H   16    0.12059      0.00000     0.37821    0.00121     0.37941
      H   17    0.10695      0.00000     0.39177    0.00127     0.39305
      H   18    0.10952      0.00000     0.38913    0.00134     0.39048
      H   19    0.12448      0.00000     0.37361    0.00191     0.37552
      H   20    0.10409      0.00000     0.39442    0.00150     0.39591
      H   21    0.11777      0.00000     0.38109    0.00114     0.38223
      H   22    0.10077      0.00000     0.39846    0.00077     0.39923
      H   23    0.09854      0.00000     0.40011    0.00135     0.40146
      H   24    0.07879      0.00000     0.41963    0.00158     0.42121
      H   25    0.09806      0.00000     0.40063    0.00131     0.40194
      H   26    0.10185      0.00000     0.39635    0.00180     0.39815
      H   27    0.09414      0.00000     0.40364    0.00222     0.40586
      H   28    0.08083      0.00000     0.41772    0.00145     0.41917
      H   29    0.09767      0.00000     0.40079    0.00155     0.40233
      H   30    0.09682      0.00000     0.40164    0.00154     0.40318
      H   31    0.24531      0.00000     0.23761    0.01708     0.25469
 =======================================================================
   * Total *   -0.00000     13.99531    39.80184    0.20284    54.00000

 Normal termination of Gaussian 16 at Thu Dec 10 10:26:45 2020.
