 Gaussian 16, Revision A.03,

 -----------------------------------------------------------
 # opt freq B3LYP/6-31G(d) empiricaldispersion=gd3bj scf=xqc
 -----------------------------------------------------------

 ------------------------------
 CID_43269056_JID_7002_neutraal
 ------------------------------
 Symbolic Z-matrix:
 Charge =  0 Multiplicity = 1

 SCF Done:  E(RB3LYP) =  -785.912812464     A.U. after   14 cycles
 SCF Done:  E(RB3LYP) =  -785.919097450     A.U. after   13 cycles
 SCF Done:  E(RB3LYP) =  -785.918831785     A.U. after   13 cycles
 SCF Done:  E(RB3LYP) =  -785.919792645     A.U. after   12 cycles
 SCF Done:  E(RB3LYP) =  -785.920395125     A.U. after   11 cycles
 SCF Done:  E(RB3LYP) =  -785.920205183     A.U. after   11 cycles
 SCF Done:  E(RB3LYP) =  -785.920483382     A.U. after   12 cycles
 SCF Done:  E(RB3LYP) =  -785.920502860     A.U. after   11 cycles
 SCF Done:  E(RB3LYP) =  -785.920499064     A.U. after   11 cycles
 SCF Done:  E(RB3LYP) =  -785.920516695     A.U. after   10 cycles
 SCF Done:  E(RB3LYP) =  -785.920521913     A.U. after   10 cycles
 SCF Done:  E(RB3LYP) =  -785.920522496     A.U. after    8 cycles
 SCF Done:  E(RB3LYP) =  -785.920522613     A.U. after    8 cycles
 Optimization completed.
    -- Stationary point found.
 Normal termination of Gaussian 16 at Fri Dec 11 11:49:59 2020.

 --------------------------------------------------------------------
 #N Geom=AllCheck Guess=TCheck SCRF=Check GenChk RB3LYP/6-31G(d) Freq
 --------------------------------------------------------------------

 Structure from the checkpoint file:  "JID_7002.chk"
 ------------------------------
 CID_43269056_JID_7002_neutraal
 ------------------------------
 Charge =  0 Multiplicity = 1

 SCF Done:  E(RB3LYP) =  -785.920522613     A.U. after    1 cycles

  Exact polarizability: 169.529  -0.265 147.298   6.775   4.101 128.742
 Approx polarizability: 215.001   4.152 218.888   8.742  12.264 203.245

                      1                      2                      3
                      A                      A                      A
 Frequencies --     34.3931                47.9905                54.5291
 Red. masses --      3.9394                 3.2919                 3.7111
 Frc consts  --      0.0027                 0.0045                 0.0065
 IR Inten    --      2.4854                 0.3202                 0.7117

                      4                      5                      6
                      A                      A                      A
 Frequencies --     61.9222                77.4774                91.5305
 Red. masses --      4.4085                 3.8127                 2.8204
 Frc consts  --      0.0100                 0.0135                 0.0139
 IR Inten    --      1.4604                 2.0084                 0.3104

                      7                      8                      9
                      A                      A                      A
 Frequencies --    115.0504               128.5141               146.0603
 Red. masses --      3.4217                 2.4849                 2.1630
 Frc consts  --      0.0267                 0.0242                 0.0272
 IR Inten    --      1.2729                 0.6125                 0.2396

                     10                     11                     12
                      A                      A                      A
 Frequencies --    155.3270               201.4733               224.1452
 Red. masses --      2.0538                 2.9491                 1.6707
 Frc consts  --      0.0292                 0.0705                 0.0495
 IR Inten    --      0.5714                 3.8832                 1.9069

                     13                     14                     15
                      A                      A                      A
 Frequencies --    234.8084               254.5561               278.0113
 Red. masses --      1.2481                 3.4239                 3.0093
 Frc consts  --      0.0405                 0.1307                 0.1370
 IR Inten    --      0.2211                 2.5810                 3.6603

                     16                     17                     18
                      A                      A                      A
 Frequencies --    284.5077               334.0997               345.6720
 Red. masses --      2.4015                 3.5798                 2.5536
 Frc consts  --      0.1145                 0.2354                 0.1798
 IR Inten    --      1.1221                21.3388                 7.9933

                     19                     20                     21
                      A                      A                      A
 Frequencies --    355.9724               377.7699               401.5603
 Red. masses --      3.6386                 3.6368                 2.9217
 Frc consts  --      0.2717                 0.3058                 0.2776
 IR Inten    --      3.6385                 5.5957                 9.7254

                     22                     23                     24
                      A                      A                      A
 Frequencies --    416.2924               436.2273               458.0812
 Red. masses --      2.6435                 2.2266                 2.3275
 Frc consts  --      0.2699                 0.2496                 0.2878
 IR Inten    --      6.7678                 3.0315                 3.1179

                     25                     26                     27
                      A                      A                      A
 Frequencies --    529.5266               555.2235               567.5892
 Red. masses --      2.8393                 1.6317                 2.8078
 Frc consts  --      0.4691                 0.2964                 0.5329
 IR Inten    --      9.3042                 8.4165                10.7729

                     28                     29                     30
                      A                      A                      A
 Frequencies --    649.3217               678.6486               697.0733
 Red. masses --      3.6100                 2.6309                 2.1759
 Frc consts  --      0.8968                 0.7139                 0.6229
 IR Inten    --      7.0657                20.8583               124.3173

                     31                     32                     33
                      A                      A                      A
 Frequencies --    753.1438               760.3457               768.6829
 Red. masses --      3.1978                 2.2034                 1.5702
 Frc consts  --      1.0687                 0.7505                 0.5467
 IR Inten    --     12.5284                23.4592                11.1450

                     34                     35                     36
                      A                      A                      A
 Frequencies --    789.2574               812.0090               838.4476
 Red. masses --      2.2311                 1.3962                 2.7310
 Frc consts  --      0.8188                 0.5424                 1.1311
 IR Inten    --     14.7514                13.3163                12.0492

                     37                     38                     39
                      A                      A                      A
 Frequencies --    864.5433               871.6010               883.7475
 Red. masses --      2.7758                 2.3458                 2.0094
 Frc consts  --      1.2224                 1.0500                 0.9247
 IR Inten    --      4.9252                 3.3747                 4.3698

                     40                     41                     42
                      A                      A                      A
 Frequencies --    921.1286               953.7547               964.5812
 Red. masses --      1.7877                 2.1901                 1.8258
 Frc consts  --      0.8937                 1.1738                 1.0009
 IR Inten    --     20.2546                 5.0011                14.2427

                     43                     44                     45
                      A                      A                      A
 Frequencies --    975.5353               994.4435              1035.5856
 Red. masses --      2.1039                 1.9546                 2.7002
 Frc consts  --      1.1797                 1.1389                 1.7062
 IR Inten    --      5.2855                12.4704                 0.5999

                     46                     47                     48
                      A                      A                      A
 Frequencies --   1062.5054              1070.0947              1085.3768
 Red. masses --      2.1240                 2.5493                 1.9210
 Frc consts  --      1.4127                 1.7199                 1.3333
 IR Inten    --      0.4939                 9.7567                19.0031

                     49                     50                     51
                      A                      A                      A
 Frequencies --   1110.3581              1122.7953              1135.1660
 Red. masses --      1.9300                 1.8534                 1.7124
 Frc consts  --      1.4020                 1.3767                 1.3001
 IR Inten    --      6.5990                 2.1871                11.9867

                     52                     53                     54
                      A                      A                      A
 Frequencies --   1148.7263              1162.6348              1189.6921
 Red. masses --      1.8367                 2.1102                 3.0938
 Frc consts  --      1.4280                 1.6806                 2.5799
 IR Inten    --      7.8539                71.2856                52.7122

                     55                     56                     57
                      A                      A                      A
 Frequencies --   1220.2778              1240.3451              1248.5012
 Red. masses --      2.0924                 2.3214                 1.6631
 Frc consts  --      1.8357                 2.1042                 1.5274
 IR Inten    --     10.5813                10.8447                50.2645

                     58                     59                     60
                      A                      A                      A
 Frequencies --   1275.1648              1299.2214              1314.9080
 Red. masses --      1.4822                 1.3913                 1.2193
 Frc consts  --      1.4200                 1.3837                 1.2421
 IR Inten    --     66.9743                50.1632                 0.3178

                     61                     62                     63
                      A                      A                      A
 Frequencies --   1324.8352              1336.4348              1340.7863
 Red. masses --      1.3711                 1.4485                 1.4457
 Frc consts  --      1.4179                 1.5243                 1.5313
 IR Inten    --     15.5861                30.1567                 1.9626

                     64                     65                     66
                      A                      A                      A
 Frequencies --   1348.2609              1384.2800              1393.0136
 Red. masses --      1.2402                 1.3092                 1.3459
 Frc consts  --      1.3282                 1.4781                 1.5388
 IR Inten    --      2.4630                 9.9579                 6.6756

                     67                     68                     69
                      A                      A                      A
 Frequencies --   1395.1997              1403.0980              1405.8387
 Red. masses --      1.3244                 1.3438                 1.2240
 Frc consts  --      1.5189                 1.5586                 1.4253
 IR Inten    --     17.1471                 5.0887                13.1742

                     70                     71                     72
                      A                      A                      A
 Frequencies --   1421.1755              1422.7146              1432.0817
 Red. masses --      1.3250                 1.3238                 1.3421
 Frc consts  --      1.5768                 1.5787                 1.6217
 IR Inten    --      9.6424                 9.0313                16.9929

                     73                     74                     75
                      A                      A                      A
 Frequencies --   1437.4546              1447.4112              1472.7687
 Red. masses --      1.2650                 1.2641                 1.9745
 Frc consts  --      1.5401                 1.5603                 2.5233
 IR Inten    --     21.6960                 4.1538               117.7793

                     76                     77                     78
                      A                      A                      A
 Frequencies --   1494.1930              1501.4184              1504.8805
 Red. masses --      1.3316                 1.1915                 1.0973
 Frc consts  --      1.7516                 1.5825                 1.4641
 IR Inten    --     59.1805                11.9662                 8.2704

                     79                     80                     81
                      A                      A                      A
 Frequencies --   1508.0722              1510.4748              1512.9333
 Red. masses --      1.2165                 1.1321                 1.1135
 Frc consts  --      1.6301                 1.5218                 1.5017
 IR Inten    --      5.3281                10.3445                 1.3995

                     82                     83                     84
                      A                      A                      A
 Frequencies --   1517.9674              1521.5417              1524.6949
 Red. masses --      1.1838                 1.0965                 1.0959
 Frc consts  --      1.6072                 1.4956                 1.5010
 IR Inten    --      4.9955                 5.9797                 2.1853

                     85                     86                     87
                      A                      A                      A
 Frequencies --   1526.2831              1531.6699              1535.1409
 Red. masses --      1.0735                 1.0861                 1.1602
 Frc consts  --      1.4734                 1.5012                 1.6109
 IR Inten    --      9.7751                15.8442                 4.0932

                     88                     89                     90
                      A                      A                      A
 Frequencies --   1543.3901              1545.7387              1732.2128
 Red. masses --      1.0784                 1.3065                10.8306
 Frc consts  --      1.5135                 1.8392                19.1472
 IR Inten    --      3.7500                22.6364               416.2746

                     91                     92                     93
                      A                      A                      A
 Frequencies --   1739.1368              3032.3236              3032.7308
 Red. masses --     10.1933                 1.0622                 1.0624
 Frc consts  --     18.1650                 5.7544                 5.7572
 IR Inten    --    177.1680                 9.3242                34.8324

                     94                     95                     96
                      A                      A                      A
 Frequencies --   3042.7499              3046.4412              3047.2986
 Red. masses --      1.0608                 1.0671                 1.0658
 Frc consts  --      5.7865                 5.8349                 5.8310
 IR Inten    --     75.7179                33.1647                22.1905

                     97                     98                     99
                      A                      A                      A
 Frequencies --   3057.9812              3060.1513              3060.7065
 Red. masses --      1.0401                 1.0751                 1.0381
 Frc consts  --      5.7305                 5.9316                 5.7298
 IR Inten    --     10.9588                18.8446                27.3946

                    100                    101                    102
                      A                      A                      A
 Frequencies --   3065.8905              3066.5025              3073.7733
 Red. masses --      1.0951                 1.0838                 1.0727
 Frc consts  --      6.0649                 6.0047                 5.9713
 IR Inten    --     10.1247                32.6041                59.4147

                    103                    104                    105
                      A                      A                      A
 Frequencies --   3080.6968              3090.4099              3095.5844
 Red. masses --      1.0807                 1.0980                 1.0987
 Frc consts  --      6.0429                 6.1783                 6.2034
 IR Inten    --     14.7917                29.2964               106.0837

                    106                    107                    108
                      A                      A                      A
 Frequencies --   3114.5082              3126.0071              3130.8038
 Red. masses --      1.1003                 1.1013                 1.0971
 Frc consts  --      6.2884                 6.3406                 6.3360
 IR Inten    --     10.3179                37.5150                41.3712

                    109                    110                    111
                      A                      A                      A
 Frequencies --   3137.7281              3141.5461              3143.2739
 Red. masses --      1.1014                 1.0962                 1.0988
 Frc consts  --      6.3888                 6.3741                 6.3967
 IR Inten    --     27.8830                 7.3768                14.9526

                    112                    113                    114
                      A                      A                      A
 Frequencies --   3150.0696              3166.7502              3504.4503
 Red. masses --      1.0978                 1.1016                 1.0738
 Frc consts  --      6.4183                 6.5091                 7.7697
 IR Inten    --      3.8348                 7.3935                 0.7981

 - Thermochemistry -
 -------------------
 Temperature   298.150 Kelvin.  Pressure   1.00000 Atm.
 Atom     1 has atomic number  6 and mass  12.00000

 Molecular mass:   241.17903 amu.
 Principal axes and moments of inertia in atomic units:
                           1         2         3
     Eigenvalues --  2640.500305369.396526042.63558
           X            0.99992  -0.00434   0.01208
           Y            0.00377   0.99887   0.04744
           Z           -0.01228  -0.04739   0.99880
 This molecule is an asymmetric top.
 Rotational symmetry number  1.
 Warning -- assumption of classical behavior for rotation
           may cause significant error
 Rotational temperatures (Kelvin)      0.03280     0.01613     0.01433
 Rotational constants (GHZ):           0.68348     0.33612     0.29867
 Zero-point vibrational energy     940560.3 (Joules/Mol)
                                  224.79932 (Kcal/Mol)
 Warning -- explicit consideration of  27 degrees of freedom as
           vibrations may cause significant error
 Vibrational temperatures:     49.48    69.05    78.46    89.09   111.47
          (Kelvin)            131.69   165.53   184.90   210.15   223.48
                              289.88   322.49   337.84   366.25   400.00
                              409.34   480.69   497.34   512.16   543.53
                              577.76   598.95   627.63   659.08   761.87
                              798.84   816.63   934.23   976.42  1002.93
                             1083.61  1093.97  1105.96  1135.57  1168.30
                             1206.34  1243.89  1254.04  1271.52  1325.30
                             1372.24  1387.82  1403.58  1430.78  1489.98
                             1528.71  1539.63  1561.62  1597.56  1615.45
                             1633.25  1652.76  1672.77  1711.70  1755.71
                             1784.58  1796.31  1834.68  1869.29  1891.86
                             1906.14  1922.83  1929.09  1939.85  1991.67
                             2004.24  2007.38  2018.75  2022.69  2044.75
                             2046.97  2060.45  2068.18  2082.50  2118.99
                             2149.81  2160.21  2165.19  2169.78  2173.24
                             2176.77  2184.02  2189.16  2193.70  2195.98
                             2203.73  2208.73  2220.59  2223.97  2492.27
                             2502.23  4362.84  4363.42  4377.84  4383.15
                             4384.38  4399.75  4402.88  4403.67  4411.13
                             4412.01  4422.47  4432.44  4446.41  4453.86
                             4481.08  4497.63  4504.53  4514.49  4519.98
                             4522.47  4532.25  4556.25  5042.12

 Zero-point correction=                           0.358241 (Hartree/Particle)
 Thermal correction to Energy=                    0.376471
 Thermal correction to Enthalpy=                  0.377415
 Thermal correction to Gibbs Free Energy=         0.311540
 Sum of electronic and zero-point Energies=           -785.562282
 Sum of electronic and thermal Energies=              -785.544052
 Sum of electronic and thermal Enthalpies=            -785.543108
 Sum of electronic and thermal Free Energies=         -785.608983

                     E (Thermal)             CV                S
                      KCal/Mol        Cal/Mol-Kelvin    Cal/Mol-Kelvin
 Total                  236.239             68.156            138.645
 Electronic               0.000              0.000              0.000
 Translational            0.889              2.981             42.342
 Rotational               0.889              2.981             32.816
 Vibrational            234.461             62.194             63.488
 Vibration     1          0.594              1.983              5.558
 Vibration     2          0.595              1.978              4.899
 Vibration     3          0.596              1.976              4.646
 Vibration     4          0.597              1.972              4.395
 Vibration     5          0.599              1.964              3.954
 Vibration     6          0.602              1.955              3.627
 Vibration     7          0.608              1.937              3.182
 Vibration     8          0.611              1.925              2.968
 Vibration     9          0.617              1.907              2.723
 Vibration    10          0.620              1.897              2.606
 Vibration    11          0.638              1.838              2.120
 Vibration    12          0.649              1.804              1.925
 Vibration    13          0.655              1.788              1.842
 Vibration    14          0.665              1.755              1.699
 Vibration    15          0.679              1.714              1.546
 Vibration    16          0.683              1.702              1.506
 Vibration    17          0.716              1.607              1.240
 Vibration    18          0.724              1.584              1.186
 Vibration    19          0.731              1.563              1.140
 Vibration    20          0.748              1.518              1.048
 Vibration    21          0.767              1.467              0.957
 Vibration    22          0.780              1.435              0.905
 Vibration    23          0.797              1.391              0.839
 Vibration    24          0.816              1.343              0.772
 Vibration    25          0.884              1.185              0.588
 Vibration    26          0.911              1.128              0.533
 Vibration    27          0.924              1.101              0.509

                           ! Non-Optimized Parameters !
 Normal termination of Gaussian 16 at Fri Dec 11 12:07:14 2020.

 ----------------------------------------------------------------------
 # B3LYP/6-311++G(d,p) empiricaldispersion=gd3bj scf=xqc pop=npa geom=c
 heck
 ----------------------------------------------------------------------

 --------------------------------------
 CID_43269056_JID_7002_Energie_neutraal
 --------------------------------------
 Structure from the checkpoint file:  "JID_7002.chk"
 Charge =  0 Multiplicity = 1

 SCF Done:  E(RB3LYP) =  -786.146049637     A.U. after   16 cycles
 Normal termination of Gaussian 16 at Fri Dec 11 12:16:48 2020.

 ----------------------------------------------------------------------
 # B3LYP/6-311++G(d,p) empiricaldispersion=gd3bj scf=xqc pop=npa geom=c
 heck
 ----------------------------------------------------------------------

 ------------------------------------
 CID_43269056_JID_7002_Energie_kation
 ------------------------------------
 Structure from the checkpoint file:  "JID_7002.chk"
 Charge =  1 Multiplicity = 2

 SCF Done:  E(UB3LYP) =  -785.851937486     A.U. after   28 cycles
 Normal termination of Gaussian 16 at Fri Dec 11 12:39:18 2020.
 Gaussian 16:  ES64L-G16RevA.03 25-Dec-2016

 ----------------------------------------------------------------------
 # B3LYP/6-311++G(d,p) empiricaldispersion=gd3bj scf=xqc pop=npa geom=c
 heck
 ----------------------------------------------------------------------

 -----------------------------------
 CID_43269056_JID_7002_Energie_anion
 -----------------------------------
 Structure from the checkpoint file:  "JID_7002.chk"
 Charge = -1 Multiplicity = 2

                         Standard orientation:
 ---------------------------------------------------------------------
 Center     Atomic      Atomic             Coordinates (Angstroms)
 Number     Number       Type             X           Y           Z
 ---------------------------------------------------------------------
      1          6           0        2.829080   -2.378023   -0.060796
      2          6           0        3.510878   -1.184749    0.611225
      3          6           0        3.186879    0.161499   -0.047575
      4          7           0        1.776305    0.543565    0.065134
      5          6           0        1.353775    1.220395    1.293677
      6          6           0        1.695363    2.710188    1.310539
      7          6           0        0.961793    0.345261   -1.005407
      8          8           0        1.312864   -0.212959   -2.044036
      9          6           0       -0.454599    0.938998   -0.913123
     10          8           0       -0.599679    2.160463   -0.863460
     11          7           0       -1.486974    0.058751   -0.991783
     12          6           0       -1.323883   -1.389893   -0.864977
     13          6           0       -1.245177   -1.885710    0.589315
     14          6           0       -2.149045   -1.126225    1.589231
     15          7           0       -3.465425   -0.684730    1.138277
     16          6           0       -3.496528    0.570547    0.396727
     17          6           0       -2.854281    0.575652   -1.000148
     18          1           0        1.739563   -2.295410   -0.001525
     19          1           0        3.121177   -3.317520    0.421154
     20          1           0        3.091693   -2.435456   -1.121745
     21          1           0        3.238531   -1.147770    1.675181
     22          1           0        4.601036   -1.313332    0.580525
     23          1           0        3.785836    0.956268    0.410747
     24          1           0        3.426540    0.126442   -1.112249
     25          1           0        0.276489    1.086152    1.414572
     26          1           0        1.830827    0.699856    2.132219
     27          1           0        1.166936    3.211868    0.497216
     28          1           0        1.389298    3.155668    2.263820
     29          1           0        2.772044    2.874490    1.193362
     30          1           0       -0.440642   -1.697241   -1.426879
     31          1           0       -2.189277   -1.838188   -1.362587
     32          1           0       -1.495078   -2.955073    0.589730
     33          1           0       -0.211103   -1.814527    0.950574
     34          1           0       -2.276303   -1.757760    2.478362
     35          1           0       -1.626833   -0.225041    1.931265
     36          1           0       -3.963871   -1.423712    0.647638
     37          1           0       -2.989786    1.324471    1.010790
     38          1           0       -4.541967    0.890518    0.298239
     39          1           0       -2.825491    1.593210   -1.395526
     40          1           0       -3.437970   -0.048673   -1.688433
 ---------------------------------------------------------------------

 SCF Done:  E(UB3LYP) =  -786.136734947     A.U. after   33 cycles
 SCF Done:  E(UB3LYP) =  -786.136734948     a.u. after    1 cycles

 The electronic state is 2-A.
 Alpha  occ. eigenvalues --  -18.99857 -18.99818 -14.25564 -14.25347 -14.20458
 Alpha  occ. eigenvalues --  -10.18068 -10.17862 -10.12209 -10.11198 -10.11103
 Alpha  occ. eigenvalues --  -10.10907 -10.10415 -10.10171 -10.07881 -10.07656
 Alpha  occ. eigenvalues --  -10.07216 -10.06382  -0.96206  -0.93573  -0.85608
 Alpha  occ. eigenvalues --   -0.84995  -0.80768  -0.69819  -0.69461  -0.66757
 Alpha  occ. eigenvalues --   -0.64228  -0.61084  -0.59895  -0.56468  -0.55450
 Alpha  occ. eigenvalues --   -0.52294  -0.50380  -0.47945  -0.44714  -0.43162
 Alpha  occ. eigenvalues --   -0.40919  -0.40026  -0.38889  -0.37922  -0.37002
 Alpha  occ. eigenvalues --   -0.36293  -0.35273  -0.35151  -0.34108  -0.33631
 Alpha  occ. eigenvalues --   -0.32748  -0.32574  -0.31587  -0.30440  -0.30145
 Alpha  occ. eigenvalues --   -0.29390  -0.28557  -0.28360  -0.27776  -0.26852
 Alpha  occ. eigenvalues --   -0.26485  -0.25798  -0.25691  -0.25408  -0.24810
 Alpha  occ. eigenvalues --   -0.24534  -0.20327  -0.16205  -0.15818  -0.14644
 Alpha  occ. eigenvalues --   -0.12817   0.03918
 Alpha virt. eigenvalues --    0.05491   0.06801   0.06876   0.07609   0.07964
 Alpha virt. eigenvalues --    0.08654   0.08754   0.09612   0.09846   0.10537
 Alpha virt. eigenvalues --    0.10628   0.11481   0.11626   0.11973   0.12358

  Beta  occ. eigenvalues --  -18.99836 -18.99770 -14.25562 -14.25362 -14.20432
  Beta  occ. eigenvalues --  -10.18043 -10.17806 -10.12197 -10.11184 -10.11091
  Beta  occ. eigenvalues --  -10.10894 -10.10404 -10.10159 -10.07853 -10.07638
  Beta  occ. eigenvalues --  -10.07202 -10.06364  -0.96136  -0.93512  -0.85590
  Beta  occ. eigenvalues --   -0.84971  -0.80726  -0.69786  -0.69430  -0.66725
  Beta  occ. eigenvalues --   -0.64163  -0.61042  -0.59860  -0.56402  -0.55411
  Beta  occ. eigenvalues --   -0.52232  -0.50317  -0.47872  -0.44683  -0.43129
  Beta  occ. eigenvalues --   -0.40878  -0.39986  -0.38832  -0.37882  -0.36950
  Beta  occ. eigenvalues --   -0.36252  -0.35237  -0.35097  -0.34061  -0.33592
  Beta  occ. eigenvalues --   -0.32721  -0.32538  -0.31536  -0.30383  -0.30081
  Beta  occ. eigenvalues --   -0.29334  -0.28512  -0.28303  -0.27739  -0.26826
  Beta  occ. eigenvalues --   -0.26427  -0.25734  -0.25644  -0.25361  -0.24775
  Beta  occ. eigenvalues --   -0.24501  -0.20274  -0.16145  -0.15770  -0.14590
  Beta  occ. eigenvalues --   -0.12777
  Beta virt. eigenvalues --    0.06072   0.06673   0.07200   0.07430   0.08130
  Beta virt. eigenvalues --    0.08445   0.08914   0.09184   0.09803   0.10139
  Beta virt. eigenvalues --    0.10781   0.10980   0.11699   0.11775   0.12170

 Mulliken charges and spin densities:
               1          2
     1  C   -0.154291  -0.241329
     2  C    0.573487  -0.855497
     3  C   -0.370407   0.209633
     4  N    0.281477   0.074019
     5  C   -0.265706   0.155224
     6  C    0.027928  -0.577432
     7  C   -0.216245  -0.165335
     8  O   -0.231423   0.021789
     9  C   -0.292584  -0.213827
    10  O   -0.261295   0.024017
    11  N    0.205919   0.019960
    12  C    0.126459  -0.567314
    13  C   -0.162976   0.156972
    14  C    0.623174  -1.154106
    15  N   -0.215857   0.101288
    16  C    0.176067  -0.533887
    17  C   -0.017902  -0.059564
    18  H    0.159536  -0.065302
    19  H   -0.187908   0.338363
    20  H    0.111144   0.030508
    21  H   -0.108458   0.227056
    22  H   -0.328480   0.482258
    23  H   -0.187480   0.312787
    24  H    0.124976   0.064489
    25  H    0.535170  -0.389932
    26  H   -0.267237   0.434297
    27  H    0.160292   0.034896
    28  H   -0.010763   0.137021
    29  H    0.012177   0.120463
    30  H    0.172430   0.047112
    31  H   -0.231432   0.428521
    32  H   -0.580878   0.780848
    33  H    0.216997  -0.074661
    34  H   -0.191082   0.394882
    35  H   -0.151832   0.285120
    36  H   -0.052271   0.288299
    37  H    0.168850   0.013925
    38  H   -0.175364   0.361664
    39  H    0.169494  -0.007182
    40  H   -0.183705   0.359956
 Sum of Mulliken charges =  -1.00000   1.00000

 Dipole moment (field-independent basis, Debye):
    X=              0.9584    Y=              3.3692    Z=             -0.5938  Tot=              3.5528
 Quadrupole moment (field-independent basis, Debye-Ang):
   XX=           -185.5277   YY=           -155.5868   ZZ=           -147.1410
   XY=             -6.2092   XZ=             -1.1566   YZ=              5.4562

 Summary of Natural Population Analysis:

                                       Natural Population
                Natural  -----------------------------------------------
    Atom  No    Charge         Core      Valence    Rydberg      Total
 -----------------------------------------------------------------------
      C    1   -0.28608      0.99966     2.28046    0.00596     3.28608
      C    2   -0.19328      0.99963     2.18607    0.00758     3.19328
      C    3   -0.08725      0.99960     2.07596    0.01169     3.08725
      N    4   -0.24953      0.99963     2.73798    0.01192     3.74953
      C    5   -0.08417      0.99961     2.07457    0.00999     3.08417
      C    6   -0.29465      0.99965     2.29010    0.00490     3.29465
      C    7    0.31583      0.99959     1.66229    0.02229     2.68417
      O    8   -0.32069      0.99988     3.31570    0.00510     4.32069
      C    9    0.31780      0.99959     1.66004    0.02257     2.68220
      O   10   -0.32157      0.99988     3.31648    0.00520     4.32157
      N   11   -0.24941      0.99964     2.73887    0.01090     3.74941
      C   12   -0.09194      0.99960     2.08067    0.01167     3.09194
      C   13   -0.20636      0.99962     2.19813    0.00861     3.20636
      C   14   -0.08820      0.99962     2.07667    0.01191     3.08820
      N   15   -0.34066      0.99975     2.82867    0.01224     3.84066
      C   16   -0.09146      0.99961     2.08014    0.01171     3.09146
      C   17   -0.09471      0.99960     2.08385    0.01126     3.09471
      H   18    0.09739      0.00000     0.40132    0.00129     0.40261
      H   19    0.09785      0.00000     0.40132    0.00083     0.40215
      H   20    0.10031      0.00000     0.39885    0.00084     0.39969
      H   21    0.09451      0.00000     0.40393    0.00156     0.40549
      H   22    0.09747      0.00000     0.40117    0.00136     0.40253
      H   23    0.09744      0.00000     0.40137    0.00118     0.40256
      H   24    0.10968      0.00000     0.38910    0.00122     0.39032
      H   25    0.10080      0.00000     0.39752    0.00167     0.39920
      H   26    0.09630      0.00000     0.40228    0.00142     0.40370
      H   27    0.11466      0.00000     0.38438    0.00096     0.38534
      H   28    0.09801      0.00000     0.40128    0.00072     0.40199
      H   29    0.09617      0.00000     0.40293    0.00089     0.40383
      H   30    0.11490      0.00000     0.38371    0.00139     0.38510
      H   31    0.09866      0.00000     0.39977    0.00157     0.40134
      H   32    0.10067      0.00000     0.39742    0.00191     0.39933
      H   33    0.09804      0.00000     0.40003    0.00194     0.40196
      H   34    0.09605      0.00000     0.40279    0.00116     0.40395
      H   35    0.08808      0.00000     0.41015    0.00176     0.41192
      H   36    0.17506      0.00000     0.32027    0.00468     0.32494
      H   37    0.09318      0.00000     0.40557    0.00125     0.40682
      H   38    0.09544      0.00000     0.40365    0.00092     0.40456
      H   39    0.11179      0.00000     0.38711    0.00111     0.38821
      H   40    0.09390      0.00000     0.40451    0.00159     0.40610
 =======================================================================
   * Total *   -0.00000     16.99417    48.78711    0.21873    66.00000

 Normal termination of Gaussian 16 at Fri Dec 11 13:05:18 2020.
