 Gaussian 16, Revision A.03,

 -----------------------------------------------------------
 # opt freq B3LYP/6-31G(d) empiricaldispersion=gd3bj scf=xqc
 -----------------------------------------------------------

 -------------------------------
 CID_140975522_JID_5610_neutraal
 -------------------------------
 Symbolic Z-matrix:
 Charge =  0 Multiplicity = 1

 SCF Done:  E(RB3LYP) =  -653.812660013     A.U. after   13 cycles
 SCF Done:  E(RB3LYP) =  -653.827467619     A.U. after   11 cycles
 SCF Done:  E(RB3LYP) =  -653.833750230     A.U. after   11 cycles
 SCF Done:  E(RB3LYP) =  -653.839075520     A.U. after   11 cycles
 SCF Done:  E(RB3LYP) =  -653.842032335     A.U. after   11 cycles
 SCF Done:  E(RB3LYP) =  -653.842513697     A.U. after   11 cycles
 SCF Done:  E(RB3LYP) =  -653.844616134     A.U. after   10 cycles
 SCF Done:  E(RB3LYP) =  -653.844296753     A.U. after   11 cycles
 SCF Done:  E(RB3LYP) =  -653.845534216     A.U. after   11 cycles
 SCF Done:  E(RB3LYP) =  -653.845671098     A.U. after   10 cycles
 SCF Done:  E(RB3LYP) =  -653.846849653     A.U. after   10 cycles
 SCF Done:  E(RB3LYP) =  -653.846876553     A.U. after    9 cycles
 SCF Done:  E(RB3LYP) =  -653.846885839     A.U. after    9 cycles
 SCF Done:  E(RB3LYP) =  -653.846888999     A.U. after    8 cycles
 SCF Done:  E(RB3LYP) =  -653.846889793     A.U. after    7 cycles
 SCF Done:  E(RB3LYP) =  -653.846889903     A.U. after    6 cycles
 Optimization completed.
    -- Stationary point found.
 Normal termination of Gaussian 16 at Thu Dec 10 17:21:57 2020.

 --------------------------------------------------------------------
 #N Geom=AllCheck Guess=TCheck SCRF=Check GenChk RB3LYP/6-31G(d) Freq
 --------------------------------------------------------------------

 Structure from the checkpoint file:  "JID_5610.chk"
 -------------------------------
 CID_140975522_JID_5610_neutraal
 -------------------------------
 Charge =  0 Multiplicity = 1

 SCF Done:  E(RB3LYP) =  -653.846889903     A.U. after    1 cycles

  Exact polarizability: 155.067   0.742 143.718   2.301  -0.480 126.364
 Approx polarizability: 203.453   2.281 195.466   4.118  -1.551 190.004

                      1                      2                      3
                      A                      A                      A
 Frequencies --     49.1008                76.5830                86.9450
 Red. masses --      3.2884                 2.9915                 2.1097
 Frc consts  --      0.0047                 0.0103                 0.0094
 IR Inten    --      0.2890                 0.3740                 0.3786

                      4                      5                      6
                      A                      A                      A
 Frequencies --     91.1376               122.7807               144.6450
 Red. masses --      2.5531                 2.5507                 2.9245
 Frc consts  --      0.0125                 0.0227                 0.0361
 IR Inten    --      0.5942                 0.0705                 0.9656

                      7                      8                      9
                      A                      A                      A
 Frequencies --    157.9135               186.3339               207.6594
 Red. masses --      2.6866                 1.5971                 1.6884
 Frc consts  --      0.0395                 0.0327                 0.0429
 IR Inten    --      0.2806                 0.2515                 0.2890

                     10                     11                     12
                      A                      A                      A
 Frequencies --    222.3319               237.3935               255.9452
 Red. masses --      1.4743                 1.3048                 1.2182
 Frc consts  --      0.0429                 0.0433                 0.0470
 IR Inten    --     13.4343                18.7143                 0.3639

                     13                     14                     15
                      A                      A                      A
 Frequencies --    260.2753               267.6057               297.5002
 Red. masses --      1.2290                 1.2967                 2.1453
 Frc consts  --      0.0491                 0.0547                 0.1119
 IR Inten    --      8.7008                 1.5097                 6.6733

                     16                     17                     18
                      A                      A                      A
 Frequencies --    317.7631               329.4003               357.0994
 Red. masses --      2.4465                 2.8329                 2.5021
 Frc consts  --      0.1455                 0.1811                 0.1880
 IR Inten    --      1.1776                 0.3521                 1.5296

                     19                     20                     21
                      A                      A                      A
 Frequencies --    373.5038               380.1081               411.5360
 Red. masses --      2.1007                 2.8038                 2.4369
 Frc consts  --      0.1727                 0.2387                 0.2432
 IR Inten    --      0.7694                 3.7484                 2.8244

                     22                     23                     24
                      A                      A                      A
 Frequencies --    417.3641               457.0602               500.6931
 Red. masses --      2.8638                 2.0631                 2.3646
 Frc consts  --      0.2939                 0.2539                 0.3493
 IR Inten    --      9.3683                 3.3512                 5.7352

                     25                     26                     27
                      A                      A                      A
 Frequencies --    516.7459               524.9686               559.4675
 Red. masses --      2.4897                 2.6101                 3.4346
 Frc consts  --      0.3917                 0.4238                 0.6334
 IR Inten    --      5.1090                 4.0763                 3.5257

                     28                     29                     30
                      A                      A                      A
 Frequencies --    602.6709               605.0106               676.0348
 Red. masses --      2.5527                 2.8139                 3.7758
 Frc consts  --      0.5463                 0.6069                 1.0167
 IR Inten    --      2.8272                 8.7805                 7.6136

                     31                     32                     33
                      A                      A                      A
 Frequencies --    749.7417               789.6610               798.0105
 Red. masses --      2.7655                 1.1684                 1.3116
 Frc consts  --      0.9159                 0.4293                 0.4921
 IR Inten    --     19.9130                 1.7298                12.5344

                     34                     35                     36
                      A                      A                      A
 Frequencies --    811.9293               860.8330               881.7429
 Red. masses --      1.5710                 2.3605                 2.0219
 Frc consts  --      0.6102                 1.0306                 0.9262
 IR Inten    --      0.9036                 4.4975                13.7352

                     37                     38                     39
                      A                      A                      A
 Frequencies --    896.2305               931.4331               932.2275
 Red. masses --      2.1004                 2.0849                 2.1521
 Frc consts  --      0.9940                 1.0657                 1.1019
 IR Inten    --      2.4005                13.9195                38.1844

                     40                     41                     42
                      A                      A                      A
 Frequencies --    943.9242               971.7868              1003.8351
 Red. masses --      1.6103                 2.0297                 2.3323
 Frc consts  --      0.8453                 1.1293                 1.3847
 IR Inten    --     43.9156                26.6953               134.0497

                     43                     44                     45
                      A                      A                      A
 Frequencies --   1029.0551              1067.2836              1073.8087
 Red. masses --      2.4019                 1.6928                 1.7261
 Frc consts  --      1.4986                 1.1361                 1.1726
 IR Inten    --     19.7048                62.7425                 5.8931

                     46                     47                     48
                      A                      A                      A
 Frequencies --   1077.7872              1083.5224              1093.0181
 Red. masses --      1.8097                 1.8388                 2.2455
 Frc consts  --      1.2385                 1.2719                 1.5806
 IR Inten    --      8.1981                10.2252                17.5062

                     49                     50                     51
                      A                      A                      A
 Frequencies --   1109.2070              1110.6769              1122.3465
 Red. masses --      2.2892                 1.7811                 1.9708
 Frc consts  --      1.6594                 1.2945                 1.4627
 IR Inten    --     11.7265                14.7385                 0.7486

                     52                     53                     54
                      A                      A                      A
 Frequencies --   1133.6316              1142.4154              1190.7389
 Red. masses --      1.3289                 3.5367                 1.5463
 Frc consts  --      1.0062                 2.7195                 1.2918
 IR Inten    --      2.3552                17.7534                 3.4897

                     55                     56                     57
                      A                      A                      A
 Frequencies --   1201.2555              1208.9220              1226.3702
 Red. masses --      1.4151                 2.2856                 2.2560
 Frc consts  --      1.2031                 1.9681                 1.9991
 IR Inten    --      3.4548                17.0460                12.4961

                     58                     59                     60
                      A                      A                      A
 Frequencies --   1243.0499              1258.6268              1272.8580
 Red. masses --      2.6030                 1.7584                 2.2845
 Frc consts  --      2.3698                 1.6412                 2.1807
 IR Inten    --      8.0931                15.9955                42.1527

                     61                     62                     63
                      A                      A                      A
 Frequencies --   1295.6456              1299.2843              1351.6907
 Red. masses --      1.5393                 1.8312                 1.2959
 Frc consts  --      1.5224                 1.8213                 1.3950
 IR Inten    --      4.8663                17.0399                 4.5170

                     64                     65                     66
                      A                      A                      A
 Frequencies --   1352.9226              1359.7292              1369.4564
 Red. masses --      1.3321                 1.5900                 1.2197
 Frc consts  --      1.4366                 1.7320                 1.3477
 IR Inten    --     15.1770                32.1781                16.0020

                     67                     68                     69
                      A                      A                      A
 Frequencies --   1389.4057              1397.1401              1401.6609
 Red. masses --      1.4699                 1.6002                 1.3105
 Frc consts  --      1.6718                 1.8404                 1.5170
 IR Inten    --      8.9232                 1.4708                13.4203

                     70                     71                     72
                      A                      A                      A
 Frequencies --   1405.2387              1412.8750              1424.7482
 Red. masses --      1.3287                 1.3814                 1.2464
 Frc consts  --      1.5459                 1.6247                 1.4907
 IR Inten    --      6.5764                 9.7636                 1.3726

                     73                     74                     75
                      A                      A                      A
 Frequencies --   1429.9233              1439.4871              1450.1158
 Red. masses --      1.2700                 1.3119                 1.1603
 Frc consts  --      1.5300                 1.6016                 1.4375
 IR Inten    --     20.2014                18.6779                 2.6755

                     76                     77                     78
                      A                      A                      A
 Frequencies --   1488.6612              1501.6842              1507.2189
 Red. masses --      1.1777                 1.0832                 1.0728
 Frc consts  --      1.5377                 1.4392                 1.4359
 IR Inten    --      9.5008                 2.5535                 1.4585

                     79                     80                     81
                      A                      A                      A
 Frequencies --   1511.0137              1511.8132              1519.5877
 Red. masses --      1.0709                 1.0715                 1.0725
 Frc consts  --      1.4406                 1.4429                 1.4591
 IR Inten    --      2.6012                 4.4104                 1.8089

                     82                     83                     84
                      A                      A                      A
 Frequencies --   1522.9491              1523.8237              1528.7334
 Red. masses --      1.0552                 1.0507                 1.0598
 Frc consts  --      1.4420                 1.4374                 1.4593
 IR Inten    --      2.9177                 3.0259                 2.3139

                     85                     86                     87
                      A                      A                      A
 Frequencies --   1532.0839              1536.8189              1538.5293
 Red. masses --      1.0705                 1.0592                 1.0583
 Frc consts  --      1.4804                 1.4739                 1.4760
 IR Inten    --      4.7776                 3.4196                11.1501

                     88                     89                     90
                      A                      A                      A
 Frequencies --   1543.8449              1550.2032              1555.8796
 Red. masses --      1.0764                 1.0611                 1.0572
 Frc consts  --      1.5115                 1.5024                 1.5078
 IR Inten    --      7.6211                 5.6593                 6.9303

                     91                     92                     93
                      A                      A                      A
 Frequencies --   1708.5129              2942.0545              3004.2867
 Red. masses --      1.0895                 1.0632                 1.0528
 Frc consts  --      1.8738                 5.4219                 5.5983
 IR Inten    --     27.1869                82.9158                67.4105

                     94                     95                     96
                      A                      A                      A
 Frequencies --   3018.5920              3040.3603              3044.6209
 Red. masses --      1.0687                 1.0616                 1.0626
 Frc consts  --      5.7376                 5.7818                 5.8034
 IR Inten    --     32.0323                27.8504                35.9387

                     97                     98                     99
                      A                      A                      A
 Frequencies --   3049.4632              3049.8891              3054.7705
 Red. masses --      1.0395                 1.0588                 1.0408
 Frc consts  --      5.6955                 5.8025                 5.7221
 IR Inten    --     26.7725                41.5970                29.1974

                    100                    101                    102
                      A                      A                      A
 Frequencies --   3058.5448              3075.6842              3080.5048
 Red. masses --      1.0713                 1.0959                 1.0764
 Frc consts  --      5.9046                 6.1083                 6.0183
 IR Inten    --     15.5590                33.2867                35.2214

                    103                    104                    105
                      A                      A                      A
 Frequencies --   3083.4156              3087.7293              3091.7908
 Red. masses --      1.0920                 1.0819                 1.0972
 Frc consts  --      6.1169                 6.0773                 6.1798
 IR Inten    --     13.2218                 6.8316                32.6024

                    106                    107                    108
                      A                      A                      A
 Frequencies --   3093.6526              3098.2931              3111.9993
 Red. masses --      1.0861                 1.0819                 1.1016
 Frc consts  --      6.1243                 6.1192                 6.2858
 IR Inten    --     77.8956                35.2957                39.8213

                    109                    110                    111
                      A                      A                      A
 Frequencies --   3116.5157              3120.2941              3121.2759
 Red. masses --      1.1012                 1.0996                 1.1028
 Frc consts  --      6.3017                 6.3079                 6.3302
 IR Inten    --     37.3719                65.1784                56.6296

                    112                    113                    114
                      A                      A                      A
 Frequencies --   3133.8402              3138.7273              3157.2880
 Red. masses --      1.1014                 1.0980                 1.0966
 Frc consts  --      6.3733                 6.3730                 6.4407
 IR Inten    --     29.8219                36.0546                22.9808

                    115                    116                    117
                      A                      A                      A
 Frequencies --   3164.3219              3472.0258              3549.4167
 Red. masses --      1.0950                 1.0501                 1.0891
 Frc consts  --      6.4601                 7.4584                 8.0844
 IR Inten    --     14.9282                 1.0290                 2.0425

 - Thermochemistry -
 -------------------
 Temperature   298.150 Kelvin.  Pressure   1.00000 Atm.
 Atom     1 has atomic number  6 and mass  12.00000

 Molecular mass:   214.21575 amu.
 Principal axes and moments of inertia in atomic units:
                           1         2         3
     Eigenvalues --  2332.126893399.935154153.32061
           X            0.99999   0.00442  -0.00152
           Y           -0.00439   0.99982   0.01833
           Z            0.00160  -0.01833   0.99983
 This molecule is an asymmetric top.
 Rotational symmetry number  1.
 Warning -- assumption of classical behavior for rotation
           may cause significant error
 Rotational temperatures (Kelvin)      0.03714     0.02548     0.02085
 Rotational constants (GHZ):           0.77386     0.53082     0.43453
 Zero-point vibrational energy    1000254.8 (Joules/Mol)
                                  239.06664 (Kcal/Mol)
 Warning -- explicit consideration of  29 degrees of freedom as
           vibrations may cause significant error
 Vibrational temperatures:     70.65   110.19   125.09   131.13   176.65
          (Kelvin)            208.11   227.20   268.09   298.78   319.89
                              341.56   368.25   374.48   385.02   428.04
                              457.19   473.93   513.79   537.39   546.89
                              592.11   600.49   657.61   720.39   743.48
                              755.31   804.95   867.11   870.48   972.66
                             1078.71  1136.15  1148.16  1168.19  1238.55
                             1268.63  1289.48  1340.12  1341.27  1358.10
                             1398.18  1444.29  1480.58  1535.58  1544.97
                             1550.70  1558.95  1572.61  1595.90  1598.02
                             1614.81  1631.04  1643.68  1713.21  1728.34
                             1739.37  1764.47  1788.47  1810.88  1831.36
                             1864.15  1869.38  1944.78  1946.55  1956.35
                             1970.34  1999.04  2010.17  2016.68  2021.83
                             2032.81  2049.89  2057.34  2071.10  2086.39
                             2141.85  2160.59  2168.55  2174.01  2175.16
                             2186.35  2191.18  2192.44  2199.51  2204.33
                             2211.14  2213.60  2221.25  2230.40  2238.56
                             2458.17  4232.96  4322.50  4343.08  4374.40
                             4380.53  4387.50  4388.11  4395.13  4400.56
                             4425.22  4432.16  4436.35  4442.55  4448.40
                             4451.08  4457.75  4477.47  4483.97  4489.41
                             4490.82  4508.90  4515.93  4542.63  4552.75
                             4995.47  5106.82

 Zero-point correction=                           0.380977 (Hartree/Particle)
 Thermal correction to Energy=                    0.398126
 Thermal correction to Enthalpy=                  0.399070
 Thermal correction to Gibbs Free Energy=         0.338133
 Sum of electronic and zero-point Energies=           -653.465913
 Sum of electronic and thermal Energies=              -653.448764
 Sum of electronic and thermal Enthalpies=            -653.447820
 Sum of electronic and thermal Free Energies=         -653.508757

                     E (Thermal)             CV                S
                      KCal/Mol        Cal/Mol-Kelvin    Cal/Mol-Kelvin
 Total                  249.828             67.144            128.253
 Electronic               0.000              0.000              0.000
 Translational            0.889              2.981             41.989
 Rotational               0.889              2.981             31.866
 Vibrational            248.050             61.183             54.398
 Vibration     1          0.595              1.978              4.853
 Vibration     2          0.599              1.965              3.977
 Vibration     3          0.601              1.958              3.728
 Vibration     4          0.602              1.955              3.635
 Vibration     5          0.610              1.930              3.056
 Vibration     6          0.616              1.908              2.742
 Vibration     7          0.621              1.894              2.575
 Vibration     8          0.632              1.859              2.264
 Vibration     9          0.641              1.829              2.064
 Vibration    10          0.648              1.807              1.940
 Vibration    11          0.656              1.783              1.822
 Vibration    12          0.666              1.753              1.689
 Vibration    13          0.668              1.745              1.660
 Vibration    14          0.673              1.733              1.612
 Vibration    15          0.691              1.678              1.431
 Vibration    16          0.704              1.640              1.322
 Vibration    17          0.712              1.617              1.263
 Vibration    18          0.732              1.561              1.135
 Vibration    19          0.745              1.527              1.065
 Vibration    20          0.750              1.513              1.039
 Vibration    21          0.776              1.445              0.921
 Vibration    22          0.780              1.433              0.901
 Vibration    23          0.815              1.345              0.775
 Vibration    24          0.856              1.248              0.656
 Vibration    25          0.872              1.213              0.618
 Vibration    26          0.880              1.195              0.599
 Vibration    27          0.915              1.119              0.525
 Vibration    28          0.961              1.026              0.445
 Vibration    29          0.964              1.021              0.441

                           ! Non-Optimized Parameters !
 Normal termination of Gaussian 16 at Thu Dec 10 17:39:48 2020.

 ----------------------------------------------------------------------
 # B3LYP/6-311++G(d,p) empiricaldispersion=gd3bj scf=xqc pop=npa geom=c
 heck
 ----------------------------------------------------------------------

 ---------------------------------------
 CID_140975522_JID_5610_Energie_neutraal
 ---------------------------------------
 Structure from the checkpoint file:  "JID_5610.chk"
 Charge =  0 Multiplicity = 1

 SCF Done:  E(RB3LYP) =  -654.033303272     A.U. after   14 cycles
 Normal termination of Gaussian 16 at Thu Dec 10 17:50:05 2020.

 ----------------------------------------------------------------------
 # B3LYP/6-311++G(d,p) empiricaldispersion=gd3bj scf=xqc pop=npa geom=c
 heck
 ----------------------------------------------------------------------

 -------------------------------------
 CID_140975522_JID_5610_Energie_kation
 -------------------------------------
 Structure from the checkpoint file:  "JID_5610.chk"
 Charge =  1 Multiplicity = 2

 SCF Done:  E(UB3LYP) =  -653.774356461     A.U. after   24 cycles
 Normal termination of Gaussian 16 at Thu Dec 10 18:13:26 2020.
 Gaussian 16:  ES64L-G16RevA.03 25-Dec-2016

 ----------------------------------------------------------------------
 # B3LYP/6-311++G(d,p) empiricaldispersion=gd3bj scf=xqc pop=npa geom=c
 heck
 ----------------------------------------------------------------------

 ------------------------------------
 CID_140975522_JID_5610_Energie_anion
 ------------------------------------
 Structure from the checkpoint file:  "JID_5610.chk"
 Charge = -1 Multiplicity = 2

                         Standard orientation:
 ---------------------------------------------------------------------
 Center     Atomic      Atomic             Coordinates (Angstroms)
 Number     Number       Type             X           Y           Z
 ---------------------------------------------------------------------
      1          6           0       -2.279785   -1.946665   -1.255214
      2          6           0       -2.485416   -0.762559   -0.311321
      3          7           0       -1.496670    0.314573   -0.462455
      4          6           0       -2.073281    1.662413   -0.360152
      5          6           0       -2.552402    2.098069    1.028793
      6          7           0       -0.281266    0.240973    0.263019
      7          6           0       -0.260471   -0.362435    1.598107
      8          6           0        0.089418   -1.858508    1.604124
      9          6           0        1.378815   -2.112244    0.811723
     10          6           0        1.297866   -1.492809   -0.587942
     11          6           0        0.959219    0.011006   -0.539697
     12          7           0        0.827452    0.486954   -1.907713
     13          7           0        2.018379    0.744087    0.181502
     14          6           0        3.371005    0.511484   -0.315627
     15          6           0        1.767020    2.173862    0.320442
     16          1           0       -2.205144   -1.600615   -2.291698
     17          1           0       -3.128053   -2.637749   -1.181373
     18          1           0       -1.376106   -2.511387   -1.017423
     19          1           0       -3.458333   -0.315022   -0.539221
     20          1           0       -2.560855   -1.121391    0.725346
     21          1           0       -1.310041    2.362917   -0.714433
     22          1           0       -2.904658    1.713835   -1.074821
     23          1           0       -1.719572    2.117330    1.738221
     24          1           0       -2.982724    3.105533    0.985752
     25          1           0       -3.321910    1.422374    1.420219
     26          1           0        0.495270    0.173254    2.183749
     27          1           0       -1.225281   -0.181090    2.078038
     28          1           0       -0.730813   -2.440051    1.166026
     29          1           0        0.203092   -2.201952    2.640718
     30          1           0        1.573514   -3.189035    0.734182
     31          1           0        2.224107   -1.669858    1.352535
     32          1           0        0.506470   -1.976994   -1.168166
     33          1           0        2.219972   -1.655912   -1.151082
     34          1           0       -0.005768    0.057742   -2.307009
     35          1           0        0.619393    1.484738   -1.888845
     36          1           0        3.487410    0.760584   -1.382611
     37          1           0        4.061432    1.134053    0.262647
     38          1           0        3.671373   -0.528133   -0.166642
     39          1           0        1.907779    2.744923   -0.617313
     40          1           0        0.747919    2.329593    0.675570
     41          1           0        2.464335    2.586508    1.057737
 ---------------------------------------------------------------------

 SCF Done:  E(UB3LYP) =  -654.017490734     A.U. after   28 cycles

 The electronic state is 2-A.
 Alpha  occ. eigenvalues --  -14.22727 -14.21685 -14.20532 -14.19043 -10.15535
 Alpha  occ. eigenvalues --  -10.09311 -10.08858 -10.08845 -10.08803 -10.08435
 Alpha  occ. eigenvalues --  -10.06670 -10.06352 -10.06345 -10.06064 -10.05515
 Alpha  occ. eigenvalues --   -0.89090  -0.83443  -0.76615  -0.73961  -0.68629
 Alpha  occ. eigenvalues --   -0.66206  -0.63836  -0.61479  -0.60450  -0.55885
 Alpha  occ. eigenvalues --   -0.54111  -0.52495  -0.49546  -0.48516  -0.43358
 Alpha  occ. eigenvalues --   -0.41797  -0.39418  -0.38275  -0.37948  -0.36806
 Alpha  occ. eigenvalues --   -0.35896  -0.35357  -0.34038  -0.33161  -0.32955
 Alpha  occ. eigenvalues --   -0.32234  -0.31146  -0.30302  -0.29638  -0.29205
 Alpha  occ. eigenvalues --   -0.28609  -0.28084  -0.27457  -0.26461  -0.26036
 Alpha  occ. eigenvalues --   -0.25627  -0.25160  -0.23975  -0.23534  -0.23151
 Alpha  occ. eigenvalues --   -0.22349  -0.16164  -0.13414  -0.12442  -0.09897
 Alpha  occ. eigenvalues --    0.04428
 Alpha virt. eigenvalues --    0.06401   0.06552   0.07280   0.08116   0.08426
 Alpha virt. eigenvalues --    0.08947   0.09388   0.09573   0.10439   0.10666
 Alpha virt. eigenvalues --    0.11432   0.11623   0.12234   0.12262   0.12591

  Beta  occ. eigenvalues --  -14.22727 -14.21685 -14.20528 -14.19034 -10.15535
  Beta  occ. eigenvalues --  -10.09287 -10.08836 -10.08835 -10.08790 -10.08415
  Beta  occ. eigenvalues --  -10.06660 -10.06339 -10.06336 -10.06037 -10.05483
  Beta  occ. eigenvalues --   -0.89084  -0.83434  -0.76601  -0.73944  -0.68607
  Beta  occ. eigenvalues --   -0.66166  -0.63814  -0.61442  -0.60420  -0.55849
  Beta  occ. eigenvalues --   -0.54070  -0.52430  -0.49510  -0.48471  -0.43324
  Beta  occ. eigenvalues --   -0.41773  -0.39396  -0.38250  -0.37927  -0.36771
  Beta  occ. eigenvalues --   -0.35872  -0.35327  -0.34015  -0.33141  -0.32935
  Beta  occ. eigenvalues --   -0.32211  -0.31121  -0.30268  -0.29613  -0.29176
  Beta  occ. eigenvalues --   -0.28571  -0.28051  -0.27416  -0.26443  -0.26002
  Beta  occ. eigenvalues --   -0.25594  -0.25129  -0.23948  -0.23510  -0.23130
  Beta  occ. eigenvalues --   -0.22326  -0.16151  -0.13401  -0.12427  -0.09889
  Beta virt. eigenvalues --    0.06355   0.07116   0.07318   0.07733   0.08711
  Beta virt. eigenvalues --    0.08866   0.09393   0.09690   0.09826   0.10899
  Beta virt. eigenvalues --    0.11109   0.11718   0.11874   0.12371   0.12587

 Mulliken charges and spin densities:
               1          2
     1  C    0.823647  -1.328471
     2  C   -0.169386  -0.039180
     3  N   -0.457546   0.312664
     4  C   -0.189405   0.062157
     5  C    0.806898  -1.269271
     6  N    0.690138  -0.127221
     7  C   -0.080529  -0.021057
     8  C    0.511594  -0.904964
     9  C   -0.567717   0.007573
    10  C    0.523753  -0.149580
    11  C   -2.407895  -0.080123
    12  N   -0.035946   0.065666
    13  N    0.285338   0.062198
    14  C    0.118453  -0.466950
    15  C    0.418542  -0.487353
    16  H    0.068023   0.070492
    17  H   -0.477478   0.632206
    18  H   -0.077654   0.189612
    19  H   -0.206738   0.377106
    20  H   -0.168083   0.322718
    21  H    0.044843   0.073121
    22  H   -0.391081   0.556030
    23  H   -0.284820   0.447432
    24  H   -0.497400   0.654704
    25  H   -0.152870   0.294453
    26  H    0.061517   0.070132
    27  H    0.239318  -0.064430
    28  H    0.236099  -0.125477
    29  H   -0.407170   0.590074
    30  H   -0.263009   0.448490
    31  H    0.243940  -0.119921
    32  H    0.227342  -0.078940
    33  H    0.137361   0.061456
    34  H    0.202804   0.074452
    35  H    0.146953   0.099768
    36  H    0.116050   0.048961
    37  H    0.006777   0.124561
    38  H   -0.138912   0.264106
    39  H   -0.208194   0.315095
    40  H    0.361837  -0.209880
    41  H   -0.089391   0.247589
 Sum of Mulliken charges =  -1.00000   1.00000

 Dipole moment (field-independent basis, Debye):
    X=              4.6475    Y=             -0.6710    Z=             -0.8047  Tot=              4.7641
 Quadrupole moment (field-independent basis, Debye-Ang):
   XX=           -168.4251   YY=           -153.3661   ZZ=           -137.2616
   XY=              2.0323   XZ=              0.2121   YZ=              0.5004

 Summary of Natural Population Analysis:

                                       Natural Population
                Natural  -----------------------------------------------
    Atom  No    Charge         Core      Valence    Rydberg      Total
 -----------------------------------------------------------------------
      C    1   -0.28723      0.99965     2.28179    0.00579     3.28723
      C    2   -0.09014      0.99959     2.07918    0.01138     3.09014
      N    3   -0.19547      0.99970     2.67734    0.01843     3.69547
      C    4   -0.07607      0.99960     2.06443    0.01203     3.07607
      C    5   -0.29808      0.99966     2.29338    0.00504     3.29808
      N    6   -0.21724      0.99965     2.69825    0.01934     3.71724
      C    7   -0.09295      0.99959     2.08217    0.01120     3.09295
      C    8   -0.19712      0.99962     2.18963    0.00787     3.19712
      C    9   -0.19087      0.99962     2.18254    0.00871     3.19087
      C   10   -0.20624      0.99955     2.19647    0.01022     3.20624
      C   11    0.27470      0.99957     1.70766    0.01807     2.72530
      N   12   -0.43035      0.99973     2.92149    0.00912     3.93035
      N   13   -0.29513      0.99968     2.78326    0.01219     3.79513
      C   14   -0.17646      0.99964     2.16995    0.00686     3.17646
      C   15   -0.18321      0.99963     2.17447    0.00911     3.18321
      H   16    0.09678      0.00000     0.40193    0.00129     0.40322
      H   17    0.10036      0.00000     0.39850    0.00115     0.39964
      H   18    0.09401      0.00000     0.40453    0.00146     0.40599
      H   19    0.09817      0.00000     0.40002    0.00181     0.40183
      H   20    0.08636      0.00000     0.41188    0.00176     0.41364
      H   21    0.09068      0.00000     0.40773    0.00159     0.40932
      H   22    0.09155      0.00000     0.40689    0.00156     0.40845
      H   23    0.09825      0.00000     0.40015    0.00160     0.40175
      H   24    0.10088      0.00000     0.39777    0.00135     0.39912
      H   25    0.09740      0.00000     0.40135    0.00125     0.40260
      H   26    0.10023      0.00000     0.39811    0.00166     0.39977
      H   27    0.10095      0.00000     0.39774    0.00132     0.39905
      H   28    0.09367      0.00000     0.40465    0.00167     0.40633
      H   29    0.09782      0.00000     0.40112    0.00106     0.40218
      H   30    0.09708      0.00000     0.40199    0.00093     0.40292
      H   31    0.09773      0.00000     0.40080    0.00147     0.40227
      H   32    0.10017      0.00000     0.39839    0.00144     0.39983
      H   33    0.10396      0.00000     0.39507    0.00097     0.39604
      H   34    0.18457      0.00000     0.31348    0.00195     0.31543
      H   35    0.17536      0.00000     0.32260    0.00204     0.32464
      H   36    0.08917      0.00000     0.40935    0.00147     0.41083
      H   37    0.09307      0.00000     0.40597    0.00096     0.40693
      H   38    0.09396      0.00000     0.40499    0.00105     0.40604
      H   39    0.07806      0.00000     0.42065    0.00129     0.42194
      H   40    0.10766      0.00000     0.39085    0.00149     0.39234
      H   41    0.09396      0.00000     0.40518    0.00086     0.40604
 =======================================================================
   * Total *    0.00000     14.99448    44.80370    0.20182    60.00000

 Normal termination of Gaussian 16 at Thu Dec 10 18:37:29 2020.
