 Gaussian 16, Revision A.03,

 -----------------------------------------------------------
 # opt freq B3LYP/6-31G(d) empiricaldispersion=gd3bj scf=xqc
 -----------------------------------------------------------

 ------------------------------
 CID_70380530_JID_7832_neutraal
 ------------------------------
 Symbolic Z-matrix:
 Charge =  0 Multiplicity = 1

 SCF Done:  E(RB3LYP) =  -752.621791274     A.U. after   15 cycles
 SCF Done:  E(RB3LYP) =  -752.626526735     A.U. after   12 cycles
 SCF Done:  E(RB3LYP) =  -752.627325709     A.U. after   12 cycles
 SCF Done:  E(RB3LYP) =  -752.627392188     A.U. after   13 cycles
 SCF Done:  E(RB3LYP) =  -752.628073834     A.U. after   12 cycles
 SCF Done:  E(RB3LYP) =  -752.628376336     A.U. after   11 cycles
 SCF Done:  E(RB3LYP) =  -752.628156702     A.U. after   11 cycles
 SCF Done:  E(RB3LYP) =  -752.628618876     A.U. after   11 cycles
 SCF Done:  E(RB3LYP) =  -752.628732864     A.U. after   10 cycles
 SCF Done:  E(RB3LYP) =  -752.628805188     A.U. after   10 cycles
 SCF Done:  E(RB3LYP) =  -752.629020536     A.U. after    7 cycles
 SCF Done:  E(RB3LYP) =  -752.629020646     A.U. after    7 cycles
 SCF Done:  E(RB3LYP) =  -752.629020765     A.U. after    7 cycles
 SCF Done:  E(RB3LYP) =  -752.629020838     A.U. after    7 cycles
 SCF Done:  E(RB3LYP) =  -752.629020871     A.U. after    6 cycles
 Optimization completed.
    -- Stationary point found.
 Normal termination of Gaussian 16 at Fri Dec 11 13:32:55 2020.

 --------------------------------------------------------------------
 #N Geom=AllCheck Guess=TCheck SCRF=Check GenChk RB3LYP/6-31G(d) Freq
 --------------------------------------------------------------------

 Structure from the checkpoint file:  "JID_7832.chk"
 ------------------------------
 CID_70380530_JID_7832_neutraal
 ------------------------------
 Charge =  0 Multiplicity = 1

 SCF Done:  E(RB3LYP) =  -752.629020871     A.U. after    1 cycles

  Exact polarizability: 199.796   0.964 163.477  -2.008  -3.386 107.319
 Approx polarizability: 258.685   3.019 243.214  -0.309  -4.166 170.509

                      1                      2                      3
                      A                      A                      A
 Frequencies --     15.2589                27.7236                37.2664
 Red. masses --      3.4768                 4.1330                 4.9577
 Frc consts  --      0.0005                 0.0019                 0.0041
 IR Inten    --      0.2959                 0.4587                 0.6442

                      4                      5                      6
                      A                      A                      A
 Frequencies --     53.0730                55.0099                68.7385
 Red. masses --      3.1793                 3.8459                 3.3751
 Frc consts  --      0.0053                 0.0069                 0.0094
 IR Inten    --      0.1224                 1.0161                 2.0662

                      7                      8                      9
                      A                      A                      A
 Frequencies --     74.3460                84.6316               101.7635
 Red. masses --      4.3486                 2.8316                 3.3987
 Frc consts  --      0.0142                 0.0119                 0.0207
 IR Inten    --      2.8146                 3.0060                 1.5428

                     10                     11                     12
                      A                      A                      A
 Frequencies --    111.5734               144.2239               147.9371
 Red. masses --      1.0654                 3.0116                 4.8692
 Frc consts  --      0.0078                 0.0369                 0.0628
 IR Inten    --      1.3805                 2.0328                 0.6383

                     13                     14                     15
                      A                      A                      A
 Frequencies --    184.1753               191.5339               199.6542
 Red. masses --      1.9562                 3.2756                 1.4564
 Frc consts  --      0.0391                 0.0708                 0.0342
 IR Inten    --     10.4324                 5.9756                 3.2858

                     16                     17                     18
                      A                      A                      A
 Frequencies --    212.6308               267.3491               269.3380
 Red. masses --      1.1530                 1.3928                 3.4612
 Frc consts  --      0.0307                 0.0587                 0.1479
 IR Inten    --     81.0700                 3.7743                 0.3785

                     19                     20                     21
                      A                      A                      A
 Frequencies --    295.9494               330.3429               342.0184
 Red. masses --      1.8899                 2.0505                 1.2226
 Frc consts  --      0.0975                 0.1318                 0.0843
 IR Inten    --      2.0663                 9.0865               111.3079

                     22                     23                     24
                      A                      A                      A
 Frequencies --    357.3172               393.7651               426.2603
 Red. masses --      2.0423                 2.5720                 3.3161
 Frc consts  --      0.1536                 0.2350                 0.3550
 IR Inten    --     13.7369                 5.9415                 0.2383

                     25                     26                     27
                      A                      A                      A
 Frequencies --    427.9254               480.7195               507.7907
 Red. masses --      5.1572                 2.6394                 3.6700
 Frc consts  --      0.5564                 0.3594                 0.5576
 IR Inten    --      5.4629                 5.5153                 5.4734

                     28                     29                     30
                      A                      A                      A
 Frequencies --    537.4223               568.9537               632.5900
 Red. masses --      3.7988                 3.3292                 6.4542
 Frc consts  --      0.6464                 0.6350                 1.5217
 IR Inten    --      3.9440                 4.8497                 0.2071

                     31                     32                     33
                      A                      A                      A
 Frequencies --    677.6643               706.7997               735.4371
 Red. masses --      3.7221                 2.4945                 1.5395
 Frc consts  --      1.0071                 0.7342                 0.4906
 IR Inten    --      3.5366                15.6047                20.7873

                     34                     35                     36
                      A                      A                      A
 Frequencies --    753.5692               768.4361               809.2981
 Red. masses --      1.9301                 1.6721                 1.9158
 Frc consts  --      0.6458                 0.5817                 0.7393
 IR Inten    --     22.7452                 6.9165                 0.7669

                     37                     38                     39
                      A                      A                      A
 Frequencies --    816.3122               836.9704               852.6732
 Red. masses --      1.7431                 2.7832                 1.3596
 Frc consts  --      0.6844                 1.1487                 0.5824
 IR Inten    --      1.2750                 4.6957                 2.7856

                     40                     41                     42
                      A                      A                      A
 Frequencies --    858.7753               890.9541               919.3588
 Red. masses --      2.6826                 1.5933                 1.9149
 Frc consts  --      1.1657                 0.7452                 0.9536
 IR Inten    --     15.7773                 0.9137                15.4535

                     43                     44                     45
                      A                      A                      A
 Frequencies --    947.6875               961.9073               971.3232
 Red. masses --      2.1967                 2.0062                 1.3360
 Frc consts  --      1.1624                 1.0937                 0.7427
 IR Inten    --     24.5733                 0.3616                 2.4514

                     46                     47                     48
                      A                      A                      A
 Frequencies --    978.1099               995.5094              1014.3744
 Red. masses --      1.7190                 1.2597                 1.5872
 Frc consts  --      0.9690                 0.7356                 0.9622
 IR Inten    --      3.9684                 2.2942                 5.0544

                     49                     50                     51
                      A                      A                      A
 Frequencies --   1024.3995              1055.9553              1060.0971
 Red. masses --      6.1860                 2.0889                 1.8848
 Frc consts  --      3.8247                 1.3723                 1.2479
 IR Inten    --      3.7553                 5.7526                 1.3605

                     52                     53                     54
                      A                      A                      A
 Frequencies --   1070.6264              1104.0197              1107.4308
 Red. masses --      1.4272                 2.0742                 1.4974
 Frc consts  --      0.9639                 1.4895                 1.0820
 IR Inten    --      7.7672                12.3684                 4.9319

                     55                     56                     57
                      A                      A                      A
 Frequencies --   1117.1492              1150.8392              1167.6861
 Red. masses --      1.8558                 2.1238                 1.1797
 Frc consts  --      1.3646                 1.6572                 0.9477
 IR Inten    --     73.4733                28.7750               188.7312

                     58                     59                     60
                      A                      A                      A
 Frequencies --   1177.5311              1191.9996              1199.7410
 Red. masses --      2.1067                 1.1067                 1.1633
 Frc consts  --      1.7211                 0.9265                 0.9865
 IR Inten    --     28.5964                 0.8528                 9.7708

                     61                     62                     63
                      A                      A                      A
 Frequencies --   1235.2485              1241.7596              1254.9921
 Red. masses --      1.8826                 2.7803                 2.1708
 Frc consts  --      1.6925                 2.5259                 2.0145
 IR Inten    --    255.7416                62.2832               171.5231

                     64                     65                     66
                      A                      A                      A
 Frequencies --   1282.1046              1318.5297              1327.8183
 Red. masses --      1.4618                 1.2676                 1.3154
 Frc consts  --      1.4158                 1.2984                 1.3665
 IR Inten    --     40.3387                45.6510                 8.4381

                     67                     68                     69
                      A                      A                      A
 Frequencies --   1339.2209              1346.0915              1366.0552
 Red. masses --      1.2882                 1.8171                 2.5369
 Frc consts  --      1.3613                 1.9399                 2.7893
 IR Inten    --      9.5698                 0.8413                 0.7404

                     70                     71                     72
                      A                      A                      A
 Frequencies --   1366.8863              1392.3720              1399.9827
 Red. masses --      1.2958                 1.3682                 1.3969
 Frc consts  --      1.4264                 1.5628                 1.6131
 IR Inten    --      2.3624                11.2079                 1.2179

                     73                     74                     75
                      A                      A                      A
 Frequencies --   1410.2672              1429.5927              1447.3733
 Red. masses --      1.4090                 1.4813                 1.2590
 Frc consts  --      1.6510                 1.7837                 1.5539
 IR Inten    --      0.9932                 0.4374                 2.2056

                     76                     77                     78
                      A                      A                      A
 Frequencies --   1448.7886              1505.4395              1511.0124
 Red. masses --      1.2518                 2.2682                 1.0760
 Frc consts  --      1.5481                 3.0287                 1.4474
 IR Inten    --      9.6977                 2.1247                 1.7636

                     79                     80                     81
                      A                      A                      A
 Frequencies --   1522.7155              1526.2595              1529.2387
 Red. masses --      1.0623                 1.0619                 1.0585
 Frc consts  --      1.4512                 1.4574                 1.4585
 IR Inten    --      5.0518                 1.1199                 1.1425

                     82                     83                     84
                      A                      A                      A
 Frequencies --   1531.6348              1539.3283              1542.0900
 Red. masses --      1.0578                 1.0768                 1.0730
 Frc consts  --      1.4621                 1.5034                 1.5034
 IR Inten    --     10.9443                18.0768                 4.5455

                     85                     86                     87
                      A                      A                      A
 Frequencies --   1544.2262              1553.0155              1657.9547
 Red. masses --      2.1831                 1.0606                 5.7523
 Frc consts  --      3.0672                 1.5071                 9.3161
 IR Inten    --     53.5871                 0.1976                17.8165

                     88                     89                     90
                      A                      A                      A
 Frequencies --   1661.1502              1716.4246              1734.7694
 Red. masses --      6.1260                 1.0738                 1.0650
 Frc consts  --      9.9597                 1.8640                 1.8883
 IR Inten    --     16.7825                17.2462                 9.6813

                     91                     92                     93
                      A                      A                      A
 Frequencies --   1817.8341              3030.4506              3033.5770
 Red. masses --     10.7978                 1.0606                 1.0656
 Frc consts  --     21.0230                 5.7388                 5.7778
 IR Inten    --    212.1919                27.1825                20.9630

                     94                     95                     96
                      A                      A                      A
 Frequencies --   3044.4260              3051.4888              3057.9104
 Red. masses --      1.0386                 1.0629                 1.0361
 Frc consts  --      5.6716                 5.8311                 5.7083
 IR Inten    --     23.6719                11.1365                19.1629

                     97                     98                     99
                      A                      A                      A
 Frequencies --   3060.9454              3065.8731              3077.7966
 Red. masses --      1.0919                 1.0960                 1.0715
 Frc consts  --      6.0278                 6.0695                 5.9801
 IR Inten    --     36.5171                55.4273                13.7484

                    100                    101                    102
                      A                      A                      A
 Frequencies --   3083.0661              3086.3860              3105.8616
 Red. masses --      1.0869                 1.0974                 1.1016
 Frc consts  --      6.0870                 6.1593                 6.2608
 IR Inten    --     27.6369                17.3800                45.1160

                    103                    104                    105
                      A                      A                      A
 Frequencies --   3113.1982              3122.8248              3126.0204
 Red. masses --      1.1021                 1.1015                 1.1011
 Frc consts  --      6.2936                 6.3292                 6.3396
 IR Inten    --     48.0815                33.7813                19.8308

                    106                    107                    108
                      A                      A                      A
 Frequencies --   3131.2379              3187.4314              3196.9445
 Red. masses --      1.1023                 1.0853                 1.0892
 Frc consts  --      6.3679                 6.4966                 6.5591
 IR Inten    --     43.6777                 0.7198                15.1416

                    109                    110                    111
                      A                      A                      A
 Frequencies --   3208.7539              3216.9800              3220.2049
 Red. masses --      1.0929                 1.0948                 1.0967
 Frc consts  --      6.6296                 6.6754                 6.7008
 IR Inten    --     25.4066                 7.5596                 7.9801

                    112                    113                    114
                      A                      A                      A
 Frequencies --   3439.1498              3568.1108              3569.7558
 Red. masses --      1.0278                 1.0890                 1.0896
 Frc consts  --      7.1622                 8.1685                 8.1811
 IR Inten    --     12.8789                 5.8188                 9.7842

 - Thermochemistry -
 -------------------
 Temperature   298.150 Kelvin.  Pressure   1.00000 Atm.
 Atom     1 has atomic number  6 and mass  12.00000

 Molecular mass:   237.17288 amu.
 Principal axes and moments of inertia in atomic units:
                           1         2         3
     Eigenvalues --  2459.823327086.783408476.28637
           X            0.99999  -0.00409   0.00312
           Y            0.00407   0.99997   0.00719
           Z           -0.00315  -0.00717   0.99997
 This molecule is an asymmetric top.
 Rotational symmetry number  1.
 Warning -- assumption of classical behavior for rotation
           may cause significant error
 Rotational temperatures (Kelvin)      0.03521     0.01222     0.01022
 Rotational constants (GHZ):           0.73369     0.25466     0.21292
 Zero-point vibrational energy     925721.1 (Joules/Mol)
                                  221.25266 (Kcal/Mol)
 Warning -- explicit consideration of  29 degrees of freedom as
           vibrations may cause significant error
 Vibrational temperatures:     21.95    39.89    53.62    76.36    79.15
          (Kelvin)             98.90   106.97   121.77   146.41   160.53
                              207.51   212.85   264.99   275.57   287.26
                              305.93   384.66   387.52   425.81   475.29
                              492.09   514.10   566.54   613.29   615.69
                              691.65   730.60   773.23   818.60   910.16
                              975.01  1016.93  1058.13  1084.22  1105.61
                             1164.40  1174.49  1204.21  1226.81  1235.59
                             1281.88  1322.75  1363.51  1383.97  1397.52
                             1407.28  1432.32  1459.46  1473.88  1519.28
                             1525.24  1540.39  1588.44  1593.35  1607.33
                             1655.80  1680.04  1694.20  1715.02  1726.16
                             1777.25  1786.62  1805.65  1844.66  1897.07
                             1910.43  1926.84  1936.73  1965.45  1966.64
                             2003.31  2014.26  2029.06  2056.86  2082.45
                             2084.48  2165.99  2174.01  2190.85  2195.95
                             2200.23  2203.68  2214.75  2218.72  2221.80
                             2234.44  2385.43  2390.02  2469.55  2495.95
                             2615.46  4360.14  4364.64  4380.25  4390.41
                             4399.65  4404.02  4411.11  4428.26  4435.84
                             4440.62  4468.64  4479.20  4493.05  4497.65
                             4505.15  4586.00  4599.69  4616.68  4628.52
                             4633.16  4948.17  5133.72  5136.08

 Zero-point correction=                           0.352589 (Hartree/Particle)
 Thermal correction to Energy=                    0.373088
 Thermal correction to Enthalpy=                  0.374033
 Thermal correction to Gibbs Free Energy=         0.300635
 Sum of electronic and zero-point Energies=           -752.276432
 Sum of electronic and thermal Energies=              -752.255932
 Sum of electronic and thermal Enthalpies=            -752.254988
 Sum of electronic and thermal Free Energies=         -752.328385

                     E (Thermal)             CV                S
                      KCal/Mol        Cal/Mol-Kelvin    Cal/Mol-Kelvin
 Total                  234.117             73.187            154.477
 Electronic               0.000              0.000              0.000
 Translational            0.889              2.981             42.292
 Rotational               0.889              2.981             33.357
 Vibrational            232.339             67.225             78.828
 Vibration     1          0.593              1.986              7.172
 Vibration     2          0.593              1.984              5.986
 Vibration     3          0.594              1.982              5.399
 Vibration     4          0.596              1.976              4.699
 Vibration     5          0.596              1.976              4.629
 Vibration     6          0.598              1.969              4.189
 Vibration     7          0.599              1.966              4.035
 Vibration     8          0.601              1.960              3.780
 Vibration     9          0.604              1.948              3.420
 Vibration    10          0.607              1.940              3.241
 Vibration    11          0.616              1.909              2.747
 Vibration    12          0.617              1.905              2.699
 Vibration    13          0.631              1.861              2.286
 Vibration    14          0.634              1.852              2.213
 Vibration    15          0.638              1.840              2.136
 Vibration    16          0.644              1.822              2.021
 Vibration    17          0.672              1.733              1.613
 Vibration    18          0.674              1.730              1.600
 Vibration    19          0.690              1.681              1.440
 Vibration    20          0.713              1.615              1.258
 Vibration    21          0.721              1.591              1.203
 Vibration    22          0.732              1.560              1.134
 Vibration    23          0.761              1.484              0.986
 Vibration    24          0.788              1.413              0.871
 Vibration    25          0.789              1.409              0.865
 Vibration    26          0.837              1.293              0.708
 Vibration    27          0.863              1.233              0.639
 Vibration    28          0.892              1.167              0.571
 Vibration    29          0.925              1.098              0.506

                           ! Non-Optimized Parameters !
 Normal termination of Gaussian 16 at Fri Dec 11 13:48:15 2020.

 ----------------------------------------------------------------------
 # B3LYP/6-311++G(d,p) empiricaldispersion=gd3bj scf=xqc pop=npa geom=c
 heck
 ----------------------------------------------------------------------

 --------------------------------------
 CID_70380530_JID_7832_Energie_neutraal
 --------------------------------------
 Structure from the checkpoint file:  "JID_7832.chk"
 Charge =  0 Multiplicity = 1

 SCF Done:  E(RB3LYP) =  -752.851843787     A.U. after   14 cycles
 Normal termination of Gaussian 16 at Fri Dec 11 13:55:49 2020.

 ----------------------------------------------------------------------
 # B3LYP/6-311++G(d,p) empiricaldispersion=gd3bj scf=xqc pop=npa geom=c
 heck
 ----------------------------------------------------------------------

 ------------------------------------
 CID_70380530_JID_7832_Energie_kation
 ------------------------------------
 Structure from the checkpoint file:  "JID_7832.chk"
 Charge =  1 Multiplicity = 2

 SCF Done:  E(UB3LYP) =  -752.531815140     A.U. after   26 cycles
 Normal termination of Gaussian 16 at Fri Dec 11 14:15:18 2020.
 Gaussian 16:  ES64L-G16RevA.03 25-Dec-2016

 ----------------------------------------------------------------------
 # B3LYP/6-311++G(d,p) empiricaldispersion=gd3bj scf=xqc pop=npa geom=c
 heck
 ----------------------------------------------------------------------

 -----------------------------------
 CID_70380530_JID_7832_Energie_anion
 -----------------------------------
 Structure from the checkpoint file:  "JID_7832.chk"
 Charge = -1 Multiplicity = 2

                         Standard orientation:
 ---------------------------------------------------------------------
 Center     Atomic      Atomic             Coordinates (Angstroms)
 Number     Number       Type             X           Y           Z
 ---------------------------------------------------------------------
      1          6           0       -3.929778    2.086661   -0.369469
      2          6           0       -4.266676    0.596316   -0.256467
      3          6           0       -3.417565   -0.299018   -1.172397
      4          6           0       -1.902084   -0.223680   -0.933555
      5          6           0       -1.473788   -0.604818    0.494350
      6          6           0       -1.821647   -2.057614    0.908480
      7          6           0       -1.244882   -3.148056    0.002125
      8          6           0       -0.003574   -0.339897    0.747607
      9          8           0        0.463458    0.027330    1.803058
     10          8           0        0.761485   -0.589592   -0.356549
     11          6           0        2.105270   -0.206352   -0.316116
     12          6           0        2.426959    1.139953   -0.463324
     13          6           0        3.771122    1.507999   -0.494630
     14          6           0        4.771291    0.538825   -0.383967
     15          6           0        4.425660   -0.805546   -0.240324
     16          6           0        3.083227   -1.186414   -0.203892
     17          7           0       -0.362077    2.847896    0.888239
     18          1           0       -2.892593    2.292717   -0.084746
     19          1           0       -4.584130    2.688178    0.271983
     20          1           0       -4.060202    2.438253   -1.400603
     21          1           0       -4.156477    0.273793    0.787833
     22          1           0       -5.325207    0.443603   -0.504403
     23          1           0       -3.757895   -1.338434   -1.074118
     24          1           0       -3.609627   -0.016877   -2.216696
     25          1           0       -1.390507   -0.869746   -1.653281
     26          1           0       -1.544456    0.792288   -1.132366
     27          1           0       -1.979153    0.053681    1.208228
     28          1           0       -1.472161   -2.207006    1.937353
     29          1           0       -2.913983   -2.146364    0.939698
     30          1           0       -0.154314   -3.079785   -0.065311
     31          1           0       -1.498352   -4.140534    0.390029
     32          1           0       -1.642298   -3.078410   -1.015806
     33          1           0        1.625422    1.866994   -0.549041
     34          1           0        4.038090    2.554759   -0.609350
     35          1           0        5.816918    0.830919   -0.411470
     36          1           0        5.200204   -1.562181   -0.155128
     37          1           0        2.790215   -2.225159   -0.091873
     38          1           0       -0.004348    2.157404    1.548177
     39          1           0        0.315444    3.609467    0.873663
     40          1           0       -1.206813    3.235109    1.306953
 ---------------------------------------------------------------------

 SCF Done:  E(UB3LYP) =  -752.840044279     A.U. after   33 cycles
 SCF Done:  E(UB3LYP) =  -752.840044279     a.u. after    1 cycles

 The electronic state is 2-A.
 Alpha  occ. eigenvalues --  -19.08422 -19.02249 -14.19011 -10.21228 -10.14860
 Alpha  occ. eigenvalues --  -10.09485 -10.09451 -10.09274 -10.09211 -10.08934
 Alpha  occ. eigenvalues --  -10.08825 -10.08633 -10.07384 -10.07322 -10.07270
 Alpha  occ. eigenvalues --  -10.07204 -10.06099  -1.02472  -0.93800  -0.77436
 Alpha  occ. eigenvalues --   -0.75256  -0.73684  -0.69359  -0.66959  -0.66743
 Alpha  occ. eigenvalues --   -0.64193  -0.60738  -0.56004  -0.54866  -0.53242
 Alpha  occ. eigenvalues --   -0.50688  -0.48239  -0.46380  -0.42368  -0.40992
 Alpha  occ. eigenvalues --   -0.40065  -0.39525  -0.38294  -0.36821  -0.36450
 Alpha  occ. eigenvalues --   -0.36365  -0.35635  -0.35273  -0.34231  -0.34124
 Alpha  occ. eigenvalues --   -0.32704  -0.31702  -0.31355  -0.29573  -0.29246
 Alpha  occ. eigenvalues --   -0.28491  -0.27998  -0.27672  -0.27022  -0.25812
 Alpha  occ. eigenvalues --   -0.25583  -0.25016  -0.23665  -0.23159  -0.22458
 Alpha  occ. eigenvalues --   -0.22211  -0.18767  -0.17434  -0.17350  -0.16343
 Alpha  occ. eigenvalues --    0.03953
 Alpha virt. eigenvalues --    0.05460   0.05969   0.06784   0.06910   0.07054
 Alpha virt. eigenvalues --    0.07254   0.07567   0.08435   0.08866   0.09332
 Alpha virt. eigenvalues --    0.09496   0.09844   0.10538   0.11319   0.11595

  Beta  occ. eigenvalues --  -19.08410 -19.02235 -14.18962 -10.21199 -10.14850
  Beta  occ. eigenvalues --  -10.09482 -10.09442 -10.09264 -10.09196 -10.08914
  Beta  occ. eigenvalues --  -10.08816 -10.08617 -10.07371 -10.07303 -10.07252
  Beta  occ. eigenvalues --  -10.07201 -10.06073  -1.02441  -0.93773  -0.77407
  Beta  occ. eigenvalues --   -0.75136  -0.73660  -0.69327  -0.66923  -0.66713
  Beta  occ. eigenvalues --   -0.64164  -0.60698  -0.55961  -0.54820  -0.53207
  Beta  occ. eigenvalues --   -0.50637  -0.48194  -0.46337  -0.42321  -0.40959
  Beta  occ. eigenvalues --   -0.40028  -0.39488  -0.38259  -0.36773  -0.36400
  Beta  occ. eigenvalues --   -0.36322  -0.35588  -0.35242  -0.34201  -0.34091
  Beta  occ. eigenvalues --   -0.32662  -0.31675  -0.31309  -0.29542  -0.29222
  Beta  occ. eigenvalues --   -0.28447  -0.27974  -0.27634  -0.26993  -0.25778
  Beta  occ. eigenvalues --   -0.25555  -0.24986  -0.23642  -0.23126  -0.22430
  Beta  occ. eigenvalues --   -0.22169  -0.18747  -0.17379  -0.17318  -0.16291
  Beta virt. eigenvalues --    0.05817   0.06218   0.06668   0.06814   0.07126
  Beta virt. eigenvalues --    0.07520   0.07748   0.07813   0.08722   0.09297
  Beta virt. eigenvalues --    0.09559   0.09712   0.10061   0.10738   0.11558

 Mulliken charges and spin densities:
               1          2
     1  C    0.652501  -1.276480
     2  C   -1.213778   1.034886
     3  C    0.727028  -1.175895
     4  C   -0.389733   0.128485
     5  C   -0.112134   0.709217
     6  C   -0.342073  -0.073594
     7  C    0.043047  -0.619948
     8  C    0.191764  -0.957441
     9  O   -0.143566   0.016005
    10  O    0.189041   0.000883
    11  C   -0.513026  -0.142179
    12  C    0.517911   0.104851
    13  C   -0.023514  -0.082370
    14  C    0.714039  -1.047280
    15  C    0.263171  -0.484408
    16  C   -0.618633   0.678460
    17  N   -0.507847  -0.256516
    18  H    0.391881  -0.236718
    19  H   -0.351698   0.485796
    20  H    0.007945   0.117732
    21  H   -0.020061   0.154597
    22  H   -0.271874   0.434265
    23  H    0.078234   0.062245
    24  H   -0.065411   0.226187
    25  H    0.211433  -0.007600
    26  H    0.039703   0.114170
    27  H    0.102854   0.163235
    28  H    0.050067   0.108689
    29  H   -0.092413   0.277633
    30  H    0.094666   0.056343
    31  H   -0.095099   0.235291
    32  H   -0.032770   0.169963
    33  H    0.428672  -0.244404
    34  H   -0.509281   0.701393
    35  H   -0.225538   0.372845
    36  H   -0.247627   0.429781
    37  H   -0.019693   0.153227
    38  H    0.236188   0.011078
    39  H   -0.088004   0.352251
    40  H   -0.056374   0.305324
 Sum of Mulliken charges =  -1.00000   1.00000

 Dipole moment (field-independent basis, Debye):
    X=              0.0155    Y=             -3.6215    Z=             -1.4018  Tot=              3.8834
 Quadrupole moment (field-independent basis, Debye-Ang):
   XX=           -201.9896   YY=           -160.6607   ZZ=           -138.0798
   XY=             -0.4195   XZ=              0.3221   YZ=             -2.7558

 Summary of Natural Population Analysis:

                                       Natural Population
                Natural  -----------------------------------------------
    Atom  No    Charge         Core      Valence    Rydberg      Total
 -----------------------------------------------------------------------
      C    1   -0.29178      0.99966     2.28623    0.00588     3.29178
      C    2   -0.19133      0.99964     2.18426    0.00743     3.19133
      C    3   -0.18936      0.99963     2.18113    0.00860     3.18936
      C    4   -0.19486      0.99961     2.18722    0.00803     3.19486
      C    5   -0.15511      0.99953     2.14423    0.01136     3.15511
      C    6   -0.18602      0.99962     2.17829    0.00811     3.18602
      C    7   -0.29069      0.99966     2.28511    0.00592     3.29069
      C    8    0.43120      0.99963     1.54269    0.02649     2.56880
      O    9   -0.30600      0.99987     3.30047    0.00566     4.30600
      O   10   -0.28097      0.99984     3.27183    0.00930     4.28097
      C   11    0.15132      0.99934     1.83647    0.01287     2.84868
      C   12   -0.11498      0.99950     2.10556    0.00992     3.11498
      C   13   -0.09399      0.99957     2.08427    0.01015     3.09399
      C   14   -0.10543      0.99956     2.09633    0.00954     3.10543
      C   15   -0.09774      0.99957     2.08814    0.01003     3.09774
      C   16   -0.11586      0.99950     2.10683    0.00953     3.11586
      N   17   -0.53295      0.99981     3.02479    0.00835     4.03295
      H   18    0.10403      0.00000     0.39453    0.00144     0.39597
      H   19    0.09852      0.00000     0.40048    0.00100     0.40148
      H   20    0.09391      0.00000     0.40512    0.00097     0.40609
      H   21    0.09215      0.00000     0.40649    0.00136     0.40785
      H   22    0.09502      0.00000     0.40387    0.00111     0.40498
      H   23    0.09575      0.00000     0.40315    0.00110     0.40425
      H   24    0.09603      0.00000     0.40309    0.00089     0.40397
      H   25    0.10304      0.00000     0.39575    0.00121     0.39696
      H   26    0.10889      0.00000     0.38956    0.00156     0.39111
      H   27    0.11279      0.00000     0.38506    0.00215     0.38721
      H   28    0.10063      0.00000     0.39834    0.00103     0.39937
      H   29    0.10004      0.00000     0.39886    0.00111     0.39996
      H   30    0.09971      0.00000     0.39912    0.00116     0.40029
      H   31    0.09917      0.00000     0.40007    0.00077     0.40083
      H   32    0.09773      0.00000     0.40139    0.00088     0.40227
      H   33    0.11613      0.00000     0.38170    0.00217     0.38387
      H   34    0.10360      0.00000     0.39514    0.00126     0.39640
      H   35    0.10225      0.00000     0.39658    0.00117     0.39775
      H   36    0.10184      0.00000     0.39716    0.00100     0.39816
      H   37    0.10667      0.00000     0.39221    0.00111     0.39333
      H   38    0.18476      0.00000     0.31334    0.00190     0.31524
      H   39    0.17593      0.00000     0.32191    0.00216     0.32407
      H   40    0.17596      0.00000     0.32214    0.00190     0.32404
 =======================================================================
   * Total *   -0.00000     16.99353    47.80890    0.19756    65.00000

 Normal termination of Gaussian 16 at Fri Dec 11 14:39:31 2020.
