 Gaussian 16, Revision A.03,

 -----------------------------------------------------------
 # opt freq B3LYP/6-31G(d) empiricaldispersion=gd3bj scf=xqc
 -----------------------------------------------------------

 ------------------------------
 CID_65044493_JID_9870_neutraal
 ------------------------------
 Symbolic Z-matrix:
 Charge =  0 Multiplicity = 1

 SCF Done:  E(RB3LYP) =  -1243.22408209     A.U. after   15 cycles
 SCF Done:  E(RB3LYP) =  -1243.23278265     A.U. after   13 cycles
 SCF Done:  E(RB3LYP) =  -1243.23373592     A.U. after   12 cycles
 SCF Done:  E(RB3LYP) =  -1243.23444445     A.U. after   13 cycles
 SCF Done:  E(RB3LYP) =  -1243.23506784     A.U. after   13 cycles
 SCF Done:  E(RB3LYP) =  -1243.23556887     A.U. after   13 cycles
 SCF Done:  E(RB3LYP) =  -1243.23592103     A.U. after   11 cycles
 SCF Done:  E(RB3LYP) =  -1243.23612624     A.U. after   11 cycles
 SCF Done:  E(RB3LYP) =  -1243.23623937     A.U. after   12 cycles
 SCF Done:  E(RB3LYP) =  -1243.23629360     A.U. after    9 cycles
 SCF Done:  E(RB3LYP) =  -1243.23657482     A.U. after    8 cycles
 SCF Done:  E(RB3LYP) =  -1243.23657534     A.U. after    8 cycles
 SCF Done:  E(RB3LYP) =  -1243.23657581     A.U. after    8 cycles
 SCF Done:  E(RB3LYP) =  -1243.23657588     A.U. after    7 cycles
 SCF Done:  E(RB3LYP) =  -1243.23657589     A.U. after    7 cycles
 Optimization completed.
    -- Stationary point found.
 Normal termination of Gaussian 16 at Mon Dec 14 13:51:32 2020.

 --------------------------------------------------------------------
 #N Geom=AllCheck Guess=TCheck SCRF=Check GenChk RB3LYP/6-31G(d) Freq
 --------------------------------------------------------------------

 Structure from the checkpoint file:  "JID_9870.chk"
 ------------------------------
 CID_65044493_JID_9870_neutraal
 ------------------------------
 Charge =  0 Multiplicity = 1

 SCF Done:  E(RB3LYP) =  -1243.23657589     A.U. after    1 cycles

  Exact polarizability: 202.763  10.945 155.578   2.708   0.049 152.389
 Approx polarizability: 255.059  19.198 245.525   3.182  -0.546 230.805

                      1                      2                      3
                      A                      A                      A
 Frequencies --     18.0191                24.8356                28.4831
 Red. masses --      6.0532                 3.6923                 4.8500
 Frc consts  --      0.0012                 0.0013                 0.0023
 IR Inten    --      0.6034                 0.7363                 2.0745

                      4                      5                      6
                      A                      A                      A
 Frequencies --     57.8661                70.2496                98.4574
 Red. masses --      5.4797                 4.2381                 3.6321
 Frc consts  --      0.0108                 0.0123                 0.0207
 IR Inten    --      4.4360                 0.1338                 1.5891

                      7                      8                      9
                      A                      A                      A
 Frequencies --    134.0500               147.9149               170.3345
 Red. masses --      3.7727                 2.0620                 2.6749
 Frc consts  --      0.0399                 0.0266                 0.0457
 IR Inten    --      3.4167                 0.1695                 1.4318

                     10                     11                     12
                      A                      A                      A
 Frequencies --    180.7454               197.6550               215.7346
 Red. masses --      2.0116                 1.1131                 4.1433
 Frc consts  --      0.0387                 0.0256                 0.1136
 IR Inten    --      0.9283                 0.2951                 2.8234

                     13                     14                     15
                      A                      A                      A
 Frequencies --    223.8238               236.4025               244.9217
 Red. masses --      3.2435                 1.6869                 2.3133
 Frc consts  --      0.0957                 0.0555                 0.0818
 IR Inten    --      2.2747                 2.7481                 4.6162

                     16                     17                     18
                      A                      A                      A
 Frequencies --    277.1928               291.1654               321.2074
 Red. masses --      3.2398                 3.7628                 3.3436
 Frc consts  --      0.1467                 0.1879                 0.2033
 IR Inten    --      2.0554                 0.6343                 0.1502

                     19                     20                     21
                      A                      A                      A
 Frequencies --    333.5112               371.8726               381.0513
 Red. masses --      2.5475                 2.8292                 2.8026
 Frc consts  --      0.1669                 0.2305                 0.2398
 IR Inten    --      4.6069                 1.9338                 0.2864

                     22                     23                     24
                      A                      A                      A
 Frequencies --    400.8313               433.3897               447.5681
 Red. masses --      3.8901                 3.6342                 3.0898
 Frc consts  --      0.3682                 0.4022                 0.3647
 IR Inten    --     22.2330                13.0186                 2.2209

                     25                     26                     27
                      A                      A                      A
 Frequencies --    463.5366               481.2123               496.3417
 Red. masses --      2.3422                 3.4771                 3.6934
 Frc consts  --      0.2965                 0.4744                 0.5361
 IR Inten    --      2.6410                11.8798                 8.9995

                     28                     29                     30
                      A                      A                      A
 Frequencies --    536.7897               588.7617               592.1992
 Red. masses --      2.9592                 4.0706                 3.2963
 Frc consts  --      0.5024                 0.8314                 0.6811
 IR Inten    --     18.5703                13.2310                 9.9851

                     31                     32                     33
                      A                      A                      A
 Frequencies --    600.5435               634.4446               640.6640
 Red. masses --      3.8032                 3.0374                 2.6327
 Frc consts  --      0.8082                 0.7203                 0.6367
 IR Inten    --      6.2377                 3.4850                 5.1436

                     34                     35                     36
                      A                      A                      A
 Frequencies --    681.5649               706.2672               724.6309
 Red. masses --      2.3937                 1.9008                 3.1084
 Frc consts  --      0.6551                 0.5586                 0.9617
 IR Inten    --     48.2414                44.5841                 0.6196

                     37                     38                     39
                      A                      A                      A
 Frequencies --    771.0468               787.6145               819.4003
 Red. masses --      2.2798                 1.7352                 1.5539
 Frc consts  --      0.7986                 0.6342                 0.6147
 IR Inten    --     23.3034                14.8094                 1.6578

                     40                     41                     42
                      A                      A                      A
 Frequencies --    846.8900               880.4184               891.6706
 Red. masses --      2.2711                 2.2841                 2.8268
 Frc consts  --      0.9597                 1.0432                 1.3242
 IR Inten    --      5.7642                 7.9563                 0.2513

                     43                     44                     45
                      A                      A                      A
 Frequencies --    928.4018               941.3605               969.1520
 Red. masses --      2.1227                 1.6992                 2.1771
 Frc consts  --      1.0780                 0.8872                 1.2048
 IR Inten    --      4.9271                 9.9363                 0.8199

                     46                     47                     48
                      A                      A                      A
 Frequencies --    976.5466               984.2800               990.8101
 Red. masses --      1.8585                 1.3297                 1.6744
 Frc consts  --      1.0443                 0.7590                 0.9685
 IR Inten    --      9.5847                 0.5656                24.2282

                     49                     50                     51
                      A                      A                      A
 Frequencies --    994.6337              1004.6567              1013.5586
 Red. masses --      1.6254                 2.0207                 1.9572
 Frc consts  --      0.9474                 1.2017                 1.1846
 IR Inten    --     25.8201                15.9019                 5.9485

                     52                     53                     54
                      A                      A                      A
 Frequencies --   1032.5613              1052.4835              1060.3214
 Red. masses --      1.8827                 2.5294                 1.7222
 Frc consts  --      1.1827                 1.6508                 1.1408
 IR Inten    --      4.7670                 1.1920                 5.9475

                     55                     56                     57
                      A                      A                      A
 Frequencies --   1073.3729              1100.7505              1113.3215
 Red. masses --      1.8227                 5.9721                 2.6921
 Frc consts  --      1.2373                 4.2634                 1.9660
 IR Inten    --     17.8204               117.8023                13.3886

                     58                     59                     60
                      A                      A                      A
 Frequencies --   1116.3681              1131.6083              1161.8502
 Red. masses --      2.9194                 2.9498                 1.4747
 Frc consts  --      2.1436                 2.2255                 1.1729
 IR Inten    --     13.1698                14.8172                 8.8740

                     61                     62                     63
                      A                      A                      A
 Frequencies --   1187.5784              1191.6346              1206.9279
 Red. masses --      1.9072                 1.3445                 1.7232
 Frc consts  --      1.5848                 1.1248                 1.4789
 IR Inten    --     74.5372                12.9157                17.2174

                     64                     65                     66
                      A                      A                      A
 Frequencies --   1228.1238              1234.1283              1241.7122
 Red. masses --      1.7131                 1.7541                 1.8971
 Frc consts  --      1.5224                 1.5741                 1.7234
 IR Inten    --      0.2754                 5.9138                11.0511

                     67                     68                     69
                      A                      A                      A
 Frequencies --   1260.4191              1280.5762              1288.5467
 Red. masses --      1.4227                 1.4383                 1.4823
 Frc consts  --      1.3316                 1.3897                 1.4501
 IR Inten    --      8.6625               138.4777                54.3925

                     70                     71                     72
                      A                      A                      A
 Frequencies --   1299.6944              1304.2324              1311.0630
 Red. masses --      1.9520                 1.3903                 2.0897
 Frc consts  --      1.9427                 1.3934                 2.1163
 IR Inten    --     62.2131                33.3787               106.7726

                     73                     74                     75
                      A                      A                      A
 Frequencies --   1322.3575              1338.1516              1344.0861
 Red. masses --      1.7429                 1.3601                 1.2772
 Frc consts  --      1.7957                 1.4349                 1.3594
 IR Inten    --     57.7080                 2.5869                 6.3278

                     76                     77                     78
                      A                      A                      A
 Frequencies --   1347.6802              1357.6865              1365.3077
 Red. masses --      1.3756                 1.4205                 1.3275
 Frc consts  --      1.4720                 1.5427                 1.4580
 IR Inten    --      0.3572                 2.3337                 7.7469

                     79                     80                     81
                      A                      A                      A
 Frequencies --   1377.3506              1385.9377              1389.9651
 Red. masses --      1.2511                 1.3130                 1.3480
 Frc consts  --      1.3983                 1.4859                 1.5345
 IR Inten    --     12.6293                 8.0704                 7.7441

                     82                     83                     84
                      A                      A                      A
 Frequencies --   1400.6329              1413.4466              1421.8468
 Red. masses --      1.3775                 1.2626                 1.3717
 Frc consts  --      1.5922                 1.4862                 1.6338
 IR Inten    --     28.2823                10.3191                21.8828

                     85                     86                     87
                      A                      A                      A
 Frequencies --   1438.0410              1481.3989              1482.4316
 Red. masses --      1.3714                 2.0797                 1.1326
 Frc consts  --      1.6709                 2.6891                 1.4664
 IR Inten    --      2.2906               174.0917                48.5769

                     88                     89                     90
                      A                      A                      A
 Frequencies --   1485.2784              1502.5530              1504.3104
 Red. masses --      1.0512                 1.1129                 1.0874
 Frc consts  --      1.3663                 1.4803                 1.4498
 IR Inten    --      8.8964                 3.8790                 4.9308

                     91                     92                     93
                      A                      A                      A
 Frequencies --   1515.0751              1518.8561              1521.7405
 Red. masses --      1.0866                 1.0776                 1.0872
 Frc consts  --      1.4696                 1.4647                 1.4834
 IR Inten    --     11.0717                12.2434                 7.3138

                     94                     95                     96
                      A                      A                      A
 Frequencies --   1524.5776              1535.7397              1536.0627
 Red. masses --      1.0710                 1.1174                 1.0843
 Frc consts  --      1.4667                 1.5527                 1.5074
 IR Inten    --      1.2817                 2.9071                 6.0160

                     97                     98                     99
                      A                      A                      A
 Frequencies --   1550.8714              1556.1553              1765.4979
 Red. masses --      1.1033                 1.2275                 9.5622
 Frc consts  --      1.5635                 1.7513                17.5608
 IR Inten    --      7.6056                89.0146               337.2961

                    100                    101                    102
                      A                      A                      A
 Frequencies --   2983.5985              3001.5852              3005.8298
 Red. masses --      1.0831                 1.0819                 1.0752
 Frc consts  --      5.6808                 5.7428                 5.7233
 IR Inten    --     17.5668                 6.1158                31.5143

                    103                    104                    105
                      A                      A                      A
 Frequencies --   3015.9671              3041.3239              3052.0753
 Red. masses --      1.0739                 1.0654                 1.0640
 Frc consts  --      5.7555                 5.8063                 5.8398
 IR Inten    --     64.7368                17.3640                35.8532

                    106                    107                    108
                      A                      A                      A
 Frequencies --   3057.6135              3068.8595              3077.3553
 Red. masses --      1.0397                 1.0629                 1.0648
 Frc consts  --      5.7268                 5.8980                 5.9410
 IR Inten    --      6.5014                38.5955                21.1882

                    109                    110                    111
                      A                      A                      A
 Frequencies --   3083.9969              3097.6268              3103.4669
 Red. masses --      1.0650                 1.0315                 1.0990
 Frc consts  --      5.9682                 5.8313                 6.2368
 IR Inten    --     25.4806                 2.1157                28.7852

                    112                    113                    114
                      A                      A                      A
 Frequencies --   3106.0487              3107.3796              3118.1409
 Red. masses --      1.1008                 1.0994                 1.1011
 Frc consts  --      6.2570                 6.2543                 6.3076
 IR Inten    --     37.6046                13.8931                13.1268

                    115                    116                    117
                      A                      A                      A
 Frequencies --   3118.6092              3120.4447              3131.4229
 Red. masses --      1.0861                 1.1009                 1.1036
 Frc consts  --      6.2238                 6.3157                 6.3761
 IR Inten    --      1.9035                14.9663                45.9500

                    118                    119                    120
                      A                      A                      A
 Frequencies --   3157.7923              3169.7510              3178.4678
 Red. masses --      1.0887                 1.0906                 1.0995
 Frc consts  --      6.3963                 6.4562                 6.5445
 IR Inten    --     21.0285                 3.3033                 8.3534

                    121                    122                    123
                      A                      A                      A
 Frequencies --   3191.8630              3213.3248              3530.9975
 Red. masses --      1.1042                 1.1077                 1.0749
 Frc consts  --      6.6279                 6.7390                 7.8959
 IR Inten    --      1.3548                 2.7702                57.4970

 - Thermochemistry -
 -------------------
 Temperature   298.150 Kelvin.  Pressure   1.00000 Atm.
 Atom     1 has atomic number  6 and mass  12.00000

 Molecular mass:   288.15076 amu.
 Principal axes and moments of inertia in atomic units:
                           1         2         3
     Eigenvalues --  2435.96196********************
           X            0.99997   0.00805   0.00146
           Y           -0.00805   0.99997  -0.00078
           Z           -0.00146   0.00077   1.00000
 This molecule is an asymmetric top.
 Rotational symmetry number  1.
 Warning -- assumption of classical behavior for rotation
           may cause significant error
 Rotational temperatures (Kelvin)      0.03556     0.00694     0.00663
 Rotational constants (GHZ):           0.74087     0.14461     0.13817
 Zero-point vibrational energy     988405.7 (Joules/Mol)
                                  236.23464 (Kcal/Mol)
 Warning -- explicit consideration of  31 degrees of freedom as
           vibrations may cause significant error
 Vibrational temperatures:     25.93    35.73    40.98    83.26   101.07
          (Kelvin)            141.66   192.87   212.82   245.07   260.05
                              284.38   310.39   322.03   340.13   352.39
                              398.82   418.92   462.15   479.85   535.04
                              548.25   576.71   623.55   643.95   666.93
                              692.36   714.13   772.32   847.10   852.04
                              864.05   912.82   921.77   980.62  1016.16
                             1042.58  1109.36  1133.20  1178.93  1218.49
                             1266.73  1282.92  1335.76  1354.41  1394.39
                             1405.03  1416.16  1425.55  1431.06  1445.48
                             1458.28  1485.63  1514.29  1525.57  1544.34
                             1583.73  1601.82  1606.20  1628.13  1671.64
                             1708.66  1714.50  1736.50  1767.00  1775.64
                             1786.55  1813.46  1842.46  1853.93  1869.97
                             1876.50  1886.33  1902.58  1925.30  1933.84
                             1939.01  1953.41  1964.37  1981.70  1994.06
                             1999.85  2015.20  2033.63  2045.72  2069.02
                             2131.40  2132.89  2136.98  2161.84  2164.37
                             2179.86  2185.30  2189.45  2193.53  2209.59
                             2210.05  2231.36  2238.96  2540.16  4292.73
                             4318.61  4324.72  4339.30  4375.79  4391.26
                             4399.22  4415.40  4427.63  4437.18  4456.79
                             4465.20  4468.91  4470.83  4486.31  4486.98
                             4489.62  4505.42  4543.36  4560.56  4573.11
                             4592.38  4623.26  5080.32

 Zero-point correction=                           0.376464 (Hartree/Particle)
 Thermal correction to Energy=                    0.396008
 Thermal correction to Enthalpy=                  0.396952
 Thermal correction to Gibbs Free Energy=         0.326707
 Sum of electronic and zero-point Energies=          -1242.860112
 Sum of electronic and thermal Energies=             -1242.840568
 Sum of electronic and thermal Enthalpies=           -1242.839624
 Sum of electronic and thermal Free Energies=        -1242.909868

                     E (Thermal)             CV                S
                      KCal/Mol        Cal/Mol-Kelvin    Cal/Mol-Kelvin
 Total                  248.499             75.231            147.842
 Electronic               0.000              0.000              0.000
 Translational            0.889              2.981             42.873
 Rotational               0.889              2.981             34.339
 Vibrational            246.721             69.269             70.629
 Vibration     1          0.593              1.986              6.841
 Vibration     2          0.593              1.985              6.204
 Vibration     3          0.593              1.984              5.932
 Vibration     4          0.596              1.974              4.529
 Vibration     5          0.598              1.968              4.146
 Vibration     6          0.604              1.950              3.485
 Vibration     7          0.613              1.919              2.887
 Vibration     8          0.617              1.905              2.699
 Vibration     9          0.625              1.879              2.432
 Vibration    10          0.630              1.866              2.321
 Vibration    11          0.637              1.843              2.155
 Vibration    12          0.645              1.817              1.995
 Vibration    13          0.649              1.805              1.928
 Vibration    14          0.655              1.785              1.830
 Vibration    15          0.660              1.771              1.767
 Vibration    16          0.678              1.716              1.551
 Vibration    17          0.687              1.690              1.467
 Vibration    18          0.707              1.633              1.304
 Vibration    19          0.715              1.609              1.243
 Vibration    20          0.744              1.530              1.072
 Vibration    21          0.751              1.511              1.035
 Vibration    22          0.767              1.468              0.960
 Vibration    23          0.794              1.397              0.848
 Vibration    24          0.807              1.366              0.803
 Vibration    25          0.821              1.331              0.756
 Vibration    26          0.838              1.292              0.707
 Vibration    27          0.852              1.258              0.667
 Vibration    28          0.892              1.169              0.572
 Vibration    29          0.946              1.056              0.469
 Vibration    30          0.950              1.048              0.463
 Vibration    31          0.959              1.031              0.449

 Optimization completed.
    -- Stationary point found.
 Normal termination of Gaussian 16 at Mon Dec 14 14:16:26 2020.

 ----------------------------------------------------------------------
 # B3LYP/6-311++G(d,p) empiricaldispersion=gd3bj scf=xqc pop=npa geom=c
 heck
 ----------------------------------------------------------------------

 --------------------------------------
 CID_65044493_JID_9870_Energie_neutraal
 --------------------------------------
 Structure from the checkpoint file:  "JID_9870.chk"
 Charge =  0 Multiplicity = 1

 SCF Done:  E(RB3LYP) =  -1243.50687342     A.U. after   16 cycles
 Normal termination of Gaussian 16 at Mon Dec 14 14:29:48 2020.

 ----------------------------------------------------------------------
 # B3LYP/6-311++G(d,p) empiricaldispersion=gd3bj scf=xqc pop=npa geom=c
 heck
 ----------------------------------------------------------------------

 ------------------------------------
 CID_65044493_JID_9870_Energie_kation
 ------------------------------------
 Structure from the checkpoint file:  "JID_9870.chk"
 Charge =  1 Multiplicity = 2

 SCF Done:  E(UB3LYP) =  -1243.21317141     A.U. after   30 cycles
 Normal termination of Gaussian 16 at Mon Dec 14 15:03:13 2020.
 Gaussian 16:  ES64L-G16RevA.03 25-Dec-2016

 ----------------------------------------------------------------------
 # B3LYP/6-311++G(d,p) empiricaldispersion=gd3bj scf=xqc pop=npa geom=c
 heck
 ----------------------------------------------------------------------

 -----------------------------------
 CID_65044493_JID_9870_Energie_anion
 -----------------------------------
 Structure from the checkpoint file:  "JID_9870.chk"
 Charge = -1 Multiplicity = 2

                         Standard orientation:
 ---------------------------------------------------------------------
 Center     Atomic      Atomic             Coordinates (Angstroms)
 Number     Number       Type             X           Y           Z
 ---------------------------------------------------------------------
      1          6           0        5.285936    0.310024    1.802713
      2          6           0        4.901051    0.504171    0.341227
      3          8           0        5.480409    1.331855   -0.354631
      4          7           0        3.895157   -0.289810   -0.156949
      5          6           0        3.427801   -0.082650   -1.525591
      6          6           0        1.982764    0.426092   -1.536649
      7          6           0        1.042447   -0.498961   -0.748614
      8          6           0        1.612436   -0.722812    0.668973
      9          6           0        3.070238   -1.203299    0.619954
     10          7           0       -0.311011    0.037134   -0.787501
     11          6           0       -1.410168   -0.890025   -0.690366
     12          6           0       -1.602715   -1.799134    0.553116
     13          6           0       -3.058168   -2.319837    0.439671
     14          6           0       -3.767660   -1.414164   -0.612854
     15          6           0       -2.801561   -0.250198   -0.880799
     16         16           0       -3.213082    1.215714    0.159331
     17          8           0       -2.011033    2.056451    0.334962
     18          8           0       -4.432906    1.786275   -0.434186
     19          6           0       -3.667261    0.634328    1.813250
     20          1           0        6.116543    0.984977    2.009744
     21          1           0        5.600490   -0.718368    2.011729
     22          1           0        4.456587    0.551921    2.477122
     23          1           0        3.491777   -1.039978   -2.064588
     24          1           0        4.108252    0.624789   -1.997912
     25          1           0        1.617657    0.517786   -2.565002
     26          1           0        1.952965    1.429628   -1.091738
     27          1           0        1.017926   -1.473091   -1.262306
     28          1           0        1.567634    0.226950    1.219729
     29          1           0        1.008354   -1.450478    1.221179
     30          1           0        3.475699   -1.311826    1.625475
     31          1           0        3.109854   -2.197756    0.148547
     32          1           0       -0.434486    0.843740   -0.181567
     33          1           0       -1.321711   -1.572583   -1.551566
     34          1           0       -0.871664   -2.611946    0.575633
     35          1           0       -1.451088   -1.213671    1.466772
     36          1           0       -3.568159   -2.286670    1.406862
     37          1           0       -3.080936   -3.363765    0.114298
     38          1           0       -4.763122   -1.079707   -0.309243
     39          1           0       -3.902857   -1.957290   -1.553519
     40          1           0       -2.912777    0.191906   -1.874642
     41          1           0       -4.512224   -0.051453    1.757506
     42          1           0       -2.807934    0.174196    2.299807
     43          1           0       -3.959086    1.542141    2.346180
 ---------------------------------------------------------------------

 SCF Done:  E(UB3LYP) =  -1243.50506053     A.U. after   33 cycles
 SCF Done:  E(UB3LYP) =  -1243.50506053     a.u. after    1 cycles

 The electronic state is 2-A.
 Alpha  occ. eigenvalues --  -88.95965 -19.02937 -19.02755 -19.00141 -14.25680
 Alpha  occ. eigenvalues --  -14.20379 -10.19000 -10.13036 -10.12612 -10.12461
 Alpha  occ. eigenvalues --  -10.12391 -10.11614 -10.11612 -10.09907 -10.09613
 Alpha  occ. eigenvalues --  -10.08489 -10.08357 -10.08217 -10.07983  -8.02468
 Alpha  occ. eigenvalues --   -5.98726  -5.98626  -5.98559  -1.02051  -0.95445
 Alpha  occ. eigenvalues --   -0.91785  -0.85924  -0.83006  -0.76313  -0.70379
 Alpha  occ. eigenvalues --   -0.68980  -0.68479  -0.65765  -0.65319  -0.62022
 Alpha  occ. eigenvalues --   -0.57870  -0.55452  -0.55174  -0.51114  -0.49418
 Alpha  occ. eigenvalues --   -0.48816  -0.46376  -0.43041  -0.42686  -0.41548
 Alpha  occ. eigenvalues --   -0.39611  -0.39369  -0.38898  -0.38185  -0.38113
 Alpha  occ. eigenvalues --   -0.37548  -0.35771  -0.35464  -0.35079  -0.34723
 Alpha  occ. eigenvalues --   -0.34016  -0.32969  -0.32665  -0.31977  -0.31097
 Alpha  occ. eigenvalues --   -0.30510  -0.29674  -0.29104  -0.28162  -0.27578
 Alpha  occ. eigenvalues --   -0.27469  -0.26799  -0.26384  -0.24764  -0.24701
 Alpha  occ. eigenvalues --   -0.24387  -0.24014  -0.23282  -0.21916  -0.19994
 Alpha  occ. eigenvalues --   -0.17438  -0.16005  -0.13227   0.03261
 Alpha virt. eigenvalues --    0.05367   0.05466   0.07034   0.07304   0.07672
 Alpha virt. eigenvalues --    0.08343   0.08774   0.09108   0.09700   0.09834
 Alpha virt. eigenvalues --    0.10107   0.10447   0.10756   0.11083   0.11418

  Beta  occ. eigenvalues --  -88.95963 -19.02931 -19.02751 -19.00134 -14.25683
  Beta  occ. eigenvalues --  -14.20375 -10.18995 -10.13033 -10.12599 -10.12438
  Beta  occ. eigenvalues --  -10.12347 -10.11607 -10.11604 -10.09886 -10.09597
  Beta  occ. eigenvalues --  -10.08454 -10.08345 -10.08216 -10.07956  -8.02466
  Beta  occ. eigenvalues --   -5.98725  -5.98624  -5.98555  -1.02042  -0.95433
  Beta  occ. eigenvalues --   -0.91776  -0.85916  -0.82990  -0.76287  -0.70360
  Beta  occ. eigenvalues --   -0.68934  -0.68455  -0.65737  -0.65273  -0.61980
  Beta  occ. eigenvalues --   -0.57836  -0.55415  -0.55140  -0.51089  -0.49339
  Beta  occ. eigenvalues --   -0.48775  -0.46339  -0.42990  -0.42662  -0.41520
  Beta  occ. eigenvalues --   -0.39588  -0.39344  -0.38864  -0.38166  -0.38087
  Beta  occ. eigenvalues --   -0.37518  -0.35743  -0.35443  -0.35055  -0.34693
  Beta  occ. eigenvalues --   -0.33986  -0.32938  -0.32647  -0.31961  -0.31068
  Beta  occ. eigenvalues --   -0.30487  -0.29647  -0.29069  -0.28125  -0.27533
  Beta  occ. eigenvalues --   -0.27435  -0.26774  -0.26337  -0.24735  -0.24682
  Beta  occ. eigenvalues --   -0.24373  -0.23978  -0.23260  -0.21907  -0.19967
  Beta  occ. eigenvalues --   -0.17428  -0.15990  -0.13214
  Beta virt. eigenvalues --    0.05560   0.06067   0.06204   0.07443   0.07763
  Beta virt. eigenvalues --    0.08023   0.08625   0.09095   0.09327   0.09933
  Beta virt. eigenvalues --    0.10180   0.10332   0.10666   0.10926   0.11217

 Mulliken charges and spin densities:
               1          2
     1  C    0.153808  -0.661136
     2  C   -0.055194   0.203005
     3  O   -0.363619   0.003754
     4  N    0.185328   0.026122
     5  C   -0.229301  -0.286585
     6  C    0.053163   0.208622
     7  C    0.148157  -0.964333
     8  C    0.367543  -0.117759
     9  C   -0.750888  -0.274036
    10  N    0.341503  -0.003628
    11  C   -1.452140   0.623453
    12  C    0.211848  -0.315594
    13  C    1.388201  -1.822100
    14  C   -0.248254  -0.446836
    15  C   -0.220596   0.355086
    16  S    0.072818   0.040296
    17  O   -0.146813   0.014567
    18  O   -0.097856   0.004645
    19  C    0.215244  -0.903157
    20  H    0.220042  -0.038487
    21  H   -0.023521   0.186991
    22  H   -0.052323   0.209385
    23  H   -0.005978   0.152149
    24  H    0.232126   0.001662
    25  H    0.152376   0.030001
    26  H    0.116400   0.026304
    27  H    0.091415   0.054873
    28  H    0.175166  -0.014075
    29  H   -0.453894   0.620851
    30  H   -0.115728   0.323947
    31  H   -0.372605   0.561676
    32  H    0.341042  -0.017244
    33  H   -0.178897   0.378225
    34  H   -0.240973   0.428547
    35  H    0.273905  -0.092555
    36  H   -0.307193   0.462640
    37  H   -0.437201   0.640341
    38  H    0.131577   0.090894
    39  H   -0.171784   0.336028
    40  H    0.225720   0.118876
    41  H   -0.096677   0.332459
    42  H   -0.295355   0.519484
    43  H    0.219412   0.002642
 Sum of Mulliken charges =  -1.00000   1.00000

 Dipole moment (field-independent basis, Debye):
    X=              1.2827    Y=              2.4077    Z=             -0.5510  Tot=              2.7831
 Quadrupole moment (field-independent basis, Debye-Ang):
   XX=           -226.7579   YY=           -188.7236   ZZ=           -158.4470
   XY=             -7.3834   XZ=              2.1082   YZ=              7.8664

 Summary of Natural Population Analysis:

                                       Natural Population
                Natural  -----------------------------------------------
    Atom  No    Charge         Core      Valence    Rydberg      Total
 -----------------------------------------------------------------------
      C    1   -0.33294      0.99963     2.32827    0.00504     3.33294
      C    2    0.34398      0.99967     1.63373    0.02263     2.65602
      O    3   -0.32927      0.99988     3.32410    0.00529     4.32927
      N    4   -0.25699      0.99964     2.74722    0.01013     3.75699
      C    5   -0.08911      0.99961     2.07923    0.01026     3.08911
      C    6   -0.19307      0.99961     2.18590    0.00756     3.19307
      C    7   -0.00798      0.99958     1.99635    0.01205     3.00798
      C    8   -0.20168      0.99960     2.19290    0.00918     3.20168
      C    9   -0.08350      0.99961     2.07313    0.01077     3.08350
      N   10   -0.35149      0.99970     2.83933    0.01246     3.85149
      C   11   -0.01067      0.99954     1.99550    0.01563     3.01067
      C   12   -0.20371      0.99961     2.19417    0.00993     3.20371
      C   13   -0.19579      0.99964     2.18705    0.00910     3.19579
      C   14   -0.20170      0.99961     2.19246    0.00963     3.20170
      C   15   -0.19362      0.99951     2.17877    0.01534     3.19362
      S   16    1.01984      4.99924     1.88747    0.09346     6.98016
      O   17   -0.47600      0.99991     3.47014    0.00595     4.47600
      O   18   -0.47158      0.99991     3.46585    0.00582     4.47158
      C   19   -0.39278      0.99960     2.38540    0.00778     3.39278
      H   20    0.11199      0.00000     0.38720    0.00080     0.38801
      H   21    0.10812      0.00000     0.39101    0.00087     0.39188
      H   22    0.10919      0.00000     0.38997    0.00084     0.39081
      H   23    0.09095      0.00000     0.40806    0.00100     0.40905
      H   24    0.11698      0.00000     0.38194    0.00108     0.38302
      H   25    0.10499      0.00000     0.39410    0.00092     0.39501
      H   26    0.09868      0.00000     0.40021    0.00111     0.40132
      H   27    0.09076      0.00000     0.40710    0.00214     0.40924
      H   28    0.09472      0.00000     0.40382    0.00146     0.40528
      H   29    0.10744      0.00000     0.39090    0.00166     0.39256
      H   30    0.10497      0.00000     0.39359    0.00144     0.39503
      H   31    0.09500      0.00000     0.40348    0.00152     0.40500
      H   32    0.19284      0.00000     0.30437    0.00279     0.30716
      H   33    0.09741      0.00000     0.40048    0.00211     0.40259
      H   34    0.10881      0.00000     0.38886    0.00233     0.39119
      H   35    0.09378      0.00000     0.40422    0.00200     0.40622
      H   36    0.10127      0.00000     0.39704    0.00169     0.39873
      H   37    0.10632      0.00000     0.39159    0.00209     0.39368
      H   38    0.10782      0.00000     0.39098    0.00120     0.39218
      H   39    0.10910      0.00000     0.38970    0.00120     0.39090
      H   40    0.12396      0.00000     0.37487    0.00117     0.37604
      H   41    0.11670      0.00000     0.38214    0.00116     0.38330
      H   42    0.11632      0.00000     0.38220    0.00148     0.38368
      H   43    0.11996      0.00000     0.37905    0.00099     0.38004
 =======================================================================
   * Total *    0.00000     22.99309    54.69383    0.31308    78.00000

 Normal termination of Gaussian 16 at Mon Dec 14 15:39:54 2020.
