 Gaussian 16, Revision A.03,

 -----------------------------------------------------------
 # opt freq B3LYP/6-31G(d) empiricaldispersion=gd3bj scf=xqc
 -----------------------------------------------------------

 ------------------------------
 CID_82399962_JID_2404_neutraal
 ------------------------------
 Symbolic Z-matrix:
 Charge =  0 Multiplicity = 1

 SCF Done:  E(RB3LYP) =  -1199.51845416     A.U. after   15 cycles
 SCF Done:  E(RB3LYP) =  -1199.52570096     A.U. after   13 cycles
 SCF Done:  E(RB3LYP) =  -1199.52706358     A.U. after   12 cycles
 SCF Done:  E(RB3LYP) =  -1199.52765792     A.U. after   12 cycles
 SCF Done:  E(RB3LYP) =  -1199.52789629     A.U. after   11 cycles
 SCF Done:  E(RB3LYP) =  -1199.52805238     A.U. after   11 cycles
 SCF Done:  E(RB3LYP) =  -1199.52812715     A.U. after   12 cycles
 SCF Done:  E(RB3LYP) =  -1199.52820851     A.U. after   12 cycles
 SCF Done:  E(RB3LYP) =  -1199.52825314     A.U. after   12 cycles
 SCF Done:  E(RB3LYP) =  -1199.52835385     A.U. after   12 cycles
 SCF Done:  E(RB3LYP) =  -1199.52868088     A.U. after   12 cycles
 SCF Done:  E(RB3LYP) =  -1199.52868988     A.U. after   11 cycles
 SCF Done:  E(RB3LYP) =  -1199.52869194     A.U. after   10 cycles
 SCF Done:  E(RB3LYP) =  -1199.52869244     A.U. after    9 cycles
 SCF Done:  E(RB3LYP) =  -1199.52869254     A.U. after    7 cycles
 SCF Done:  E(RB3LYP) =  -1199.52869257     A.U. after    7 cycles
 Optimization completed.
    -- Stationary point found.
 Normal termination of Gaussian 16 at Wed Dec  9 17:21:10 2020.

 --------------------------------------------------------------------
 #N Geom=AllCheck Guess=TCheck SCRF=Check GenChk RB3LYP/6-31G(d) Freq
 --------------------------------------------------------------------

 Structure from the checkpoint file:  "JID_2404.chk"
 ------------------------------
 CID_82399962_JID_2404_neutraal
 ------------------------------
 Charge =  0 Multiplicity = 1

 SCF Done:  E(RB3LYP) =  -1199.52869257     A.U. after    1 cycles

  Exact polarizability: 197.484  -6.462 141.925  -0.990   6.089  63.416
 Approx polarizability: 302.910 -18.376 257.307   1.536  17.185 104.444

                      1                      2                      3
                      A                      A                      A
 Frequencies --     28.2753                94.7017               116.6685
 Red. masses --      4.7129                 5.8212                 2.8211
 Frc consts  --      0.0022                 0.0308                 0.0226
 IR Inten    --      0.1337                 1.3639                 0.5782

                      4                      5                      6
                      A                      A                      A
 Frequencies --    144.7810               165.1887               196.8840
 Red. masses --      2.8152                 1.4638                 1.0692
 Frc consts  --      0.0348                 0.0235                 0.0244
 IR Inten    --      4.3060                 0.5304                39.1507

                      7                      8                      9
                      A                      A                      A
 Frequencies --    255.1099               265.9668               276.4640
 Red. masses --      4.6544                 4.8289                 3.5222
 Frc consts  --      0.1785                 0.2013                 0.1586
 IR Inten    --      2.7183                 0.7083                 0.9755

                     10                     11                     12
                      A                      A                      A
 Frequencies --    318.4817               348.2073               432.5275
 Red. masses --      5.5184                 5.8721                 5.0999
 Frc consts  --      0.3298                 0.4195                 0.5621
 IR Inten    --      0.2838                 1.9363                 0.9000

                     13                     14                     15
                      A                      A                      A
 Frequencies --    494.9396               508.6665               523.0633
 Red. masses --      5.7036                 6.5289                 3.7657
 Frc consts  --      0.8232                 0.9953                 0.6070
 IR Inten    --      3.9196                 3.6476                35.5115

                     16                     17                     18
                      A                      A                      A
 Frequencies --    579.8291               629.0350               663.0206
 Red. masses --      3.3292                 7.9333                 3.1282
 Frc consts  --      0.6595                 1.8495                 0.8102
 IR Inten    --      0.3540                 2.0353                10.2490

                     19                     20                     21
                      A                      A                      A
 Frequencies --    688.7850               697.7283               708.7658
 Red. masses --      2.9363                 1.3039                 4.3962
 Frc consts  --      0.8208                 0.3740                 1.3012
 IR Inten    --     88.0852                51.9906                20.6376

                     22                     23                     24
                      A                      A                      A
 Frequencies --    740.4001               751.3768               788.0710
 Red. masses --      1.8083                 5.9787                 4.3229
 Frc consts  --      0.5841                 1.9887                 1.5818
 IR Inten    --    203.0223                 0.9983                27.8371

                     25                     26                     27
                      A                      A                      A
 Frequencies --    800.6996               834.4853               865.4332
 Red. masses --      1.6517                 1.3567                 4.1806
 Frc consts  --      0.6239                 0.5566                 1.8448
 IR Inten    --     68.6755                 7.1030                 9.0348

                     28                     29                     30
                      A                      A                      A
 Frequencies --    907.9987               976.5167              1060.7953
 Red. masses --      1.3223                 2.3375                 1.3764
 Frc consts  --      0.6423                 1.3133                 0.9126
 IR Inten    --      0.4620                 4.0973                 4.9616

                     31                     32                     33
                      A                      A                      A
 Frequencies --   1078.8196              1113.4552              1120.0998
 Red. masses --      1.6472                 1.2185                 1.5037
 Frc consts  --      1.1295                 0.8901                 1.1115
 IR Inten    --      2.7749                 0.2816                 8.2233

                     34                     35                     36
                      A                      A                      A
 Frequencies --   1150.0410              1184.6526              1229.0563
 Red. masses --      1.9708                 4.1785                 2.1651
 Frc consts  --      1.5357                 3.4550                 1.9270
 IR Inten    --      3.3115                10.2896                 4.1471

                     37                     38                     39
                      A                      A                      A
 Frequencies --   1263.9355              1320.4811              1390.8821
 Red. masses --      1.5053                 3.0140                 2.3980
 Frc consts  --      1.4168                 3.0964                 2.7332
 IR Inten    --     21.6956                37.8514                 0.2111

                     40                     41                     42
                      A                      A                      A
 Frequencies --   1417.1394              1446.6976              1493.4190
 Red. masses --      3.4667                 1.2369                 5.8325
 Frc consts  --      4.1019                 1.5253                 7.6642
 IR Inten    --      5.6491                 0.2999                 6.1569

                     43                     44                     45
                      A                      A                      A
 Frequencies --   1510.9096              1519.6370              1560.9482
 Red. masses --      1.0610                 1.1301                 4.3533
 Frc consts  --      1.4270                 1.5376                 6.2494
 IR Inten    --     11.4771                13.0650                16.3657

                     46                     47                     48
                      A                      A                      A
 Frequencies --   1597.0069              1631.1393              1688.3790
 Red. masses --      5.7615                 5.1888                 1.2050
 Frc consts  --      8.6576                 8.1340                 2.0239
 IR Inten    --     77.6804                37.0202                76.7558

                     49                     50                     51
                      A                      A                      A
 Frequencies --   3036.1657              3095.5887              3125.9447
 Red. masses --      1.0425                 1.0936                 1.1018
 Frc consts  --      5.6622                 6.1746                 6.3433
 IR Inten    --     29.8021                15.0251                12.8566

                     52                     53                     54
                      A                      A                      A
 Frequencies --   3216.0991              3219.8093              3232.3093
 Red. masses --      1.0895                 1.0911                 1.0951
 Frc consts  --      6.6395                 6.6644                 6.7412
 IR Inten    --      8.9512                11.1032                 9.2400

                     55                     56                     57
                      A                      A                      A
 Frequencies --   3271.2333              3516.8960              3612.6352
 Red. masses --      1.0969                 1.0484                 1.0963
 Frc consts  --      6.9160                 7.6397                 8.4298
 IR Inten    --      0.8713                 8.7231                 8.8297

 - Thermochemistry -
 -------------------
 Temperature   298.150 Kelvin.  Pressure   1.00000 Atm.
 Atom     1 has atomic number  6 and mass  12.00000

 Molecular mass:   195.01764 amu.
 Principal axes and moments of inertia in atomic units:
                           1         2         3
     Eigenvalues --  1145.312694020.495365037.25620
           X            0.99997   0.00348  -0.00623
           Y           -0.00353   0.99996  -0.00851
           Z            0.00620   0.00853   0.99994
 This molecule is an asymmetric top.
 Rotational symmetry number  1.
 Warning -- assumption of classical behavior for rotation
           may cause significant error
 Rotational temperatures (Kelvin)      0.07562     0.02154     0.01719
 Rotational constants (GHZ):           1.57576     0.44889     0.35828
 Zero-point vibrational energy     418132.2 (Joules/Mol)
                                   99.93600 (Kcal/Mol)
 Warning -- explicit consideration of  16 degrees of freedom as
           vibrations may cause significant error
 Vibrational temperatures:     40.68   136.25   167.86   208.31   237.67
          (Kelvin)            283.27   367.05   382.67   397.77   458.22
                              500.99   622.31   712.11   731.86   752.57
                              834.24   905.04   953.94   991.01  1003.88
                             1019.76  1065.27  1081.06  1133.86  1152.03
                             1200.64  1245.17  1306.41  1404.99  1526.25
                             1552.18  1602.01  1611.57  1654.65  1704.45
                             1768.34  1818.52  1899.88  2001.17  2038.95
                             2081.48  2148.70  2173.86  2186.42  2245.86
                             2297.74  2346.85  2429.20  4368.37  4453.86
                             4497.54  4627.25  4632.59  4650.57  4706.58
                             5060.03  5197.78

 Zero-point correction=                           0.159258 (Hartree/Particle)
 Thermal correction to Energy=                    0.170928
 Thermal correction to Enthalpy=                  0.171872
 Thermal correction to Gibbs Free Energy=         0.120726
 Sum of electronic and zero-point Energies=          -1199.369434
 Sum of electronic and thermal Energies=             -1199.357764
 Sum of electronic and thermal Enthalpies=           -1199.356820
 Sum of electronic and thermal Free Energies=        -1199.407966

                     E (Thermal)             CV                S
                      KCal/Mol        Cal/Mol-Kelvin    Cal/Mol-Kelvin
 Total                  107.259             44.086            107.646
 Electronic               0.000              0.000              0.000
 Translational            0.889              2.981             41.709
 Rotational               0.889              2.981             31.517
 Vibrational            105.482             38.124             34.419
 Vibration     1          0.593              1.984              5.947
 Vibration     2          0.603              1.953              3.561
 Vibration     3          0.608              1.936              3.155
 Vibration     4          0.616              1.908              2.740
 Vibration     5          0.624              1.885              2.490
 Vibration     6          0.636              1.844              2.162
 Vibration     7          0.665              1.754              1.695
 Vibration     8          0.672              1.735              1.622
 Vibration     9          0.678              1.717              1.555
 Vibration    10          0.705              1.638              1.318
 Vibration    11          0.726              1.579              1.174
 Vibration    12          0.793              1.399              0.850
 Vibration    13          0.851              1.261              0.671
 Vibration    14          0.864              1.231              0.637
 Vibration    15          0.878              1.199              0.603
 Vibration    16          0.936              1.075              0.486

 Optimization completed.
    -- Stationary point found.
 Normal termination of Gaussian 16 at Wed Dec  9 17:25:39 2020.

 ----------------------------------------------------------------------
 # B3LYP/6-311++G(d,p) empiricaldispersion=gd3bj scf=xqc pop=npa geom=c
 heck
 ----------------------------------------------------------------------

 --------------------------------------
 CID_82399962_JID_2404_Energie_neutraal
 --------------------------------------
 Structure from the checkpoint file:  "JID_2404.chk"
 Charge =  0 Multiplicity = 1

 SCF Done:  E(RB3LYP) =  -1199.69413867     A.U. after   16 cycles
 Normal termination of Gaussian 16 at Wed Dec  9 17:27:59 2020.

 ----------------------------------------------------------------------
 # B3LYP/6-311++G(d,p) empiricaldispersion=gd3bj scf=xqc pop=npa geom=c
 heck
 ----------------------------------------------------------------------

 ------------------------------------
 CID_82399962_JID_2404_Energie_kation
 ------------------------------------
 Structure from the checkpoint file:  "JID_2404.chk"
 Charge =  1 Multiplicity = 2

 SCF Done:  E(UB3LYP) =  -1199.43622517     A.U. after   25 cycles
 Normal termination of Gaussian 16 at Wed Dec  9 17:33:03 2020.
 Gaussian 16:  ES64L-G16RevA.03 25-Dec-2016

 ----------------------------------------------------------------------
 # B3LYP/6-311++G(d,p) empiricaldispersion=gd3bj scf=xqc pop=npa geom=c
 heck
 ----------------------------------------------------------------------

 -----------------------------------
 CID_82399962_JID_2404_Energie_anion
 -----------------------------------
 Structure from the checkpoint file:  "JID_2404.chk"
 Charge = -1 Multiplicity = 2

                         Standard orientation:
 ---------------------------------------------------------------------
 Center     Atomic      Atomic             Coordinates (Angstroms)
 Number     Number       Type             X           Y           Z
 ---------------------------------------------------------------------
      1          6           0       -0.350885    2.461450   -0.333293
      2          6           0       -0.899958    1.077244   -0.163170
      3          6           0       -0.252363   -0.132736   -0.047394
      4          6           0       -1.162302   -1.242225    0.116751
      5          6           0       -2.476725   -0.875472    0.119707
      6         16           0       -2.641985    0.857099   -0.098362
      7          7           0       -3.619410   -1.677766    0.180572
      8          6           0        1.191500   -0.351220   -0.078771
      9          6           0        1.846110   -1.500725   -0.465481
     10          6           0        3.262876   -1.424988   -0.343228
     11          6           0        3.690281   -0.220565    0.143941
     12         16           0        2.358494    0.844018    0.462673
     13          1           0       -1.085630    3.123173   -0.803419
     14          1           0        0.540245    2.448153   -0.968922
     15          1           0       -0.064699    2.916269    0.624430
     16          1           0       -0.829569   -2.262993    0.267264
     17          1           0       -4.340926   -1.318687    0.797801
     18          1           0       -3.397556   -2.635399    0.432376
     19          1           0        1.320343   -2.368130   -0.847923
     20          1           0        3.934976   -2.231843   -0.614154
     21          1           0        4.703334    0.111363    0.325192
 ---------------------------------------------------------------------

 SCF Done:  E(UB3LYP) =  -1199.68533122     A.U. after   32 cycles

 The electronic state is 2-A.
 Alpha  occ. eigenvalues --  -88.74994 -88.74407 -14.20031 -10.10825 -10.07893
 Alpha  occ. eigenvalues --  -10.07199 -10.06709 -10.06447 -10.05970 -10.05851
 Alpha  occ. eigenvalues --  -10.04795 -10.04074  -7.83647  -7.83058  -5.79937
 Alpha  occ. eigenvalues --   -5.79575  -5.79362  -5.79251  -5.79007  -5.78610
 Alpha  occ. eigenvalues --   -0.80472  -0.76236  -0.73427  -0.63976  -0.63734
 Alpha  occ. eigenvalues --   -0.61250  -0.58239  -0.54819  -0.46125  -0.45193
 Alpha  occ. eigenvalues --   -0.42425  -0.41166  -0.39714  -0.36970  -0.34742
 Alpha  occ. eigenvalues --   -0.32379  -0.31614  -0.29205  -0.28465  -0.27798
 Alpha  occ. eigenvalues --   -0.26857  -0.25945  -0.25114  -0.24381  -0.22151
 Alpha  occ. eigenvalues --   -0.21689  -0.18656  -0.14992  -0.13770  -0.10379
 Alpha  occ. eigenvalues --   -0.07353   0.04938
 Alpha virt. eigenvalues --    0.07033   0.07521   0.08574   0.09128   0.09904
 Alpha virt. eigenvalues --    0.10859   0.11306   0.12026   0.12688   0.13188
 Alpha virt. eigenvalues --    0.13374   0.13629   0.14509   0.14799   0.15371

  Beta  occ. eigenvalues --  -88.74964 -88.74394 -14.19941 -10.10796 -10.07763
  Beta  occ. eigenvalues --  -10.07024 -10.06487 -10.06455 -10.05998 -10.05856
  Beta  occ. eigenvalues --  -10.04731 -10.04077  -7.83619  -7.83044  -5.79923
  Beta  occ. eigenvalues --   -5.79563  -5.79354  -5.79149  -5.79003  -5.78571
  Beta  occ. eigenvalues --   -0.80354  -0.76048  -0.73245  -0.63799  -0.63562
  Beta  occ. eigenvalues --   -0.61090  -0.58110  -0.54692  -0.45823  -0.45068
  Beta  occ. eigenvalues --   -0.42242  -0.41012  -0.39614  -0.36846  -0.34625
  Beta  occ. eigenvalues --   -0.32298  -0.31362  -0.29105  -0.28361  -0.27707
  Beta  occ. eigenvalues --   -0.26487  -0.25822  -0.24993  -0.24195  -0.21988
  Beta  occ. eigenvalues --   -0.21552  -0.18343  -0.14513  -0.13319  -0.09965
  Beta  occ. eigenvalues --   -0.06658
  Beta virt. eigenvalues --    0.07372   0.08392   0.08589   0.08702   0.09322
  Beta virt. eigenvalues --    0.10548   0.10972   0.11510   0.12311   0.12772
  Beta virt. eigenvalues --    0.13217   0.13589   0.13974   0.14581   0.14882

 Mulliken charges and spin densities:
               1          2
     1  C    0.169512  -0.235523
     2  C    1.374558   0.214380
     3  C   -1.410128  -0.029842
     4  C    1.868821  -1.186991
     5  C   -0.915995   0.026960
     6  S   -0.782546   0.249992
     7  N   -0.174801  -0.099990
     8  C   -0.517948  -0.132391
     9  C    0.941686   0.351141
    10  C   -0.779951  -0.177818
    11  C    0.149247   0.201777
    12  S   -0.587966  -0.001682
    13  H    0.113831   0.000592
    14  H    0.100419   0.015098
    15  H    0.111869   0.062449
    16  H   -0.021805   0.160100
    17  H   -0.573891   0.831101
    18  H   -0.340496   0.589148
    19  H    0.061636   0.076040
    20  H    0.076898   0.026184
    21  H    0.137050   0.059277
 Sum of Mulliken charges =  -1.00000   1.00000

 Dipole moment (field-independent basis, Debye):
    X=              7.1227    Y=              3.7825    Z=             -1.7626  Tot=              8.2551
 Quadrupole moment (field-independent basis, Debye-Ang):
   XX=           -156.7844   YY=           -110.2769   ZZ=           -105.3490
   XY=            -16.9352   XZ=              7.9699   YZ=              2.8644

 Summary of Natural Population Analysis:

                                       Natural Population
                Natural  -----------------------------------------------
    Atom  No    Charge         Core      Valence    Rydberg      Total
 -----------------------------------------------------------------------
      C    1   -0.30350      0.99962     2.29800    0.00588     3.30350
      C    2   -0.05475      0.99946     2.04584    0.00945     3.05475
      C    3   -0.06907      0.99941     2.05878    0.01087     3.06907
      C    4   -0.15590      0.99943     2.14552    0.01094     3.15590
      C    5    0.01536      0.99948     1.96962    0.01555     2.98464
      S    6    0.18072      4.99939     2.79887    0.02102     7.81928
      N    7   -0.40466      0.99970     2.89179    0.01317     3.90466
      C    8   -0.06812      0.99945     2.05727    0.01141     3.06812
      C    9   -0.12207      0.99949     2.11356    0.00902     3.12207
      C   10   -0.13980      0.99954     2.12967    0.01059     3.13980
      C   11   -0.17818      0.99955     2.16641    0.01223     3.17818
      S   12    0.20023      4.99944     2.77837    0.02196     7.79977
      H   13    0.09988      0.00000     0.39919    0.00093     0.40012
      H   14    0.10908      0.00000     0.38915    0.00177     0.39092
      H   15    0.10261      0.00000     0.39577    0.00162     0.39739
      H   16    0.10332      0.00000     0.39499    0.00169     0.39668
      H   17    0.19154      0.00000     0.29498    0.01348     0.30846
      H   18    0.18853      0.00000     0.30579    0.00567     0.31147
      H   19    0.10370      0.00000     0.39524    0.00105     0.39630
      H   20    0.09979      0.00000     0.39931    0.00090     0.40021
      H   21    0.10128      0.00000     0.39776    0.00096     0.39872
 =======================================================================
   * Total *    0.00000     19.99397    30.82588    0.18014    51.00000

 Normal termination of Gaussian 16 at Wed Dec  9 17:40:53 2020.
