 Gaussian 16, Revision A.03,

 -----------------------------------------------------------
 # opt freq B3LYP/6-31G(d) empiricaldispersion=gd3bj scf=xqc
 -----------------------------------------------------------

 -------------------------------
 CID_151403243_JID_1544_neutraal
 -------------------------------
 Symbolic Z-matrix:
 Charge =  0 Multiplicity = 1

 SCF Done:  E(RB3LYP) =  -914.910683541     A.U. after   19 cycles
 SCF Done:  E(RB3LYP) =  -914.932412028     A.U. after   18 cycles
 SCF Done:  E(RB3LYP) =  -914.939735383     A.U. after   17 cycles
 SCF Done:  E(RB3LYP) =  -914.945464434     A.U. after   17 cycles
 SCF Done:  E(RB3LYP) =  -914.939752863     A.U. after   17 cycles
 SCF Done:  E(RB3LYP) =  -914.966431712     A.U. after   16 cycles
 SCF Done:  E(RB3LYP) =  -914.973880318     A.U. after   14 cycles
 SCF Done:  E(RB3LYP) =  -914.978280330     A.U. after   14 cycles
 SCF Done:  E(RB3LYP) =  -914.981554095     A.U. after   13 cycles
 SCF Done:  E(RB3LYP) =  -914.982268362     A.U. after   13 cycles
 SCF Done:  E(RB3LYP) =  -914.991446092     A.U. after   10 cycles
 SCF Done:  E(RB3LYP) =  -914.991447439     A.U. after    9 cycles
 SCF Done:  E(RB3LYP) =  -914.991448040     A.U. after    9 cycles
 SCF Done:  E(RB3LYP) =  -914.991448133     A.U. after    8 cycles
 SCF Done:  E(RB3LYP) =  -914.991448184     A.U. after    8 cycles
 SCF Done:  E(RB3LYP) =  -914.991448196     A.U. after    7 cycles
 Optimization completed.
    -- Stationary point found.
 Normal termination of Gaussian 16 at Tue Dec  8 20:25:25 2020.

 --------------------------------------------------------------------
 #N Geom=AllCheck Guess=TCheck SCRF=Check GenChk RB3LYP/6-31G(d) Freq
 --------------------------------------------------------------------

 Structure from the checkpoint file:  "JID_1544.chk"
 -------------------------------
 CID_151403243_JID_1544_neutraal
 -------------------------------
 Charge =  0 Multiplicity = 1

 SCF Done:  E(RB3LYP) =  -914.991448196     A.U. after    1 cycles

  Exact polarizability: 102.721  -5.367 105.696  -4.406  -4.918  81.443
 Approx polarizability: 140.120 -15.507 171.719 -12.601 -16.048 137.251

                      1                      2                      3
                      A                      A                      A
 Frequencies --     23.7717                50.5486                65.0757
 Red. masses --      3.7320                 4.8465                 4.7167
 Frc consts  --      0.0012                 0.0073                 0.0118
 IR Inten    --      0.2057                 2.4302                 0.4798

                      4                      5                      6
                      A                      A                      A
 Frequencies --     98.8464               127.7545               149.0905
 Red. masses --      4.4051                 3.7479                 2.6262
 Frc consts  --      0.0254                 0.0360                 0.0344
 IR Inten    --      0.2777                 0.2552                 2.1441

                      7                      8                      9
                      A                      A                      A
 Frequencies --    184.9300               225.3842               258.1510
 Red. masses --      3.4448                 1.8752                 3.1854
 Frc consts  --      0.0694                 0.0561                 0.1251
 IR Inten    --      2.0468                 0.8063                 0.5545

                     10                     11                     12
                      A                      A                      A
 Frequencies --    280.9844               297.9884               321.0764
 Red. masses --      1.7005                 9.9544                 4.3127
 Frc consts  --      0.0791                 0.5208                 0.2619
 IR Inten    --      3.8814                30.6256                 1.8098

                     13                     14                     15
                      A                      A                      A
 Frequencies --    365.2861               400.2569               458.0259
 Red. masses --      2.0049                 1.5716                 7.2879
 Frc consts  --      0.1576                 0.1483                 0.9008
 IR Inten    --     28.3537                46.1100                53.5085

                     16                     17                     18
                      A                      A                      A
 Frequencies --    472.1623               514.1928               540.0965
 Red. masses --      2.0750                 4.1327                 2.5678
 Frc consts  --      0.2726                 0.6438                 0.4413
 IR Inten    --     15.6189                 8.2956                 6.7243

                     19                     20                     21
                      A                      A                      A
 Frequencies --    662.2118               693.5344               755.7426
 Red. masses --      1.3686                 3.5763                 1.2403
 Frc consts  --      0.3536                 1.0135                 0.4174
 IR Inten    --     31.8660                27.5693                 8.7508

                     22                     23                     24
                      A                      A                      A
 Frequencies --    813.5840               824.5047               864.8127
 Red. masses --      2.8807                 2.2740                 1.8620
 Frc consts  --      1.1235                 0.9108                 0.8205
 IR Inten    --      4.2888                21.5948                63.4521

                     25                     26                     27
                      A                      A                      A
 Frequencies --    895.0657               971.5247               992.3764
 Red. masses --      1.3458                 2.3855                 1.4603
 Frc consts  --      0.6353                 1.3266                 0.8473
 IR Inten    --     66.3566                 8.5976                 1.2922

                     28                     29                     30
                      A                      A                      A
 Frequencies --   1008.9900              1058.7989              1091.2232
 Red. masses --      2.5221                 1.4865                 2.9193
 Frc consts  --      1.5128                 0.9818                 2.0481
 IR Inten    --     25.3698                 4.0815                36.8071

                     31                     32                     33
                      A                      A                      A
 Frequencies --   1105.0480              1152.7510              1158.8897
 Red. masses --      3.6538                 2.9898                 2.1092
 Frc consts  --      2.6288                 2.3408                 1.6690
 IR Inten    --     96.3768                33.5716                10.7698

                     34                     35                     36
                      A                      A                      A
 Frequencies --   1175.2052              1183.3438              1246.0388
 Red. masses --      2.2865                 2.4314                 1.2484
 Frc consts  --      1.8606                 2.0059                 1.1420
 IR Inten    --     80.3153                67.8185                59.6050

                     37                     38                     39
                      A                      A                      A
 Frequencies --   1279.4069              1302.7366              1310.8924
 Red. masses --      1.3244                 1.5267                 2.3541
 Frc consts  --      1.2773                 1.5266                 2.3834
 IR Inten    --     21.6346                78.3347                67.1118

                     40                     41                     42
                      A                      A                      A
 Frequencies --   1332.0523              1354.3983              1378.8190
 Red. masses --      1.3182                 2.1723                 1.3433
 Frc consts  --      1.3780                 2.3478                 1.5047
 IR Inten    --     18.2065               117.8034                10.3735

                     43                     44                     45
                      A                      A                      A
 Frequencies --   1390.5854              1407.0060              1419.8673
 Red. masses --      1.3710                 1.4440                 1.3896
 Frc consts  --      1.5620                 1.6842                 1.6506
 IR Inten    --      9.7695                 6.9388                29.0703

                     46                     47                     48
                      A                      A                      A
 Frequencies --   1447.5479              1449.5794              1505.6945
 Red. masses --      1.2604                 1.3912                 1.0920
 Frc consts  --      1.5561                 1.7224                 1.4586
 IR Inten    --      5.4761                18.2466                 0.8472

                     49                     50                     51
                      A                      A                      A
 Frequencies --   1518.8662              1531.1995              1532.7726
 Red. masses --      1.1109                 1.0726                 1.0704
 Frc consts  --      1.5100                 1.4817                 1.4817
 IR Inten    --     26.9304                17.8111                 7.9045

                     52                     53                     54
                      A                      A                      A
 Frequencies --   1547.1049              1552.3522              2975.9398
 Red. masses --      1.1240                 1.0929                 1.0715
 Frc consts  --      1.5852                 1.5517                 5.5910
 IR Inten    --     10.0741                33.3639                38.2570

                     55                     56                     57
                      A                      A                      A
 Frequencies --   2986.0409              3036.9301              3038.2863
 Red. masses --      1.0832                 1.0638                 1.0637
 Frc consts  --      5.6904                 5.7805                 5.7851
 IR Inten    --     47.7792                15.4892                17.0258

                     58                     59                     60
                      A                      A                      A
 Frequencies --   3049.1622              3061.3461              3070.3756
 Red. masses --      1.0406                 1.0895                 1.0953
 Frc consts  --      5.7003                 6.0157                 6.0839
 IR Inten    --     25.8189                45.3391                47.6418

                     61                     62                     63
                      A                      A                      A
 Frequencies --   3085.6334              3113.6286              3131.2576
 Red. masses --      1.1024                 1.1004                 1.1006
 Frc consts  --      6.1840                 6.2854                 6.3579
 IR Inten    --     47.7552                36.2676                41.1350

                     64                     65                     66
                      A                      A                      A
 Frequencies --   3251.4866              3509.3577              3700.8375
 Red. masses --      1.0894                 1.0729                 1.0644
 Frc consts  --      6.7861                 7.7850                 8.5895
 IR Inten    --      5.5693                 5.4687                20.3108

 - Thermochemistry -
 -------------------
 Temperature   298.150 Kelvin.  Pressure   1.00000 Atm.
 Atom     1 has atomic number  6 and mass  12.00000

 Molecular mass:   179.06162 amu.
 Principal axes and moments of inertia in atomic units:
                           1         2         3
     Eigenvalues --  1494.655572722.759453664.40418
           X            0.99889   0.04703  -0.00236
           Y           -0.04706   0.99880  -0.01369
           Z            0.00171   0.01379   0.99990
 This molecule is an asymmetric top.
 Rotational symmetry number  1.
 Warning -- assumption of classical behavior for rotation
           may cause significant error
 Rotational temperatures (Kelvin)      0.05795     0.03181     0.02364
 Rotational constants (GHZ):           1.20746     0.66284     0.49251
 Zero-point vibrational energy     524912.0 (Joules/Mol)
                                  125.45698 (Kcal/Mol)
 Warning -- explicit consideration of  18 degrees of freedom as
           vibrations may cause significant error
 Vibrational temperatures:     34.20    72.73    93.63   142.22   183.81
          (Kelvin)            214.51   266.07   324.28   371.42   404.27
                              428.74   461.96   525.57   575.88   659.00
                              679.34   739.81   777.08   952.78   997.84
                             1087.35  1170.57  1186.28  1244.27  1287.80
                             1397.81  1427.81  1451.71  1523.38  1570.03
                             1589.92  1658.55  1667.38  1690.86  1702.57
                             1792.77  1840.78  1874.35  1886.08  1916.53
                             1948.68  1983.81  2000.74  2024.37  2042.87
                             2082.70  2085.62  2166.36  2185.31  2203.05
                             2205.32  2225.94  2233.49  4281.71  4296.25
                             4369.47  4371.42  4387.06  4404.59  4417.59
                             4439.54  4479.82  4505.18  4678.16  5049.18
                             5324.68

 Zero-point correction=                           0.199928 (Hartree/Particle)
 Thermal correction to Energy=                    0.212768
 Thermal correction to Enthalpy=                  0.213712
 Thermal correction to Gibbs Free Energy=         0.159287
 Sum of electronic and zero-point Energies=           -914.791520
 Sum of electronic and thermal Energies=              -914.778680
 Sum of electronic and thermal Enthalpies=            -914.777736
 Sum of electronic and thermal Free Energies=         -914.832161

                     E (Thermal)             CV                S
                      KCal/Mol        Cal/Mol-Kelvin    Cal/Mol-Kelvin
 Total                  133.514             45.763            114.548
 Electronic               0.000              0.000              0.000
 Translational            0.889              2.981             41.455
 Rotational               0.889              2.981             31.078
 Vibrational            131.737             39.802             42.015
 Vibration     1          0.593              1.985              6.291
 Vibration     2          0.595              1.977              4.796
 Vibration     3          0.597              1.971              4.297
 Vibration     4          0.604              1.950              3.477
 Vibration     5          0.611              1.925              2.980
 Vibration     6          0.618              1.904              2.684
 Vibration     7          0.631              1.860              2.278
 Vibration     8          0.650              1.802              1.915
 Vibration     9          0.667              1.749              1.674
 Vibration    10          0.681              1.709              1.528
 Vibration    11          0.691              1.677              1.428
 Vibration    12          0.707              1.633              1.305
 Vibration    13          0.739              1.544              1.100
 Vibration    14          0.766              1.470              0.962
 Vibration    15          0.816              1.343              0.772
 Vibration    16          0.829              1.312              0.732
 Vibration    17          0.869              1.219              0.624
 Vibration    18          0.895              1.161              0.565

 Optimization completed.
    -- Stationary point found.
 Normal termination of Gaussian 16 at Tue Dec  8 20:30:34 2020.

 ----------------------------------------------------------------------
 # B3LYP/6-311++G(d,p) empiricaldispersion=gd3bj scf=xqc pop=npa geom=c
 heck
 ----------------------------------------------------------------------

 ---------------------------------------
 CID_151403243_JID_1544_Energie_neutraal
 ---------------------------------------
 Structure from the checkpoint file:  "JID_1544.chk"
 Charge =  0 Multiplicity = 1

 SCF Done:  E(RB3LYP) =  -915.185906774     A.U. after   14 cycles
 Normal termination of Gaussian 16 at Tue Dec  8 20:32:29 2020.

 ----------------------------------------------------------------------
 # B3LYP/6-311++G(d,p) empiricaldispersion=gd3bj scf=xqc pop=npa geom=c
 heck
 ----------------------------------------------------------------------

 -------------------------------------
 CID_151403243_JID_1544_Energie_kation
 -------------------------------------
 Structure from the checkpoint file:  "JID_1544.chk"
 Charge =  1 Multiplicity = 2

 SCF Done:  E(UB3LYP) =  -914.849139990     A.U. after   25 cycles
 Normal termination of Gaussian 16 at Tue Dec  8 20:38:46 2020.
 Gaussian 16:  ES64L-G16RevA.03 25-Dec-2016

 ----------------------------------------------------------------------
 # B3LYP/6-311++G(d,p) empiricaldispersion=gd3bj scf=xqc pop=npa geom=c
 heck
 ----------------------------------------------------------------------

 ------------------------------------
 CID_151403243_JID_1544_Energie_anion
 ------------------------------------
 Structure from the checkpoint file:  "JID_1544.chk"
 Charge = -1 Multiplicity = 2

                         Standard orientation:
 ---------------------------------------------------------------------
 Center     Atomic      Atomic             Coordinates (Angstroms)
 Number     Number       Type             X           Y           Z
 ---------------------------------------------------------------------
      1          6           0        2.495477    1.911847   -0.075080
      2          6           0        3.006252    0.549743   -0.555115
      3          6           0        2.859472   -0.578793    0.478344
      4          6           0        1.425992   -0.856048    0.934709
      5          7           0        0.591948   -1.312903   -0.178671
      6          6           0       -0.752451   -1.697120    0.181947
      7          6           0       -1.676697   -0.605885    0.701316
      8         16           0       -1.780800    0.842971    0.010227
      9          8           0       -2.714955    1.835800    0.551992
     10          8           0       -0.821008    1.167635   -1.056856
     11          8           0       -1.386739   -2.284548   -0.937110
     12          1           0        1.409609    1.913279    0.061314
     13          1           0        2.727663    2.694487   -0.805182
     14          1           0        2.959996    2.194014    0.877997
     15          1           0        2.493475    0.273066   -1.486263
     16          1           0        4.068585    0.631906   -0.817909
     17          1           0        3.276355   -1.505839    0.066075
     18          1           0        3.452960   -0.326304    1.367555
     19          1           0        1.434679   -1.651433    1.690842
     20          1           0        1.010022    0.038825    1.428711
     21          1           0        0.544034   -0.597088   -0.901945
     22          1           0       -0.664927   -2.411175    1.017844
     23          1           0       -2.423049   -0.789325    1.464152
     24          1           0       -0.706911   -2.855193   -1.337059
 ---------------------------------------------------------------------

 SCF Done:  E(UB3LYP) =  -915.198234197     A.U. after   29 cycles

 The electronic state is 2-A.
 Alpha  occ. eigenvalues --  -88.83282 -18.99731 -18.96312 -18.96112 -14.17532
 Alpha  occ. eigenvalues --  -10.12872 -10.07553 -10.05991 -10.05905 -10.04403
 Alpha  occ. eigenvalues --  -10.02721  -7.90720  -5.87036  -5.86781  -5.86755
 Alpha  occ. eigenvalues --   -0.94319  -0.91092  -0.84935  -0.78030  -0.68158
 Alpha  occ. eigenvalues --   -0.63597  -0.60094  -0.53498  -0.51707  -0.45725
 Alpha  occ. eigenvalues --   -0.42122  -0.39899  -0.37139  -0.35239  -0.33941
 Alpha  occ. eigenvalues --   -0.33002  -0.31606  -0.30890  -0.29571  -0.28631
 Alpha  occ. eigenvalues --   -0.28061  -0.27045  -0.26660  -0.23485  -0.22537
 Alpha  occ. eigenvalues --   -0.21958  -0.21415  -0.18899  -0.17943  -0.16220
 Alpha  occ. eigenvalues --   -0.15646  -0.11854  -0.09718   0.05162
 Alpha virt. eigenvalues --    0.07264   0.08784   0.09314   0.09790   0.11024
 Alpha virt. eigenvalues --    0.11504   0.12091   0.12707   0.13260   0.13975
 Alpha virt. eigenvalues --    0.14410   0.15616   0.17080   0.17760   0.18127

  Beta  occ. eigenvalues --  -88.83018 -18.99675 -18.95973 -18.95768 -14.17520
  Beta  occ. eigenvalues --  -10.12882 -10.07535 -10.05986 -10.05899 -10.04384
  Beta  occ. eigenvalues --  -10.02391  -7.90468  -5.86884  -5.86629  -5.85986
  Beta  occ. eigenvalues --   -0.93518  -0.90957  -0.84227  -0.77977  -0.68121
  Beta  occ. eigenvalues --   -0.63006  -0.59972  -0.53353  -0.51525  -0.45684
  Beta  occ. eigenvalues --   -0.41790  -0.39374  -0.37004  -0.35139  -0.33832
  Beta  occ. eigenvalues --   -0.32724  -0.31396  -0.29402  -0.29189  -0.27994
  Beta  occ. eigenvalues --   -0.27934  -0.26850  -0.26560  -0.23410  -0.22495
  Beta  occ. eigenvalues --   -0.21935  -0.21373  -0.18622  -0.16392  -0.15953
  Beta  occ. eigenvalues --   -0.15315  -0.11643  -0.07686
  Beta virt. eigenvalues --    0.07292   0.08745   0.09191   0.09724   0.10866
  Beta virt. eigenvalues --    0.11479   0.11924   0.12556   0.12822   0.13647
  Beta virt. eigenvalues --    0.14102   0.14661   0.15605   0.17056   0.17863

 Mulliken charges and spin densities:
               1          2
     1  C   -0.049170  -0.562223
     2  C   -0.301304   0.257457
     3  C   -0.292422  -0.109455
     4  C   -0.117314  -0.224982
     5  N   -0.167053  -0.046616
     6  C   -0.337308   0.030533
     7  C   -0.378284   0.104329
     8  S    0.288216   0.544165
     9  O   -0.305303   0.037043
    10  O   -0.351783   0.077785
    11  O   -0.188802  -0.002848
    12  H    0.124277   0.111123
    13  H    0.035549   0.078746
    14  H   -0.047306   0.154073
    15  H    0.130735   0.000620
    16  H   -0.016780   0.151342
    17  H    0.126781   0.000333
    18  H    0.006902   0.118871
    19  H    0.002746   0.109810
    20  H    0.091946   0.039644
    21  H    0.305385  -0.009605
    22  H    0.119842  -0.002111
    23  H    0.112284   0.111086
    24  H    0.208163   0.030881
 Sum of Mulliken charges =  -1.00000   1.00000

 Dipole moment (field-independent basis, Debye):
    X=              4.9983    Y=             -3.7543    Z=              0.1188  Tot=              6.2523
 Quadrupole moment (field-independent basis, Debye-Ang):
   XX=           -112.5836   YY=            -98.3428   ZZ=            -89.7234
   XY=              4.1875   XZ=             -1.1634   YZ=             -1.8678

 Summary of Natural Population Analysis:

                                       Natural Population
                Natural  -----------------------------------------------
    Atom  No    Charge         Core      Valence    Rydberg      Total
 -----------------------------------------------------------------------
      C    1   -0.29091      0.99966     2.28652    0.00473     3.29091
      C    2   -0.19339      0.99964     2.18532    0.00842     3.19339
      C    3   -0.19102      0.99963     2.18173    0.00966     3.19102
      C    4   -0.09170      0.99963     2.07880    0.01327     3.09170
      N    5   -0.36111      0.99972     2.84938    0.01201     3.86111
      C    6    0.13837      0.99959     1.84283    0.01921     2.86163
      C    7   -0.30239      0.99958     2.28896    0.01385     3.30239
      S    8    1.07244      4.99891     1.84728    0.08137     6.92756
      O    9   -0.42235      0.99991     3.41648    0.00596     4.42235
      O   10   -0.43711      0.99991     3.43029    0.00691     4.43711
      O   11   -0.36766      0.99989     3.36034    0.00742     4.36766
      H   12    0.11338      0.00000     0.38522    0.00140     0.38662
      H   13    0.09568      0.00000     0.40347    0.00085     0.40432
      H   14    0.08968      0.00000     0.40920    0.00111     0.41032
      H   15    0.09615      0.00000     0.40275    0.00110     0.40385
      H   16    0.08991      0.00000     0.40905    0.00103     0.41009
      H   17    0.09448      0.00000     0.40443    0.00109     0.40552
      H   18    0.09210      0.00000     0.40701    0.00088     0.40790
      H   19    0.08830      0.00000     0.41056    0.00114     0.41170
      H   20    0.08874      0.00000     0.40928    0.00198     0.41126
      H   21    0.19126      0.00000     0.30611    0.00264     0.30874
      H   22    0.07125      0.00000     0.42651    0.00224     0.42875
      H   23    0.11222      0.00000     0.38673    0.00105     0.38778
      H   24    0.22367      0.00000     0.27338    0.00295     0.27633
 =======================================================================
   * Total *    0.00000     14.99607    32.80165    0.20228    48.00000

 Normal termination of Gaussian 16 at Tue Dec  8 20:44:54 2020.
