 Gaussian 16, Revision A.03,

 -----------------------------------------------------------
 # opt freq B3LYP/6-31G(d) empiricaldispersion=gd3bj scf=xqc
 -----------------------------------------------------------

 ------------------------------
 CID_11680396_JID_8270_neutraal
 ------------------------------
 Symbolic Z-matrix:
 Charge =  0 Multiplicity = 1

 SCF Done:  E(RB3LYP) =  -791.891797338     A.U. after   15 cycles
 SCF Done:  E(RB3LYP) =  -791.896539514     A.U. after   12 cycles
 SCF Done:  E(RB3LYP) =  -791.897501249     A.U. after   12 cycles
 SCF Done:  E(RB3LYP) =  -791.898760764     A.U. after   12 cycles
 SCF Done:  E(RB3LYP) =  -791.899081148     A.U. after   12 cycles
 SCF Done:  E(RB3LYP) =  -791.899743685     A.U. after   11 cycles
 SCF Done:  E(RB3LYP) =  -791.900020938     A.U. after   11 cycles
 SCF Done:  E(RB3LYP) =  -791.900207726     A.U. after   11 cycles
 SCF Done:  E(RB3LYP) =  -791.900352035     A.U. after   11 cycles
 SCF Done:  E(RB3LYP) =  -791.900452817     A.U. after   10 cycles
 SCF Done:  E(RB3LYP) =  -791.900502997     A.U. after   10 cycles
 SCF Done:  E(RB3LYP) =  -791.900504562     A.U. after    8 cycles
 SCF Done:  E(RB3LYP) =  -791.900505614     A.U. after    9 cycles
 SCF Done:  E(RB3LYP) =  -791.900506381     A.U. after    9 cycles
 SCF Done:  E(RB3LYP) =  -791.900506657     A.U. after    9 cycles
 Optimization completed.
    -- Stationary point found.
 Normal termination of Gaussian 16 at Fri Dec 11 19:55:04 2020.

 --------------------------------------------------------------------
 #N Geom=AllCheck Guess=TCheck SCRF=Check GenChk RB3LYP/6-31G(d) Freq
 --------------------------------------------------------------------

 Structure from the checkpoint file:  "JID_8270.chk"
 ------------------------------
 CID_11680396_JID_8270_neutraal
 ------------------------------
 Charge =  0 Multiplicity = 1

 SCF Done:  E(RB3LYP) =  -791.900506657     A.U. after    1 cycles

  Exact polarizability: 212.780  -4.639 153.407   6.785   0.535 143.805
 Approx polarizability: 255.285  -6.752 222.184   8.507   0.713 220.053

                      1                      2                      3
                      A                      A                      A
 Frequencies --     14.2268                17.1606                31.9080
 Red. masses --      3.7256                 4.2265                 3.4027
 Frc consts  --      0.0004                 0.0007                 0.0020
 IR Inten    --      0.5503                 0.3817                 0.0714

                      4                      5                      6
                      A                      A                      A
 Frequencies --     51.1636                53.6388                67.1201
 Red. masses --      3.1903                 3.2528                 2.9847
 Frc consts  --      0.0049                 0.0055                 0.0079
 IR Inten    --      1.3030                 0.5747                 0.1487

                      7                      8                      9
                      A                      A                      A
 Frequencies --     79.6140               108.4654               115.1867
 Red. masses --      2.9504                 3.0599                 2.9055
 Frc consts  --      0.0110                 0.0212                 0.0227
 IR Inten    --      1.4667                 0.1096                 0.1941

                     10                     11                     12
                      A                      A                      A
 Frequencies --    131.5279               161.6933               176.8223
 Red. masses --      4.7336                 2.9749                 2.2009
 Frc consts  --      0.0482                 0.0458                 0.0405
 IR Inten    --      2.7716                 0.2413                 1.4630

                     13                     14                     15
                      A                      A                      A
 Frequencies --    203.1968               222.2393               242.9257
 Red. masses --      2.1369                 2.9210                 2.1299
 Frc consts  --      0.0520                 0.0850                 0.0741
 IR Inten    --      1.3812                 2.7521                 1.6048

                     16                     17                     18
                      A                      A                      A
 Frequencies --    257.5843               288.0791               306.0002
 Red. masses --      2.4794                 2.3025                 1.8389
 Frc consts  --      0.0969                 0.1126                 0.1014
 IR Inten    --      2.6404                 0.8838                 0.6024

                     19                     20                     21
                      A                      A                      A
 Frequencies --    325.5953               364.0422               385.2332
 Red. masses --      3.8927                 2.3023                 2.3170
 Frc consts  --      0.2431                 0.1798                 0.2026
 IR Inten    --      3.7633                 0.5947                 1.2840

                     22                     23                     24
                      A                      A                      A
 Frequencies --    416.1875               426.8927               448.2105
 Red. masses --      3.3529                 2.0041                 1.9858
 Frc consts  --      0.3422                 0.2152                 0.2350
 IR Inten    --      1.2374                 0.6962                 1.7946

                     25                     26                     27
                      A                      A                      A
 Frequencies --    474.7434               495.5916               546.1163
 Red. masses --      2.2226                 2.3478                 3.0393
 Frc consts  --      0.2951                 0.3397                 0.5341
 IR Inten    --      4.3735                 2.0271                 1.0786

                     28                     29                     30
                      A                      A                      A
 Frequencies --    570.1942               609.0309               674.4258
 Red. masses --      3.3462                 4.5550                 2.0189
 Frc consts  --      0.6410                 0.9955                 0.5410
 IR Inten    --      1.1745                 5.7339                25.3678

                     31                     32                     33
                      A                      A                      A
 Frequencies --    713.3929               726.4164               740.0692
 Red. masses --      1.3660                 3.0852                 4.8343
 Frc consts  --      0.4096                 0.9592                 1.5600
 IR Inten    --     30.0377                13.9441                26.0010

                     34                     35                     36
                      A                      A                      A
 Frequencies --    755.1792               765.2484               803.5130
 Red. masses --      1.9763                 1.6701                 3.3085
 Frc consts  --      0.6640                 0.5762                 1.2585
 IR Inten    --      3.9291                 5.4269                 6.7058

                     37                     38                     39
                      A                      A                      A
 Frequencies --    838.4815               846.1462               878.3514
 Red. masses --      1.9213                 1.8191                 1.7343
 Frc consts  --      0.7958                 0.7673                 0.7883
 IR Inten    --      1.5177                 0.1235                 5.4256

                     40                     41                     42
                      A                      A                      A
 Frequencies --    912.1151               929.5706               940.2924
 Red. masses --      1.6954                 1.3070                 1.9970
 Frc consts  --      0.8310                 0.6654                 1.0403
 IR Inten    --      1.8368                 1.0746                 2.2126

                     43                     44                     45
                      A                      A                      A
 Frequencies --    946.9833               948.7137               958.9954
 Red. masses --      1.5902                 1.3529                 1.6196
 Frc consts  --      0.8402                 0.7175                 0.8776
 IR Inten    --      3.5236                37.5425                 6.7106

                     46                     47                     48
                      A                      A                      A
 Frequencies --    962.3806               976.4461              1029.2229
 Red. masses --      1.8422                 1.9921                 1.6150
 Frc consts  --      1.0053                 1.1191                 1.0080
 IR Inten    --      3.6501                 2.3888                 4.0646

                     49                     50                     51
                      A                      A                      A
 Frequencies --   1034.0046              1038.5990              1048.1708
 Red. masses --      1.2224                 1.6991                 1.7968
 Frc consts  --      0.7701                 1.0798                 1.1631
 IR Inten    --     15.1392                 5.4431                 5.5330

                     52                     53                     54
                      A                      A                      A
 Frequencies --   1061.8795              1077.5430              1111.1987
 Red. masses --      1.9111                 2.6807                 2.4396
 Frc consts  --      1.2696                 1.8339                 1.7748
 IR Inten    --      0.3399                19.1899                13.1781

                     55                     56                     57
                      A                      A                      A
 Frequencies --   1115.7744              1134.7132              1140.5949
 Red. masses --      2.4612                 2.5769                 1.6863
 Frc consts  --      1.8053                 1.9548                 1.2926
 IR Inten    --     23.9072                 5.8784                 5.2260

                     58                     59                     60
                      A                      A                      A
 Frequencies --   1149.4619              1172.2365              1188.2053
 Red. masses --      2.2552                 3.5395                 2.1029
 Frc consts  --      1.7556                 2.8657                 1.7493
 IR Inten    --      4.5211               165.2044                12.7097

                     61                     62                     63
                      A                      A                      A
 Frequencies --   1213.8546              1216.0778              1228.2225
 Red. masses --      1.4671                 1.3538                 2.1747
 Frc consts  --      1.2736                 1.1795                 1.9328
 IR Inten    --     67.4297                50.6560                88.7784

                     64                     65                     66
                      A                      A                      A
 Frequencies --   1251.0321              1259.9482              1262.1891
 Red. masses --      1.6428                 1.3104                 1.4474
 Frc consts  --      1.5148                 1.2256                 1.3586
 IR Inten    --     24.0927                18.5559                24.6350

                     67                     68                     69
                      A                      A                      A
 Frequencies --   1288.0558              1309.2068              1315.8906
 Red. masses --      1.3255                 1.3462                 1.1845
 Frc consts  --      1.2956                 1.3595                 1.2085
 IR Inten    --     10.8138                27.0590                 9.6832

                     70                     71                     72
                      A                      A                      A
 Frequencies --   1321.8461              1334.7491              1341.2651
 Red. masses --      1.1693                 1.2727                 1.2415
 Frc consts  --      1.2038                 1.3359                 1.3159
 IR Inten    --      3.3085                19.5325                 2.6472

                     73                     74                     75
                      A                      A                      A
 Frequencies --   1349.0555              1358.7862              1382.4791
 Red. masses --      1.1143                 1.3504                 1.4192
 Frc consts  --      1.1948                 1.4690                 1.5981
 IR Inten    --      1.0878                11.8360                 6.1336

                     76                     77                     78
                      A                      A                      A
 Frequencies --   1386.9941              1393.2723              1412.0393
 Red. masses --      1.3612                 1.4541                 1.4963
 Frc consts  --      1.5428                 1.6631                 1.7578
 IR Inten    --     15.9931                 7.5704                27.8667

                     79                     80                     81
                      A                      A                      A
 Frequencies --   1417.9293              1419.5395              1443.4161
 Red. masses --      1.3827                 1.4412                 1.2745
 Frc consts  --      1.6379                 1.7111                 1.5644
 IR Inten    --      2.2748                 3.7803                 4.8497

                     82                     83                     84
                      A                      A                      A
 Frequencies --   1444.5865              1450.0281              1474.6214
 Red. masses --      1.4936                 1.7523                 1.5483
 Frc consts  --      1.8364                 2.1707                 1.9836
 IR Inten    --     20.7014                83.9893                49.9331

                     85                     86                     87
                      A                      A                      A
 Frequencies --   1477.0034              1497.1579              1512.7861
 Red. masses --      1.2396                 1.0868                 1.0750
 Frc consts  --      1.5933                 1.4353                 1.4495
 IR Inten    --      4.5821                 8.5673                 3.1486

                     88                     89                     90
                      A                      A                      A
 Frequencies --   1514.6960              1521.3609              1530.6597
 Red. masses --      1.1101                 1.0672                 1.0601
 Frc consts  --      1.5006                 1.4553                 1.4634
 IR Inten    --      6.8829                 4.0553                 4.3794

                     91                     92                     93
                      A                      A                      A
 Frequencies --   1531.1105              1535.9417              1540.4571
 Red. masses --      1.0848                 1.0637                 1.1173
 Frc consts  --      1.4983                 1.4785                 1.5621
 IR Inten    --      6.1249                 5.6985                18.9983

                     94                     95                     96
                      A                      A                      A
 Frequencies --   1544.3514              1553.4221              1736.1918
 Red. masses --      1.0792                 1.0977                 4.4721
 Frc consts  --      1.5165                 1.5607                 7.9425
 IR Inten    --      2.0543                16.9847                 7.1150

                     97                     98                     99
                      A                      A                      A
 Frequencies --   1741.2964              1831.8390              2982.8122
 Red. masses --      7.0259                11.6921                 1.0723
 Frc consts  --     12.5515                23.1163                 5.6208
 IR Inten    --     18.6181               429.6969                47.3103

                    100                    101                    102
                      A                      A                      A
 Frequencies --   3017.7861              3025.6437              3027.0939
 Red. masses --      1.0654                 1.0700                 1.0649
 Frc consts  --      5.7168                 5.7713                 5.7494
 IR Inten    --      8.3414                59.9338                14.0305

                    103                    104                    105
                      A                      A                      A
 Frequencies --   3033.0766              3037.8833              3042.8966
 Red. masses --      1.0627                 1.0602                 1.0472
 Frc consts  --      5.7600                 5.7650                 5.7127
 IR Inten    --     31.3638                34.9051                14.8762

                    106                    107                    108
                      A                      A                      A
 Frequencies --   3045.1356              3055.0626              3059.4861
 Red. masses --      1.0562                 1.0650                 1.0984
 Frc consts  --      5.7703                 5.8568                 6.0578
 IR Inten    --     21.8207                 4.8445                 5.2427

                    109                    110                    111
                      A                      A                      A
 Frequencies --   3060.7538              3067.6326              3075.6780
 Red. masses --      1.0822                 1.0964                 1.0983
 Frc consts  --      5.9735                 6.0791                 6.1214
 IR Inten    --     27.2045                31.0120                53.3699

                    112                    113                    114
                      A                      A                      A
 Frequencies --   3077.8604              3079.8321              3087.6591
 Red. masses --      1.0962                 1.1007                 1.0999
 Frc consts  --      6.1181                 6.1513                 6.1780
 IR Inten    --     17.7036               124.0166                18.1661

                    115                    116                    117
                      A                      A                      A
 Frequencies --   3094.5147              3108.0011              3114.8141
 Red. masses --      1.0915                 1.1015                 1.1019
 Frc consts  --      6.1583                 6.2688                 6.2987
 IR Inten    --     26.4938                53.5629                51.8199

                    118                    119                    120
                      A                      A                      A
 Frequencies --   3120.6097              3140.0589              3151.0504
 Red. masses --      1.0973                 1.0864                 1.0753
 Frc consts  --      6.2958                 6.3115                 6.2905
 IR Inten    --     33.5697                14.7736                22.8480

                    121                    122                    123
                      A                      A                      A
 Frequencies --   3160.4880              3179.5969              3240.0655
 Red. masses --      1.0748                 1.0920                 1.1156
 Frc consts  --      6.3253                 6.5046                 6.9001
 IR Inten    --      3.8136                27.6286                16.5998

 - Thermochemistry -
 -------------------
 Temperature   298.150 Kelvin.  Pressure   1.00000 Atm.
 Atom     1 has atomic number  6 and mass  12.00000

 Molecular mass:   251.18853 amu.
 Principal axes and moments of inertia in atomic units:
                           1         2         3
     Eigenvalues --  2290.53377********************
           X            0.99999  -0.00034  -0.00324
           Y            0.00031   0.99996  -0.00921
           Z            0.00324   0.00921   0.99995
 This molecule is an asymmetric top.
 Rotational symmetry number  1.
 Warning -- assumption of classical behavior for rotation
           may cause significant error
 Rotational temperatures (Kelvin)      0.03781     0.00721     0.00667
 Rotational constants (GHZ):           0.78791     0.15024     0.13903
 Zero-point vibrational energy    1008676.7 (Joules/Mol)
                                  241.07951 (Kcal/Mol)
 Warning -- explicit consideration of  29 degrees of freedom as
           vibrations may cause significant error
 Vibrational temperatures:     20.47    24.69    45.91    73.61    77.17
          (Kelvin)             96.57   114.55   156.06   165.73   189.24
                              232.64   254.41   292.35   319.75   349.52
                              370.61   414.48   440.27   468.46   523.78
                              554.26   598.80   614.20   644.87   683.05
                              713.05   785.74   820.38   876.26   970.35
                             1026.41  1045.15  1064.79  1086.53  1101.02
                             1156.08  1206.39  1217.42  1263.75  1312.33
                             1337.44  1352.87  1362.50  1364.99  1379.78
                             1384.65  1404.89  1480.82  1487.70  1494.31
                             1508.08  1527.81  1550.34  1598.77  1605.35
                             1632.60  1641.06  1653.82  1686.59  1709.56
                             1746.47  1749.66  1767.14  1799.96  1812.78
                             1816.01  1853.23  1883.66  1893.27  1901.84
                             1920.41  1929.78  1940.99  1954.99  1989.08
                             1995.58  2004.61  2031.61  2040.08  2042.40
                             2076.75  2078.44  2086.27  2121.65  2125.08
                             2154.08  2176.56  2179.31  2188.90  2202.28
                             2202.93  2209.88  2216.37  2221.98  2235.03
                             2497.99  2505.34  2635.61  4291.60  4341.92
                             4353.23  4355.31  4363.92  4370.84  4378.05
                             4381.27  4395.55  4401.92  4403.74  4413.64
                             4425.21  4428.35  4431.19  4442.45  4452.32
                             4471.72  4481.52  4489.86  4517.84  4533.66
                             4547.24  4574.73  4661.73

 Zero-point correction=                           0.384185 (Hartree/Particle)
 Thermal correction to Energy=                    0.403929
 Thermal correction to Enthalpy=                  0.404873
 Thermal correction to Gibbs Free Energy=         0.332374
 Sum of electronic and zero-point Energies=           -791.516322
 Sum of electronic and thermal Energies=              -791.496578
 Sum of electronic and thermal Enthalpies=            -791.495634
 Sum of electronic and thermal Free Energies=         -791.568133

                     E (Thermal)             CV                S
                      KCal/Mol        Cal/Mol-Kelvin    Cal/Mol-Kelvin
 Total                  253.469             72.794            152.587
 Electronic               0.000              0.000              0.000
 Translational            0.889              2.981             42.463
 Rotational               0.889              2.981             34.234
 Vibrational            251.692             66.832             75.889
 Vibration     1          0.593              1.986              7.311
 Vibration     2          0.593              1.986              6.938
 Vibration     3          0.594              1.983              5.707
 Vibration     4          0.595              1.977              4.772
 Vibration     5          0.596              1.976              4.679
 Vibration     6          0.598              1.970              4.236
 Vibration     7          0.600              1.963              3.900
 Vibration     8          0.606              1.942              3.296
 Vibration     9          0.608              1.937              3.180
 Vibration    10          0.612              1.922              2.924
 Vibration    11          0.622              1.889              2.530
 Vibration    12          0.628              1.871              2.362
 Vibration    13          0.639              1.835              2.104
 Vibration    14          0.648              1.807              1.941
 Vibration    15          0.659              1.774              1.781
 Vibration    16          0.667              1.750              1.678
 Vibration    17          0.685              1.696              1.485
 Vibration    18          0.696              1.662              1.384
 Vibration    19          0.710              1.624              1.282
 Vibration    20          0.738              1.546              1.105
 Vibration    21          0.754              1.502              1.019
 Vibration    22          0.779              1.435              0.905
 Vibration    23          0.789              1.412              0.869
 Vibration    24          0.807              1.365              0.801
 Vibration    25          0.831              1.306              0.724
 Vibration    26          0.851              1.260              0.669
 Vibration    27          0.901              1.148              0.552
 Vibration    28          0.926              1.096              0.504
 Vibration    29          0.968              1.013              0.434

                           ! Non-Optimized Parameters !
 Normal termination of Gaussian 16 at Fri Dec 11 20:11:59 2020.

 ----------------------------------------------------------------------
 # B3LYP/6-311++G(d,p) empiricaldispersion=gd3bj scf=xqc pop=npa geom=c
 heck
 ----------------------------------------------------------------------

 --------------------------------------
 CID_11680396_JID_8270_Energie_neutraal
 --------------------------------------
 Structure from the checkpoint file:  "JID_8270.chk"
 Charge =  0 Multiplicity = 1

 SCF Done:  E(RB3LYP) =  -792.125083776     A.U. after   15 cycles
 Normal termination of Gaussian 16 at Fri Dec 11 20:19:58 2020.

 ----------------------------------------------------------------------
 # B3LYP/6-311++G(d,p) empiricaldispersion=gd3bj scf=xqc pop=npa geom=c
 heck
 ----------------------------------------------------------------------

 ------------------------------------
 CID_11680396_JID_8270_Energie_kation
 ------------------------------------
 Structure from the checkpoint file:  "JID_8270.chk"
 Charge =  1 Multiplicity = 2

 SCF Done:  E(UB3LYP) =  -791.818973554     A.U. after   29 cycles
 Normal termination of Gaussian 16 at Fri Dec 11 20:41:21 2020.
 Gaussian 16:  ES64L-G16RevA.03 25-Dec-2016

 ----------------------------------------------------------------------
 # B3LYP/6-311++G(d,p) empiricaldispersion=gd3bj scf=xqc pop=npa geom=c
 heck
 ----------------------------------------------------------------------

 -----------------------------------
 CID_11680396_JID_8270_Energie_anion
 -----------------------------------
 Structure from the checkpoint file:  "JID_8270.chk"
 Charge = -1 Multiplicity = 2

                         Standard orientation:
 ---------------------------------------------------------------------
 Center     Atomic      Atomic             Coordinates (Angstroms)
 Number     Number       Type             X           Y           Z
 ---------------------------------------------------------------------
      1          6           0        6.178315    0.521259   -1.459047
      2          6           0        5.229735   -0.461948   -0.766798
      3          6           0        4.764299   -0.004636    0.623819
      4          6           0        4.011954    1.335740    0.651651
      5          6           0        2.773250    1.403948   -0.256767
      6          6           0        1.727701    0.300354   -0.021530
      7          6           0        1.111499    0.332901    1.344985
      8          6           0       -0.136279   -0.022548    1.657397
      9          7           0       -1.105138   -0.515777    0.739543
     10          6           0       -2.403816    0.161394    0.799827
     11          6           0       -3.289604   -0.226270   -0.377413
     12          6           0       -3.220665   -1.737725   -0.505858
     13          8           0       -1.877283   -2.175920   -0.726326
     14          6           0       -0.855108   -1.681183    0.033247
     15          8           0        0.210977   -2.255691    0.021716
     16          6           0       -4.741416    0.259767   -0.210308
     17          6           0       -4.861108    1.753248   -0.074105
     18          6           0       -5.388631    2.555604   -0.998091
     19          1           0        5.687879    1.478250   -1.670006
     20          1           0        6.538157    0.118934   -2.412612
     21          1           0        7.054486    0.730529   -0.832496
     22          1           0        4.357815   -0.642139   -1.408863
     23          1           0        5.730044   -1.433455   -0.662678
     24          1           0        4.130594   -0.787671    1.059407
     25          1           0        5.640489    0.076867    1.282364
     26          1           0        3.723568    1.549778    1.689381
     27          1           0        4.694092    2.146579    0.365546
     28          1           0        2.298594    2.386772   -0.133082
     29          1           0        3.091775    1.351431   -1.305482
     30          1           0        0.933246    0.382104   -0.772860
     31          1           0        2.171412   -0.689450   -0.184916
     32          1           0        1.737285    0.662178    2.172069
     33          1           0       -0.507439    0.071103    2.678127
     34          1           0       -2.912037   -0.086727    1.747119
     35          1           0       -2.216490    1.239383    0.804843
     36          1           0       -2.872009    0.213231   -1.291955
     37          1           0       -3.618615   -2.219367    0.399419
     38          1           0       -3.788559   -2.103466   -1.365259
     39          1           0       -5.324768   -0.076027   -1.076471
     40          1           0       -5.175533   -0.229236    0.674874
     41          1           0       -4.474055    2.189118    0.847123
     42          1           0       -5.442562    3.631709   -0.859844
     43          1           0       -5.791726    2.163467   -1.929728
 ---------------------------------------------------------------------

 SCF Done:  E(UB3LYP) =  -792.115411107     A.U. after   33 cycles
 SCF Done:  E(UB3LYP) =  -792.115411107     a.u. after    1 cycles

 The electronic state is 2-A.
 Alpha  occ. eigenvalues --  -19.06988 -18.99726 -14.26459 -10.22813 -10.14401
 Alpha  occ. eigenvalues --  -10.12566 -10.11298 -10.10438 -10.09373 -10.09198
 Alpha  occ. eigenvalues --  -10.08646 -10.08524 -10.08266 -10.08224 -10.08205
 Alpha  occ. eigenvalues --  -10.08134 -10.07988 -10.07820  -1.01471  -0.92742
 Alpha  occ. eigenvalues --   -0.86141  -0.74666  -0.73370  -0.70491  -0.68924
 Alpha  occ. eigenvalues --   -0.66734  -0.62736  -0.61224  -0.60927  -0.58017
 Alpha  occ. eigenvalues --   -0.55455  -0.52315  -0.49560  -0.47576  -0.46827
 Alpha  occ. eigenvalues --   -0.45321  -0.43612  -0.41424  -0.40491  -0.39718
 Alpha  occ. eigenvalues --   -0.38927  -0.38267  -0.37602  -0.36508  -0.34991
 Alpha  occ. eigenvalues --   -0.34828  -0.34072  -0.33779  -0.32912  -0.32413
 Alpha  occ. eigenvalues --   -0.31971  -0.30740  -0.30123  -0.29827  -0.28196
 Alpha  occ. eigenvalues --   -0.27652  -0.27230  -0.26585  -0.26176  -0.26000
 Alpha  occ. eigenvalues --   -0.24010  -0.23843  -0.23571  -0.23075  -0.21125
 Alpha  occ. eigenvalues --   -0.19136  -0.18767  -0.17963  -0.14849   0.03774
 Alpha virt. eigenvalues --    0.04947   0.06145   0.06614   0.06896   0.07123
 Alpha virt. eigenvalues --    0.07556   0.07923   0.08448   0.08573   0.09202
 Alpha virt. eigenvalues --    0.09252   0.09314   0.10063   0.10219   0.10464

  Beta  occ. eigenvalues --  -19.06990 -18.99715 -14.26461 -10.22804 -10.14375
  Beta  occ. eigenvalues --  -10.12531 -10.11284 -10.10435 -10.09344 -10.09171
  Beta  occ. eigenvalues --  -10.08642 -10.08519 -10.08260 -10.08205 -10.08195
  Beta  occ. eigenvalues --  -10.08127 -10.07953 -10.07818  -1.01461  -0.92728
  Beta  occ. eigenvalues --   -0.86129  -0.74631  -0.73356  -0.70473  -0.68872
  Beta  occ. eigenvalues --   -0.66711  -0.62707  -0.61182  -0.60867  -0.57989
  Beta  occ. eigenvalues --   -0.55418  -0.52280  -0.49518  -0.47502  -0.46791
  Beta  occ. eigenvalues --   -0.45282  -0.43570  -0.41385  -0.40472  -0.39686
  Beta  occ. eigenvalues --   -0.38883  -0.38226  -0.37583  -0.36458  -0.34971
  Beta  occ. eigenvalues --   -0.34799  -0.34025  -0.33756  -0.32876  -0.32393
  Beta  occ. eigenvalues --   -0.31949  -0.30696  -0.30102  -0.29806  -0.28157
  Beta  occ. eigenvalues --   -0.27629  -0.27182  -0.26553  -0.26146  -0.25980
  Beta  occ. eigenvalues --   -0.23983  -0.23830  -0.23554  -0.23059  -0.21106
  Beta  occ. eigenvalues --   -0.19103  -0.18748  -0.17854  -0.14833
  Beta virt. eigenvalues --    0.05232   0.06112   0.06653   0.07021   0.07319
  Beta virt. eigenvalues --    0.07400   0.07713   0.08123   0.08622   0.08817
  Beta virt. eigenvalues --    0.09445   0.09555   0.09660   0.10203   0.10477

 Mulliken charges and spin densities:
               1          2
     1  C    0.027165  -0.625576
     2  C   -0.453931   0.239051
     3  C   -0.077552  -0.240386
     4  C    0.000559  -0.041128
     5  C   -0.672228  -0.089683
     6  C   -0.168255  -0.008451
     7  C    0.754141  -0.341931
     8  C   -0.307967  -0.280876
     9  N    0.135429   0.007498
    10  C    0.103443  -1.085948
    11  C   -1.055380   1.720546
    12  C    0.793602  -1.398564
    13  O   -0.123620   0.021809
    14  C    0.292095   0.011935
    15  O   -0.314257   0.000791
    16  C    2.379430  -3.082895
    17  C   -1.747552   2.083731
    18  C    0.530400  -1.079917
    19  H    0.016417   0.119286
    20  H   -0.009222   0.140374
    21  H   -0.068076   0.201108
    22  H    0.134219   0.004453
    23  H    0.082728   0.055498
    24  H    0.123193   0.057655
    25  H    0.038177   0.109002
    26  H   -0.086150   0.221895
    27  H    0.028567   0.149463
    28  H   -0.024082   0.168119
    29  H    0.104915   0.064401
    30  H    0.109805   0.068417
    31  H    0.169830   0.020390
    32  H    0.272026  -0.144982
    33  H   -0.634346   0.825407
    34  H   -0.134742   0.350641
    35  H    0.376855  -0.144341
    36  H    0.153471   0.048400
    37  H   -0.164797   0.371928
    38  H   -0.034512   0.224899
    39  H   -0.265002   0.421116
    40  H   -0.287125   0.449176
    41  H   -0.712380   0.890839
    42  H   -0.004442   0.120440
    43  H   -0.280846   0.396410
 Sum of Mulliken charges =  -1.00000   1.00000

 Dipole moment (field-independent basis, Debye):
    X=              5.1367    Y=              0.1590    Z=             -2.0819  Tot=              5.5449
 Quadrupole moment (field-independent basis, Debye-Ang):
   XX=           -239.9960   YY=           -160.8472   ZZ=           -150.9232
   XY=              3.8810   XZ=              8.5846   YZ=             -2.1254

 Summary of Natural Population Analysis:

                                       Natural Population
                Natural  -----------------------------------------------
    Atom  No    Charge         Core      Valence    Rydberg      Total
 -----------------------------------------------------------------------
      C    1   -0.28689      0.99967     2.28297    0.00425     3.28689
      C    2   -0.19292      0.99964     2.18645    0.00682     3.19292
      C    3   -0.19365      0.99963     2.18464    0.00938     3.19365
      C    4   -0.19324      0.99963     2.18525    0.00836     3.19324
      C    5   -0.18948      0.99963     2.18111    0.00874     3.18948
      C    6   -0.21836      0.99961     2.20926    0.00950     3.21836
      C    7   -0.08349      0.99953     2.07443    0.00953     3.08349
      C    8    0.00211      0.99949     1.98608    0.01232     2.99789
      N    9   -0.27401      0.99963     2.76391    0.01047     3.77401
      C   10   -0.07862      0.99958     2.06857    0.01047     3.07862
      C   11   -0.12412      0.99958     2.11520    0.00934     3.12412
      C   12   -0.00730      0.99953     1.99483    0.01294     3.00730
      O   13   -0.28272      0.99986     3.27530    0.00755     4.28272
      C   14    0.46813      0.99966     1.50693    0.02529     2.53187
      O   15   -0.31609      0.99987     3.31093    0.00529     4.31609
      C   16   -0.20674      0.99959     2.19603    0.01112     3.20674
      C   17   -0.08323      0.99956     2.07220    0.01146     3.08323
      C   18   -0.18523      0.99956     2.17921    0.00647     3.18523
      H   19    0.09659      0.00000     0.40241    0.00100     0.40341
      H   20    0.09754      0.00000     0.40151    0.00095     0.40246
      H   21    0.09499      0.00000     0.40383    0.00118     0.40501
      H   22    0.09577      0.00000     0.40298    0.00124     0.40423
      H   23    0.09509      0.00000     0.40392    0.00099     0.40491
      H   24    0.09963      0.00000     0.39935    0.00101     0.40037
      H   25    0.09481      0.00000     0.40429    0.00090     0.40519
      H   26    0.09631      0.00000     0.40261    0.00108     0.40369
      H   27    0.09668      0.00000     0.40228    0.00104     0.40332
      H   28    0.09772      0.00000     0.40135    0.00093     0.40228
      H   29    0.09574      0.00000     0.40333    0.00093     0.40426
      H   30    0.10367      0.00000     0.39460    0.00172     0.39633
      H   31    0.11508      0.00000     0.38351    0.00141     0.38492
      H   32    0.09707      0.00000     0.40183    0.00111     0.40293
      H   33    0.09480      0.00000     0.40389    0.00131     0.40520
      H   34    0.09647      0.00000     0.40075    0.00278     0.40353
      H   35    0.10416      0.00000     0.39413    0.00171     0.39584
      H   36    0.10123      0.00000     0.39680    0.00196     0.39877
      H   37    0.08783      0.00000     0.41054    0.00163     0.41217
      H   38    0.09573      0.00000     0.40290    0.00137     0.40427
      H   39    0.10205      0.00000     0.39584    0.00210     0.39795
      H   40    0.10786      0.00000     0.38921    0.00293     0.39214
      H   41    0.09501      0.00000     0.40353    0.00146     0.40499
      H   42    0.09430      0.00000     0.40468    0.00103     0.40570
      H   43    0.08971      0.00000     0.40904    0.00125     0.41029
 =======================================================================
   * Total *   -0.00000     17.99323    50.79241    0.21436    69.00000

 Normal termination of Gaussian 16 at Fri Dec 11 21:06:40 2020.
