 Gaussian 16, Revision A.03,

 -----------------------------------------------------------
 # opt freq B3LYP/6-31G(d) empiricaldispersion=gd3bj scf=xqc
 -----------------------------------------------------------

 ------------------------------
 CID_101640092_JID_962_neutraal
 ------------------------------
 Symbolic Z-matrix:
 Charge =  0 Multiplicity = 1

 SCF Done:  E(RB3LYP) =  -391.939871981     A.U. after   12 cycles
 SCF Done:  E(RB3LYP) =  -391.943515177     A.U. after   10 cycles
 SCF Done:  E(RB3LYP) =  -391.943733127     A.U. after   10 cycles
 SCF Done:  E(RB3LYP) =  -391.943756715     A.U. after    9 cycles
 SCF Done:  E(RB3LYP) =  -391.943762496     A.U. after    7 cycles
 SCF Done:  E(RB3LYP) =  -391.943762903     A.U. after    7 cycles
 Optimization completed.
    -- Stationary point found.
 Normal termination of Gaussian 16 at Tue Dec  8 13:31:19 2020.

 --------------------------------------------------------------------
 #N Geom=AllCheck Guess=TCheck SCRF=Check GenChk RB3LYP/6-31G(d) Freq
 --------------------------------------------------------------------

 Structure from the checkpoint file:  "JID_962.chk"
 ------------------------------
 CID_101640092_JID_962_neutraal
 ------------------------------
 Charge =  0 Multiplicity = 1

 SCF Done:  E(RB3LYP) =  -391.943762903     A.U. after    1 cycles

  Exact polarizability: 107.725   0.265  97.828   0.732  -0.342  91.322
 Approx polarizability: 137.721  -0.398 137.831   1.541  -1.205 138.171

                      1                      2                      3
                      A                      A                      A
 Frequencies --    115.4311               154.7717               195.1555
 Red. masses --      2.6329                 2.1587                 2.2379
 Frc consts  --      0.0207                 0.0305                 0.0502
 IR Inten    --      0.0075                 0.0109                 0.0353

                      4                      5                      6
                      A                      A                      A
 Frequencies --    215.7860               259.8875               281.2747
 Red. masses --      1.1752                 1.6983                 1.1753
 Frc consts  --      0.0322                 0.0676                 0.0548
 IR Inten    --      0.0259                 0.0137                 0.0144

                      7                      8                      9
                      A                      A                      A
 Frequencies --    321.3942               344.6185               355.3754
 Red. masses --      2.3570                 1.7119                 2.2309
 Frc consts  --      0.1434                 0.1198                 0.1660
 IR Inten    --      0.0170                 0.0387                 0.0104

                     10                     11                     12
                      A                      A                      A
 Frequencies --    389.9376               426.3567               460.5816
 Red. masses --      2.9475                 2.1882                 3.2135
 Frc consts  --      0.2641                 0.2344                 0.4016
 IR Inten    --      0.0733                 0.0144                 0.0311

                     13                     14                     15
                      A                      A                      A
 Frequencies --    505.3153               577.9475               615.5332
 Red. masses --      2.0228                 2.1514                 2.8536
 Frc consts  --      0.3043                 0.4234                 0.6370
 IR Inten    --      0.1737                 1.7945                 1.0057

                     16                     17                     18
                      A                      A                      A
 Frequencies --    694.8192               777.1808               820.5847
 Red. masses --      2.7495                 1.9082                 1.6920
 Frc consts  --      0.7821                 0.6791                 0.6713
 IR Inten    --      1.0681                 0.1245                 0.4939

                     19                     20                     21
                      A                      A                      A
 Frequencies --    870.4689               881.5943               894.7532
 Red. masses --      2.3247                 2.0435                 1.7990
 Frc consts  --      1.0378                 0.9358                 0.8486
 IR Inten    --      0.4748                 0.7491                 0.8969

                     22                     23                     24
                      A                      A                      A
 Frequencies --    928.2294               936.7921               956.4675
 Red. masses --      1.5848                 1.8259                 1.5310
 Frc consts  --      0.8045                 0.9441                 0.8252
 IR Inten    --      1.0026                 0.0353                 0.4171

                     25                     26                     27
                      A                      A                      A
 Frequencies --    966.5988              1004.7366              1023.8264
 Red. masses --      1.8549                 1.6852                 1.4944
 Frc consts  --      1.0211                 1.0023                 0.9230
 IR Inten    --      2.6175                 1.1769                 0.9306

                     28                     29                     30
                      A                      A                      A
 Frequencies --   1042.9633              1059.2891              1089.0787
 Red. masses --      1.6670                 1.5726                 1.4147
 Frc consts  --      1.0684                 1.0397                 0.9886
 IR Inten    --      0.9523                 1.0832                 0.6363

                     31                     32                     33
                      A                      A                      A
 Frequencies --   1102.9889              1138.1085              1147.1758
 Red. masses --      1.8005                 2.5355                 1.6597
 Frc consts  --      1.2906                 1.9350                 1.2869
 IR Inten    --      0.1112                 2.6442                 1.6988

                     34                     35                     36
                      A                      A                      A
 Frequencies --   1166.6358              1197.2098              1213.0490
 Red. masses --      1.7128                 2.0007                 1.7449
 Frc consts  --      1.3735                 1.6895                 1.5128
 IR Inten    --      0.5547                 0.2109                 0.7158

                     37                     38                     39
                      A                      A                      A
 Frequencies --   1239.7106              1256.4128              1266.0158
 Red. masses --      1.7340                 1.5560                 1.6387
 Frc consts  --      1.5701                 1.4472                 1.5475
 IR Inten    --      1.2660                 2.1064                 1.3408

                     40                     41                     42
                      A                      A                      A
 Frequencies --   1289.5757              1306.5010              1319.8363
 Red. masses --      1.4802                 1.4452                 1.3961
 Frc consts  --      1.4503                 1.4534                 1.4328
 IR Inten    --      1.1766                 0.8483                 0.0998

                     43                     44                     45
                      A                      A                      A
 Frequencies --   1325.6489              1360.6544              1386.6218
 Red. masses --      1.5403                 1.3583                 1.4411
 Frc consts  --      1.5948                 1.4817                 1.6326
 IR Inten    --      1.3780                 1.9768                 1.1941

                     46                     47                     48
                      A                      A                      A
 Frequencies --   1398.3194              1399.9820              1406.0062
 Red. masses --      1.3431                 1.4752                 1.4657
 Frc consts  --      1.5473                 1.7035                 1.7072
 IR Inten    --      0.9703                 1.0227                 2.0812

                     49                     50                     51
                      A                      A                      A
 Frequencies --   1413.8237              1436.0981              1441.8729
 Red. masses --      1.5003                 1.3271                 1.2283
 Frc consts  --      1.7670                 1.6125                 1.5046
 IR Inten    --      0.4223                 2.8051                 4.3852

                     52                     53                     54
                      A                      A                      A
 Frequencies --   1507.5489              1518.6836              1520.1831
 Red. masses --      1.0869                 1.0789                 1.0766
 Frc consts  --      1.4554                 1.4660                 1.4659
 IR Inten    --      0.8832                 1.0127                 0.1626

                     55                     56                     57
                      A                      A                      A
 Frequencies --   1521.4382              1522.7354              1526.1305
 Red. masses --      1.0699                 1.0747                 1.0771
 Frc consts  --      1.4592                 1.4682                 1.4781
 IR Inten    --      5.4504                 1.5927                 7.0622

                     58                     59                     60
                      A                      A                      A
 Frequencies --   1534.7287              1536.0668              1537.6916
 Red. masses --      1.0901                 1.0521                 1.0598
 Frc consts  --      1.5128                 1.4626                 1.4764
 IR Inten    --      1.8820                10.2126                 1.4061

                     61                     62                     63
                      A                      A                      A
 Frequencies --   3012.9787              3021.2247              3024.7580
 Red. masses --      1.0609                 1.0700                 1.0663
 Frc consts  --      5.6746                 5.7544                 5.7480
 IR Inten    --     30.9423                11.6237                10.1940

                     64                     65                     66
                      A                      A                      A
 Frequencies --   3027.7227              3038.1553              3040.7522
 Red. masses --      1.0637                 1.0369                 1.0440
 Frc consts  --      5.7450                 5.6391                 5.6876
 IR Inten    --     24.5587                16.4345                51.7696

                     67                     68                     69
                      A                      A                      A
 Frequencies --   3043.6280              3047.9028              3050.7753
 Red. masses --      1.0828                 1.0827                 1.0902
 Frc consts  --      5.9101                 5.9259                 5.9781
 IR Inten    --     25.7655                14.8655                43.9278

                     70                     71                     72
                      A                      A                      A
 Frequencies --   3064.8673              3072.0596              3073.2936
 Red. masses --      1.0625                 1.0977                 1.0930
 Frc consts  --      5.8801                 6.1036                 6.0825
 IR Inten    --     36.0953                70.5452                60.2455

                     73                     74                     75
                      A                      A                      A
 Frequencies --   3077.7232              3097.7645              3101.6171
 Red. masses --      1.1030                 1.1016                 1.1019
 Frc consts  --      6.1556                 6.2284                 6.2457
 IR Inten    --     75.0790                31.6336                41.5072

                     76                     77                     78
                      A                      A                      A
 Frequencies --   3108.6430              3112.3946              3119.8172
 Red. masses --      1.1066                 1.1013                 1.1010
 Frc consts  --      6.3008                 6.2857                 6.3137
 IR Inten    --     37.2456                21.2012                64.4639

 - Thermochemistry -
 -------------------
 Temperature   298.150 Kelvin.  Pressure   1.00000 Atm.
 Atom     1 has atomic number  6 and mass  12.00000

 Molecular mass:   138.14085 amu.
 Principal axes and moments of inertia in atomic units:
                           1         2         3
     Eigenvalues --   904.766961615.146621840.31099
           X            0.99997   0.00762  -0.00258
           Y           -0.00766   0.99981  -0.01770
           Z            0.00245   0.01772   0.99984
 This molecule is an asymmetric top.
 Rotational symmetry number  1.
 Warning -- assumption of classical behavior for rotation
           may cause significant error
 Rotational temperatures (Kelvin)      0.09573     0.05363     0.04706
 Rotational constants (GHZ):           1.99470     1.11739     0.98067
 Zero-point vibrational energy     689290.0 (Joules/Mol)
                                  164.74425 (Kcal/Mol)
 Warning -- explicit consideration of  15 degrees of freedom as
           vibrations may cause significant error
 Vibrational temperatures:    166.08   222.68   280.79   310.47   373.92
          (Kelvin)            404.69   462.41   495.83   511.31   561.03
                              613.43   662.67   727.04   831.54   885.61
                              999.69  1118.19  1180.64  1252.41  1268.42
                             1287.35  1335.52  1347.83  1376.14  1390.72
                             1445.59  1473.06  1500.59  1524.08  1566.94
                             1586.96  1637.48  1650.53  1678.53  1722.52
                             1745.31  1783.67  1807.70  1821.51  1855.41
                             1879.76  1898.95  1907.31  1957.68  1995.04
                             2011.87  2014.26  2022.93  2034.18  2066.22
                             2074.53  2169.03  2185.05  2187.20  2189.01
                             2190.88  2195.76  2208.13  2210.06  2212.40
                             4335.00  4346.87  4351.95  4356.22  4371.23
                             4374.96  4379.10  4385.25  4389.39  4409.66
                             4420.01  4421.78  4428.16  4456.99  4462.54
                             4472.64  4478.04  4488.72

 Zero-point correction=                           0.262537 (Hartree/Particle)
 Thermal correction to Energy=                    0.272335
 Thermal correction to Enthalpy=                  0.273279
 Thermal correction to Gibbs Free Energy=         0.228707
 Sum of electronic and zero-point Energies=           -391.681226
 Sum of electronic and thermal Energies=              -391.671428
 Sum of electronic and thermal Enthalpies=            -391.670484
 Sum of electronic and thermal Free Energies=         -391.715056

                     E (Thermal)             CV                S
                      KCal/Mol        Cal/Mol-Kelvin    Cal/Mol-Kelvin
 Total                  170.893             40.337             93.809
 Electronic               0.000              0.000              0.000
 Translational            0.889              2.981             40.681
 Rotational               0.889              2.981             29.377
 Vibrational            169.115             34.376             23.752
 Vibration     1          0.608              1.937              3.175
 Vibration     2          0.620              1.897              2.613
 Vibration     3          0.636              1.847              2.178
 Vibration     4          0.645              1.817              1.994
 Vibration     5          0.668              1.746              1.663
 Vibration     6          0.681              1.708              1.526
 Vibration     7          0.707              1.633              1.303
 Vibration     8          0.723              1.586              1.191
 Vibration     9          0.731              1.564              1.142
 Vibration    10          0.758              1.492              1.000
 Vibration    11          0.788              1.413              0.871
 Vibration    12          0.818              1.337              0.764
 Vibration    13          0.861              1.238              0.645
 Vibration    14          0.934              1.079              0.489
 Vibration    15          0.975              0.999              0.424

 Optimization completed.
    -- Stationary point found.
 Normal termination of Gaussian 16 at Tue Dec  8 13:39:44 2020.

 ----------------------------------------------------------------------
 # B3LYP/6-311++G(d,p) empiricaldispersion=gd3bj scf=xqc pop=npa geom=c
 heck
 ----------------------------------------------------------------------

 --------------------------------------
 CID_101640092_JID_962_Energie_neutraal
 --------------------------------------
 Structure from the checkpoint file:  "JID_962.chk"
 Charge =  0 Multiplicity = 1

 SCF Done:  E(RB3LYP) =  -392.047014011     A.U. after   12 cycles
 Normal termination of Gaussian 16 at Tue Dec  8 13:46:24 2020.

 ----------------------------------------------------------------------
 # B3LYP/6-311++G(d,p) empiricaldispersion=gd3bj scf=xqc pop=npa geom=c
 heck
 ----------------------------------------------------------------------

 ------------------------------------
 CID_101640092_JID_962_Energie_kation
 ------------------------------------
 Structure from the checkpoint file:  "JID_962.chk"
 Charge =  1 Multiplicity = 2

 SCF Done:  E(UB3LYP) =  -391.706211465     A.U. after   25 cycles
 Normal termination of Gaussian 16 at Tue Dec  8 13:53:14 2020.
 Gaussian 16:  ES64L-G16RevA.03 25-Dec-2016

 ----------------------------------------------------------------------
 # B3LYP/6-311++G(d,p) empiricaldispersion=gd3bj scf=xqc pop=npa geom=c
 heck
 ----------------------------------------------------------------------

 -----------------------------------
 CID_101640092_JID_962_Energie_anion
 -----------------------------------
 Structure from the checkpoint file:  "JID_962.chk"
 Charge = -1 Multiplicity = 2

                         Standard orientation:
 ---------------------------------------------------------------------
 Center     Atomic      Atomic             Coordinates (Angstroms)
 Number     Number       Type             X           Y           Z
 ---------------------------------------------------------------------
      1          6           0       -2.621993   -0.191572   -1.052748
      2          6           0       -1.216918    0.287294   -0.719684
      3          6           0       -1.017851    1.610192    0.065289
      4          6           0        0.217278    0.968683    0.756435
      5          6           0       -0.366247   -0.439021    0.377854
      6          6           0        0.617723   -1.524836   -0.079116
      7          6           0        1.843040   -0.993578   -0.832157
      8          6           0        2.505398    0.145617   -0.049818
      9          6           0        1.540554    1.330337    0.058204
     10          6           0       -1.233591   -0.988678    1.514532
     11          1           0       -3.093758    0.471197   -1.788441
     12          1           0       -3.264755   -0.211143   -0.166036
     13          1           0       -2.608793   -1.202598   -1.479098
     14          1           0       -0.628682    0.329825   -1.645053
     15          1           0       -0.842514    2.523219   -0.513926
     16          1           0       -1.842536    1.795411    0.761313
     17          1           0        0.307763    1.135791    1.836801
     18          1           0        0.977763   -2.065184    0.808734
     19          1           0        0.079315   -2.265417   -0.687796
     20          1           0        2.551528   -1.813565   -1.002096
     21          1           0        1.553317   -0.622505   -1.825653
     22          1           0        2.783060   -0.210940    0.953156
     23          1           0        3.433739    0.461838   -0.541530
     24          1           0        2.009351    2.173249    0.581057
     25          1           0        1.332764    1.684755   -0.961235
     26          1           0       -0.602804   -1.267072    2.367393
     27          1           0       -1.967737   -0.258770    1.871740
     28          1           0       -1.781378   -1.884713    1.197923
 ---------------------------------------------------------------------

 SCF Done:  E(UB3LYP) =  -392.026753213     A.U. after   28 cycles

 The electronic state is 2-A.
 Alpha  occ. eigenvalues --  -10.06652 -10.06072 -10.05908 -10.05382 -10.05349
 Alpha  occ. eigenvalues --  -10.05323 -10.05307 -10.05150 -10.04926 -10.04853
 Alpha  occ. eigenvalues --   -0.75840  -0.68517  -0.64707  -0.62106  -0.58677
 Alpha  occ. eigenvalues --   -0.54362  -0.50466  -0.48262  -0.46197  -0.39536
 Alpha  occ. eigenvalues --   -0.37222  -0.35164  -0.34291  -0.33458  -0.32693
 Alpha  occ. eigenvalues --   -0.30319  -0.29881  -0.27846  -0.27531  -0.26641
 Alpha  occ. eigenvalues --   -0.25429  -0.24422  -0.23416  -0.23227  -0.22284
 Alpha  occ. eigenvalues --   -0.19893  -0.18656  -0.17362  -0.16715   0.04983
 Alpha virt. eigenvalues --    0.07044   0.07613   0.07726   0.09537   0.09559
 Alpha virt. eigenvalues --    0.09758   0.09974   0.10535   0.12150   0.12348
 Alpha virt. eigenvalues --    0.12711   0.13046   0.13669   0.13832   0.14176

  Beta  occ. eigenvalues --  -10.06651 -10.06063 -10.05897 -10.05366 -10.05331
  Beta  occ. eigenvalues --  -10.05304 -10.05290 -10.05132 -10.04894 -10.04827
  Beta  occ. eigenvalues --   -0.75820  -0.68482  -0.64676  -0.62066  -0.58630
  Beta  occ. eigenvalues --   -0.54311  -0.50413  -0.48206  -0.46132  -0.39491
  Beta  occ. eigenvalues --   -0.37177  -0.35124  -0.34235  -0.33424  -0.32667
  Beta  occ. eigenvalues --   -0.30281  -0.29849  -0.27816  -0.27498  -0.26598
  Beta  occ. eigenvalues --   -0.25398  -0.24380  -0.23379  -0.23188  -0.22244
  Beta  occ. eigenvalues --   -0.19859  -0.18621  -0.17326  -0.16690
  Beta virt. eigenvalues --    0.07217   0.07997   0.08317   0.08471   0.10104
  Beta virt. eigenvalues --    0.10270   0.10367   0.10546   0.10977   0.12698
  Beta virt. eigenvalues --    0.12944   0.13176   0.13497   0.14059   0.14214

 Mulliken charges and spin densities:
               1          2
     1  C    2.373259  -3.131164
     2  C   -2.176607   2.294597
     3  C    0.762242  -1.500318
     4  C   -0.851738   1.244546
     5  C   -0.138695   0.655236
     6  C    1.004276  -1.523620
     7  C   -0.387592   0.132913
     8  C    0.797821  -1.251452
     9  C   -0.170771  -0.280981
    10  C    0.961224  -1.525847
    11  H   -0.230850   0.370570
    12  H   -0.196548   0.342772
    13  H   -0.246962   0.390221
    14  H   -0.093770   0.276525
    15  H   -0.026742   0.165112
    16  H   -0.241123   0.381502
    17  H   -0.418372   0.654692
    18  H   -0.156189   0.293026
    19  H    0.132488   0.024885
    20  H   -0.466582   0.638447
    21  H    0.041099   0.071455
    22  H    0.007332   0.102447
    23  H   -0.507830   0.677823
    24  H   -0.224704   0.388948
    25  H   -0.189110   0.333933
    26  H   -0.134090   0.271886
    27  H   -0.033372   0.169795
    28  H   -0.188096   0.332049
 Sum of Mulliken charges =  -1.00000   1.00000

 Dipole moment (field-independent basis, Debye):
    X=             -0.4949    Y=              0.3258    Z=              0.1496  Tot=              0.6111
 Quadrupole moment (field-independent basis, Debye-Ang):
   XX=           -127.0666   YY=           -106.0617   ZZ=           -103.2095
   XY=             -1.8218   XZ=             -0.3860   YZ=             -1.1599

 Summary of Natural Population Analysis:

                                       Natural Population
                Natural  -----------------------------------------------
    Atom  No    Charge         Core      Valence    Rydberg      Total
 -----------------------------------------------------------------------
      C    1   -0.28729      0.99964     2.28173    0.00591     3.28729
      C    2   -0.10583      0.99956     2.09558    0.01069     3.10583
      C    3   -0.18433      0.99961     2.17602    0.00870     3.18433
      C    4   -0.10118      0.99956     2.09022    0.01140     3.10118
      C    5   -0.02885      0.99954     2.01431    0.01500     3.02885
      C    6   -0.18964      0.99957     2.17994    0.01013     3.18964
      C    7   -0.18738      0.99963     2.17956    0.00819     3.18738
      C    8   -0.18752      0.99963     2.17982    0.00807     3.18752
      C    9   -0.18896      0.99961     2.17962    0.00972     3.18896
      C   10   -0.28621      0.99962     2.27907    0.00751     3.28621
      H   11    0.09969      0.00000     0.39932    0.00099     0.40031
      H   12    0.09756      0.00000     0.40119    0.00124     0.40244
      H   13    0.10023      0.00000     0.39855    0.00122     0.39977
      H   14    0.09608      0.00000     0.40175    0.00217     0.40392
      H   15    0.09493      0.00000     0.40409    0.00098     0.40507
      H   16    0.09633      0.00000     0.40232    0.00135     0.40367
      H   17    0.09498      0.00000     0.40359    0.00143     0.40502
      H   18    0.09510      0.00000     0.40347    0.00143     0.40490
      H   19    0.10024      0.00000     0.39861    0.00116     0.39976
      H   20    0.09853      0.00000     0.40024    0.00122     0.40147
      H   21    0.09152      0.00000     0.40682    0.00166     0.40848
      H   22    0.09186      0.00000     0.40662    0.00152     0.40814
      H   23    0.09861      0.00000     0.39991    0.00148     0.40139
      H   24    0.09997      0.00000     0.39889    0.00114     0.40003
      H   25    0.09152      0.00000     0.40648    0.00200     0.40848
      H   26    0.10016      0.00000     0.39862    0.00122     0.39984
      H   27    0.09936      0.00000     0.39939    0.00125     0.40064
      H   28    0.10050      0.00000     0.39843    0.00106     0.39950
 =======================================================================
   * Total *    0.00000      9.99597    28.88417    0.11985    39.00000

 Normal termination of Gaussian 16 at Tue Dec  8 14:00:21 2020.
