 Gaussian 16, Revision A.03,

 -----------------------------------------------------------
 # opt freq B3LYP/6-31G(d) empiricaldispersion=gd3bj scf=xqc
 -----------------------------------------------------------

 -------------------------------
 CID_108106304_JID_6343_neutraal
 -------------------------------
 Symbolic Z-matrix:
 Charge =  0 Multiplicity = 1

 SCF Done:  E(RB3LYP) =  -794.856365165     A.U. after   15 cycles
 SCF Done:  E(RB3LYP) =  -794.864004777     A.U. after   13 cycles
 SCF Done:  E(RB3LYP) =  -794.864697823     A.U. after   13 cycles
 SCF Done:  E(RB3LYP) =  -794.865147453     A.U. after   13 cycles
 SCF Done:  E(RB3LYP) =  -794.865788972     A.U. after   13 cycles
 SCF Done:  E(RB3LYP) =  -794.866328776     A.U. after   13 cycles
 SCF Done:  E(RB3LYP) =  -794.866005342     A.U. after   13 cycles
 SCF Done:  E(RB3LYP) =  -794.866895453     A.U. after   13 cycles
 SCF Done:  E(RB3LYP) =  -794.867860564     A.U. after   13 cycles
 SCF Done:  E(RB3LYP) =  -794.867920628     A.U. after   13 cycles
 SCF Done:  E(RB3LYP) =  -794.869078562     A.U. after   10 cycles
 SCF Done:  E(RB3LYP) =  -794.869088936     A.U. after    9 cycles
 SCF Done:  E(RB3LYP) =  -794.869108388     A.U. after   10 cycles
 SCF Done:  E(RB3LYP) =  -794.869112529     A.U. after    9 cycles
 SCF Done:  E(RB3LYP) =  -794.869113453     A.U. after    8 cycles
 SCF Done:  E(RB3LYP) =  -794.869114075     A.U. after    8 cycles
 Optimization completed.
    -- Stationary point found.
 Normal termination of Gaussian 16 at Thu Dec 10 22:26:05 2020.

 --------------------------------------------------------------------
 #N Geom=AllCheck Guess=TCheck SCRF=Check GenChk RB3LYP/6-31G(d) Freq
 --------------------------------------------------------------------

 Structure from the checkpoint file:  "JID_6343.chk"
 -------------------------------
 CID_108106304_JID_6343_neutraal
 -------------------------------
 Charge =  0 Multiplicity = 1

 SCF Done:  E(RB3LYP) =  -794.869114075     A.U. after    1 cycles

  Exact polarizability: 155.974  -7.674 139.165  -7.300 -14.754  83.040
 Approx polarizability: 238.258 -30.087 237.718 -16.087 -29.814 139.339

                      1                      2                      3
                      A                      A                      A
 Frequencies --     52.9984                63.8030                81.2993
 Red. masses --      6.1358                 6.2629                 4.5005
 Frc consts  --      0.0102                 0.0150                 0.0175
 IR Inten    --      8.4336                 1.4256                 2.9098

                      4                      5                      6
                      A                      A                      A
 Frequencies --    107.3712               110.0957               120.8019
 Red. masses --      4.9490                 2.7596                 1.3645
 Frc consts  --      0.0336                 0.0197                 0.0117
 IR Inten    --      1.7950                 2.0534                 0.5825

                      7                      8                      9
                      A                      A                      A
 Frequencies --    130.0899               188.3123               209.6793
 Red. masses --      4.8860                 5.7623                 5.4645
 Frc consts  --      0.0487                 0.1204                 0.1416
 IR Inten    --      4.0223                 1.0397                 2.4995

                     10                     11                     12
                      A                      A                      A
 Frequencies --    261.5694               289.7987               296.6448
 Red. masses --      5.5489                 4.9993                 4.5077
 Frc consts  --      0.2237                 0.2474                 0.2337
 IR Inten    --      5.0680                24.4861                17.7499

                     13                     14                     15
                      A                      A                      A
 Frequencies --    324.4466               351.3422               370.9578
 Red. masses --      4.7439                 4.2428                 5.1895
 Frc consts  --      0.2942                 0.3086                 0.4208
 IR Inten    --      3.5877                 0.7962                 2.6440

                     16                     17                     18
                      A                      A                      A
 Frequencies --    402.5787               429.7559               465.5363
 Red. masses --      4.7519                 2.1583                 3.7441
 Frc consts  --      0.4538                 0.2349                 0.4781
 IR Inten    --     21.4545                16.2796                 6.1062

                     19                     20                     21
                      A                      A                      A
 Frequencies --    471.4965               489.1508               521.5207
 Red. masses --      1.1921                 2.9591                 1.2510
 Frc consts  --      0.1561                 0.4172                 0.2005
 IR Inten    --     74.8447                21.0859               193.7835

                     22                     23                     24
                      A                      A                      A
 Frequencies --    563.6853               577.1615               631.6586
 Red. masses --      7.7508                 2.5630                 2.9251
 Frc consts  --      1.4510                 0.5030                 0.6876
 IR Inten    --     15.4470                88.5203                18.0716

                     25                     26                     27
                      A                      A                      A
 Frequencies --    660.0807               689.2229               707.1958
 Red. masses --      4.4277                 3.2354                 1.7862
 Frc consts  --      1.1366                 0.9055                 0.5263
 IR Inten    --     10.0645                50.3012                85.9377

                     28                     29                     30
                      A                      A                      A
 Frequencies --    728.5738               758.1531               762.1732
 Red. masses --      2.2132                 2.1151                 3.3524
 Frc consts  --      0.6922                 0.7163                 1.1474
 IR Inten    --    145.4685                 5.1927                67.8048

                     31                     32                     33
                      A                      A                      A
 Frequencies --    772.9960               804.5037               889.4459
 Red. masses --      4.6446                 2.4800                 5.3776
 Frc consts  --      1.6351                 0.9457                 2.5066
 IR Inten    --     43.6202                11.7348                11.3372

                     34                     35                     36
                      A                      A                      A
 Frequencies --    917.9294               929.8489               939.2412
 Red. masses --      3.8062                 1.2401                 3.2272
 Frc consts  --      1.8896                 0.6318                 1.6774
 IR Inten    --      0.2113                 0.3569                14.6256

                     37                     38                     39
                      A                      A                      A
 Frequencies --    944.3224               976.4076              1000.2388
 Red. masses --      1.3419                 3.7056                 2.6309
 Frc consts  --      0.7051                 2.0814                 1.5508
 IR Inten    --     16.2121                 3.0357                43.3076

                     40                     41                     42
                      A                      A                      A
 Frequencies --   1019.1582              1081.1590              1128.0019
 Red. masses --      4.6190                 2.1253                 1.5931
 Frc consts  --      2.8267                 1.4637                 1.1943
 IR Inten    --     10.1717                55.5999                18.1483

                     43                     44                     45
                      A                      A                      A
 Frequencies --   1145.7374              1156.9759              1180.6841
 Red. masses --      1.6571                 1.4031                 2.1393
 Frc consts  --      1.2816                 1.1066                 1.7571
 IR Inten    --     33.2825                10.1228                 4.7807

                     46                     47                     48
                      A                      A                      A
 Frequencies --   1231.5481              1256.1037              1273.3810
 Red. masses --      1.2173                 2.2629                 2.4765
 Frc consts  --      1.0878                 2.1037                 2.3660
 IR Inten    --     21.1733                62.1447                21.1064

                     49                     50                     51
                      A                      A                      A
 Frequencies --   1283.1655              1350.9241              1368.9505
 Red. masses --      1.8227                 1.8654                 1.4554
 Frc consts  --      1.7682                 2.0058                 1.6070
 IR Inten    --     14.8555                 6.3722                27.2139

                     52                     53                     54
                      A                      A                      A
 Frequencies --   1398.9444              1432.2614              1452.4572
 Red. masses --      2.6527                 1.8810                 2.1524
 Frc consts  --      3.0587                 2.2734                 2.6754
 IR Inten    --     64.6007               121.1557                11.4986

                     55                     56                     57
                      A                      A                      A
 Frequencies --   1470.3896              1472.8150              1512.6860
 Red. masses --      1.3416                 1.3036                 1.3735
 Frc consts  --      1.7089                 1.6660                 1.8517
 IR Inten    --     50.7842                35.2221                 5.1001

                     58                     59                     60
                      A                      A                      A
 Frequencies --   1517.4062              1521.4704              1544.1995
 Red. masses --      1.2496                 1.4415                 1.1152
 Frc consts  --      1.6953                 1.9660                 1.5668
 IR Inten    --     25.8553                15.6149                25.0804

                     61                     62                     63
                      A                      A                      A
 Frequencies --   1586.5025              1635.2761              1679.5762
 Red. masses --      6.2213                 1.2411                 5.0785
 Frc consts  --      9.2259                 1.9554                 8.4409
 IR Inten    --     37.2142                60.9165                69.3766

                     64                     65                     66
                      A                      A                      A
 Frequencies --   1738.4303              1757.0149              1759.6347
 Red. masses --      5.1364                10.5487                 7.4827
 Frc consts  --      9.1459                19.1866                13.6506
 IR Inten    --    112.1470               175.9174               570.4954

                     67                     68                     69
                      A                      A                      A
 Frequencies --   3041.9571              3081.2157              3114.2286
 Red. masses --      1.0457                 1.0637                 1.0944
 Frc consts  --      5.7011                 5.9500                 6.2533
 IR Inten    --     43.6109                20.0570                19.0447

                     70                     71                     72
                      A                      A                      A
 Frequencies --   3141.3529              3186.8176              3232.1716
 Red. masses --      1.1026                 1.0998                 1.0901
 Frc consts  --      6.4109                 6.5806                 6.7095
 IR Inten    --      6.9588                 2.8866                 2.5143

                     73                     74                     75
                      A                      A                      A
 Frequencies --   3254.0524              3256.6419              3532.6845
 Red. masses --      1.0962                 1.0922                 1.0462
 Frc consts  --      6.8389                 6.8250                 7.6925
 IR Inten    --      4.0295                 1.1277                22.5428

                     76                     77                     78
                      A                      A                      A
 Frequencies --   3585.3491              3598.1907              3645.6390
 Red. masses --      1.0678                 1.0777                 1.0986
 Frc consts  --      8.0872                 8.2209                 8.6026
 IR Inten    --    210.0626                55.9254                27.5454

 - Thermochemistry -
 -------------------
 Temperature   298.150 Kelvin.  Pressure   1.00000 Atm.
 Atom     1 has atomic number  6 and mass  12.00000

 Molecular mass:   224.09094 amu.
 Principal axes and moments of inertia in atomic units:
                           1         2         3
     Eigenvalues --  2718.573663306.036805404.08508
           X            0.99846   0.05522  -0.00434
           Y           -0.05529   0.99829  -0.01879
           Z            0.00330   0.01901   0.99981
 This molecule is an asymmetric top.
 Rotational symmetry number  1.
 Warning -- assumption of classical behavior for rotation
           may cause significant error
 Rotational temperatures (Kelvin)      0.03186     0.02620     0.01603
 Rotational constants (GHZ):           0.66386     0.54589     0.33396
 Zero-point vibrational energy     583880.8 (Joules/Mol)
                                  139.55085 (Kcal/Mol)
 Warning -- explicit consideration of  23 degrees of freedom as
           vibrations may cause significant error
 Vibrational temperatures:     76.25    91.80   116.97   154.48   158.40
          (Kelvin)            173.81   187.17   270.94   301.68   376.34
                              416.96   426.81   466.81   505.50   533.73
                              579.22   618.32   669.80   678.38   703.78
                              750.35   811.02   830.41   908.82   949.71
                              991.64  1017.50  1048.26  1090.81  1096.60
                             1112.17  1157.50  1279.71  1320.70  1337.85
                             1351.36  1358.67  1404.83  1439.12  1466.34
                             1555.55  1622.94  1648.46  1664.63  1698.74
                             1771.92  1807.25  1832.11  1846.19  1943.68
                             1969.61  2012.77  2060.70  2089.76  2115.56
                             2119.05  2176.42  2183.21  2189.06  2221.76
                             2282.62  2352.80  2416.54  2501.21  2527.95
                             2531.72  4376.70  4433.18  4480.68  4519.71
                             4585.12  4650.37  4681.86  4685.58  5082.75
                             5158.52  5176.99  5245.26

 Zero-point correction=                           0.222388 (Hartree/Particle)
 Thermal correction to Energy=                    0.237405
 Thermal correction to Enthalpy=                  0.238349
 Thermal correction to Gibbs Free Energy=         0.180415
 Sum of electronic and zero-point Energies=           -794.646726
 Sum of electronic and thermal Energies=              -794.631709
 Sum of electronic and thermal Enthalpies=            -794.630765
 Sum of electronic and thermal Free Energies=         -794.688699

                     E (Thermal)             CV                S
                      KCal/Mol        Cal/Mol-Kelvin    Cal/Mol-Kelvin
 Total                  148.974             57.016            121.933
 Electronic               0.000              0.000              0.000
 Translational            0.889              2.981             42.123
 Rotational               0.889              2.981             32.252
 Vibrational            147.196             51.054             47.558
 Vibration     1          0.596              1.976              4.702
 Vibration     2          0.597              1.972              4.336
 Vibration     3          0.600              1.962              3.859
 Vibration     4          0.606              1.943              3.316
 Vibration     5          0.606              1.941              3.267
 Vibration     6          0.609              1.932              3.088
 Vibration     7          0.612              1.923              2.945
 Vibration     8          0.633              1.856              2.244
 Vibration     9          0.642              1.826              2.046
 Vibration    10          0.669              1.743              1.651
 Vibration    11          0.686              1.693              1.475
 Vibration    12          0.690              1.680              1.436
 Vibration    13          0.709              1.627              1.288
 Vibration    14          0.728              1.573              1.160
 Vibration    15          0.743              1.532              1.076
 Vibration    16          0.768              1.465              0.953
 Vibration    17          0.791              1.405              0.859
 Vibration    18          0.823              1.327              0.750
 Vibration    19          0.828              1.313              0.733
 Vibration    20          0.845              1.274              0.686
 Vibration    21          0.876              1.202              0.606
 Vibration    22          0.919              1.110              0.517
 Vibration    23          0.934              1.081              0.491

 Optimization completed.
    -- Stationary point found.
 Normal termination of Gaussian 16 at Thu Dec 10 22:36:46 2020.

 ----------------------------------------------------------------------
 # B3LYP/6-311++G(d,p) empiricaldispersion=gd3bj scf=xqc pop=npa geom=c
 heck
 ----------------------------------------------------------------------

 ---------------------------------------
 CID_108106304_JID_6343_Energie_neutraal
 ---------------------------------------
 Structure from the checkpoint file:  "JID_6343.chk"
 Charge =  0 Multiplicity = 1

 SCF Done:  E(RB3LYP) =  -795.113964404     A.U. after   16 cycles
 Normal termination of Gaussian 16 at Thu Dec 10 22:41:38 2020.

 ----------------------------------------------------------------------
 # B3LYP/6-311++G(d,p) empiricaldispersion=gd3bj scf=xqc pop=npa geom=c
 heck
 ----------------------------------------------------------------------

 -------------------------------------
 CID_108106304_JID_6343_Energie_kation
 -------------------------------------
 Structure from the checkpoint file:  "JID_6343.chk"
 Charge =  1 Multiplicity = 2

 SCF Done:  E(UB3LYP) =  -794.818668139     A.U. after   26 cycles
 Normal termination of Gaussian 16 at Thu Dec 10 22:53:06 2020.
 Gaussian 16:  ES64L-G16RevA.03 25-Dec-2016

 ----------------------------------------------------------------------
 # B3LYP/6-311++G(d,p) empiricaldispersion=gd3bj scf=xqc pop=npa geom=c
 heck
 ----------------------------------------------------------------------

 ------------------------------------
 CID_108106304_JID_6343_Energie_anion
 ------------------------------------
 Structure from the checkpoint file:  "JID_6343.chk"
 Charge = -1 Multiplicity = 2

                         Standard orientation:
 ---------------------------------------------------------------------
 Center     Atomic      Atomic             Coordinates (Angstroms)
 Number     Number       Type             X           Y           Z
 ---------------------------------------------------------------------
      1          6           0        3.492524   -0.642326   -0.012959
      2          7           0        2.046851   -0.459795    0.107855
      3          6           0        1.580130    0.535049    1.096378
      4          6           0        0.925093    1.731846    0.452394
      5          7           0       -0.257030    2.028321    0.870091
      6          8           0       -0.810193    3.069030    0.063470
      7          7           0        1.597521    2.371011   -0.562899
      8          6           0        1.251428   -1.495373   -0.340160
      9          8           0        1.711853   -2.519033   -0.831931
     10          6           0       -0.235787   -1.305425   -0.203359
     11          6           0       -0.863091   -0.220463   -0.748516
     12          6           0       -2.254058    0.068819   -0.479049
     13          8           0       -2.847954    1.117960   -0.751837
     14          7           0       -2.915966   -0.960972    0.198597
     15          6           0       -2.317655   -2.092720    0.682365
     16          6           0       -0.983396   -2.296198    0.505385
     17          1           0        3.976391    0.336505   -0.075283
     18          1           0        3.702489   -1.218708   -0.913140
     19          1           0        3.904825   -1.185615    0.847863
     20          1           0        0.857129    0.095017    1.786147
     21          1           0        2.457111    0.837582    1.677259
     22          1           0       -1.702201    2.703764   -0.117513
     23          1           0        2.197507    1.778836   -1.123741
     24          1           0        0.986878    2.982580   -1.096182
     25          1           0       -0.327905    0.522304   -1.323216
     26          1           0       -3.890861   -0.771909    0.400734
     27          1           0       -2.964467   -2.786971    1.206048
     28          1           0       -0.497295   -3.186255    0.883032
 ---------------------------------------------------------------------

 SCF Done:  E(UB3LYP) =  -795.126436420     A.U. after   32 cycles

 The electronic state is 2-A.
 Alpha  occ. eigenvalues --  -19.02006 -18.94730 -18.93309 -14.21889 -14.21755
 Alpha  occ. eigenvalues --  -14.21689 -14.20326 -10.12337 -10.12002 -10.11226
 Alpha  occ. eigenvalues --  -10.10355 -10.09344 -10.06088 -10.02606 -10.01982
 Alpha  occ. eigenvalues --   -9.99844  -0.94101  -0.90256  -0.88439  -0.82936
 Alpha  occ. eigenvalues --   -0.80086  -0.80021  -0.71134  -0.66629  -0.61913
 Alpha  occ. eigenvalues --   -0.60287  -0.58214  -0.50797  -0.48623  -0.46496
 Alpha  occ. eigenvalues --   -0.43454  -0.42476  -0.40738  -0.39629  -0.37690
 Alpha  occ. eigenvalues --   -0.35826  -0.35628  -0.34028  -0.32526  -0.31372
 Alpha  occ. eigenvalues --   -0.30303  -0.29661  -0.29355  -0.28580  -0.28206
 Alpha  occ. eigenvalues --   -0.27579  -0.26806  -0.24931  -0.24460  -0.21894
 Alpha  occ. eigenvalues --   -0.20506  -0.19696  -0.16260  -0.14761  -0.13304
 Alpha  occ. eigenvalues --   -0.12698  -0.11506  -0.10697  -0.07471   0.04805
 Alpha virt. eigenvalues --    0.07370   0.08832   0.09188   0.10074   0.11089
 Alpha virt. eigenvalues --    0.11665   0.12512   0.13054   0.13464   0.13562
 Alpha virt. eigenvalues --    0.13631   0.14325   0.14720   0.15587   0.15974

  Beta  occ. eigenvalues --  -19.02006 -18.94531 -18.93251 -14.21853 -14.21750
  Beta  occ. eigenvalues --  -14.21691 -14.20008 -10.12212 -10.11986 -10.11193
  Beta  occ. eigenvalues --  -10.10340 -10.09343 -10.05760 -10.02730 -10.01644
  Beta  occ. eigenvalues --   -9.99518  -0.94098  -0.89917  -0.88228  -0.82866
  Beta  occ. eigenvalues --   -0.79973  -0.79513  -0.71117  -0.66008  -0.61871
  Beta  occ. eigenvalues --   -0.59824  -0.57918  -0.50014  -0.48414  -0.46433
  Beta  occ. eigenvalues --   -0.43367  -0.42423  -0.40494  -0.39469  -0.37569
  Beta  occ. eigenvalues --   -0.35564  -0.35371  -0.33874  -0.32459  -0.31119
  Beta  occ. eigenvalues --   -0.30157  -0.29618  -0.29189  -0.28140  -0.27626
  Beta  occ. eigenvalues --   -0.27382  -0.26627  -0.24313  -0.24148  -0.21617
  Beta  occ. eigenvalues --   -0.20434  -0.18810  -0.15486  -0.14072  -0.12860
  Beta  occ. eigenvalues --   -0.12375  -0.11124  -0.10309  -0.05978
  Beta virt. eigenvalues --    0.07298   0.08779   0.09171   0.09985   0.10797
  Beta virt. eigenvalues --    0.11394   0.11655   0.12497   0.13045   0.13481
  Beta virt. eigenvalues --    0.13532   0.13661   0.14647   0.14872   0.15612

 Mulliken charges and spin densities:
               1          2
     1  C   -0.249337  -0.092588
     2  N    0.056153   0.005232
     3  C   -0.560127  -0.129897
     4  C   -0.062686  -0.004499
     5  N   -0.108644   0.007293
     6  O   -0.219324  -0.000027
     7  N   -0.273571  -0.002109
     8  C   -0.934233  -0.020740
     9  O   -0.355874   0.069026
    10  C    0.501205   0.314184
    11  C    0.279324   0.482610
    12  C   -0.288431  -0.083477
    13  O   -0.491550   0.022293
    14  N   -0.232620   0.113179
    15  C   -0.195290   0.182297
    16  C    0.016656  -0.119655
    17  H    0.110270   0.003653
    18  H    0.159096   0.007535
    19  H    0.090258   0.066720
    20  H    0.207817   0.039798
    21  H    0.062461   0.094843
    22  H    0.296494   0.003680
    23  H    0.237191   0.011956
    24  H    0.262546   0.009623
    25  H    0.174491   0.010780
    26  H    0.280580  -0.006909
    27  H    0.104140  -0.020044
    28  H    0.133006   0.035242
 Sum of Mulliken charges =  -1.00000   1.00000

 Dipole moment (field-independent basis, Debye):
    X=              3.3819    Y=              0.9949    Z=              1.7131  Tot=              3.9195
 Quadrupole moment (field-independent basis, Debye-Ang):
   XX=           -113.2220   YY=           -131.6362   ZZ=           -105.0640
   XY=             13.4403   XZ=             -5.1689   YZ=             -9.7371

 Summary of Natural Population Analysis:

                                       Natural Population
                Natural  -----------------------------------------------
    Atom  No    Charge         Core      Valence    Rydberg      Total
 -----------------------------------------------------------------------
      C    1   -0.17776      0.99965     2.17111    0.00700     3.17776
      N    2   -0.26803      0.99965     2.75798    0.01040     3.76803
      C    3   -0.10082      0.99955     2.09112    0.01014     3.10082
      C    4    0.19818      0.99963     1.78391    0.01829     2.80182
      N    5   -0.11506      0.99960     2.60183    0.01363     3.61506
      O    6   -0.32318      0.99990     3.31580    0.00749     4.32318
      N    7   -0.41229      0.99969     2.90398    0.00862     3.91229
      C    8    0.36602      0.99959     1.61030    0.02408     2.63398
      O    9   -0.30950      0.99988     3.30414    0.00548     4.30950
      C   10    0.00814      0.99945     1.98157    0.01083     2.99186
      C   11   -0.08566      0.99947     2.07541    0.01078     3.08566
      C   12    0.32048      0.99961     1.65733    0.02258     2.67952
      O   13   -0.37129      0.99987     3.36461    0.00682     4.37129
      N   14   -0.24526      0.99966     2.73757    0.00802     3.74526
      C   15    0.07608      0.99959     1.91327    0.01106     2.92392
      C   16   -0.16716      0.99953     2.15771    0.00993     3.16716
      H   17    0.08636      0.00000     0.41247    0.00117     0.41364
      H   18    0.11016      0.00000     0.38856    0.00128     0.38984
      H   19    0.08698      0.00000     0.41103    0.00199     0.41302
      H   20    0.11852      0.00000     0.37912    0.00236     0.38148
      H   21    0.09816      0.00000     0.40039    0.00144     0.40184
      H   22    0.25331      0.00000     0.24288    0.00381     0.24669
      H   23    0.18835      0.00000     0.30969    0.00196     0.31165
      H   24    0.19977      0.00000     0.29825    0.00198     0.30023
      H   25    0.09187      0.00000     0.40478    0.00335     0.40813
      H   26    0.18653      0.00000     0.31128    0.00218     0.31347
      H   27    0.08357      0.00000     0.41534    0.00108     0.41643
      H   28    0.10352      0.00000     0.39535    0.00113     0.39648
 =======================================================================
   * Total *   -0.00000     15.99431    42.79680    0.20889    59.00000

 Normal termination of Gaussian 16 at Thu Dec 10 23:06:44 2020.
