 Gaussian 16, Revision A.03,

 -----------------------------------------------------------
 # opt freq B3LYP/6-31G(d) empiricaldispersion=gd3bj scf=xqc
 -----------------------------------------------------------

 ------------------------------
 CID_62878781_JID_9743_neutraal
 ------------------------------
 Symbolic Z-matrix:
 Charge =  0 Multiplicity = 1

 SCF Done:  E(RB3LYP) =  -806.533034108     A.U. after   16 cycles
 SCF Done:  E(RB3LYP) =  -806.554642193     A.U. after   14 cycles
 SCF Done:  E(RB3LYP) =  -806.526228257     A.U. after   15 cycles
 SCF Done:  E(RB3LYP) =  -806.552831184     A.U. after   14 cycles
 SCF Done:  E(RB3LYP) =  -806.559158600     A.U. after   11 cycles
 SCF Done:  E(RB3LYP) =  -806.549109453     A.U. after   14 cycles
 SCF Done:  E(RB3LYP) =  -806.561220303     A.U. after   13 cycles
 SCF Done:  E(RB3LYP) =  -806.561750569     A.U. after   13 cycles
 SCF Done:  E(RB3LYP) =  -806.561892142     A.U. after   12 cycles
 SCF Done:  E(RB3LYP) =  -806.561953397     A.U. after   11 cycles
 SCF Done:  E(RB3LYP) =  -806.561984014     A.U. after   10 cycles
 SCF Done:  E(RB3LYP) =  -806.561986081     A.U. after    9 cycles
 SCF Done:  E(RB3LYP) =  -806.561986730     A.U. after    8 cycles
 SCF Done:  E(RB3LYP) =  -806.561986848     A.U. after    7 cycles
 Optimization completed.
    -- Stationary point found.
 Normal termination of Gaussian 16 at Sat Dec 12 10:13:35 2020.

 --------------------------------------------------------------------
 #N Geom=AllCheck Guess=TCheck SCRF=Check GenChk RB3LYP/6-31G(d) Freq
 --------------------------------------------------------------------

 Structure from the checkpoint file:  "JID_9743.chk"
 ------------------------------
 CID_62878781_JID_9743_neutraal
 ------------------------------
 Charge =  0 Multiplicity = 1

 SCF Done:  E(RB3LYP) =  -806.561986848     A.U. after    1 cycles

  Exact polarizability: 170.206  21.388 161.463  -0.291  -5.555 165.599
 Approx polarizability: 229.171  37.754 240.263  -4.999 -11.533 303.329

                      1                      2                      3
                      A                      A                      A
 Frequencies --     41.0900                52.4861                68.8961
 Red. masses --      4.8107                 4.3780                 4.0437
 Frc consts  --      0.0048                 0.0071                 0.0113
 IR Inten    --      0.5071                 0.9614                 0.0960

                      4                      5                      6
                      A                      A                      A
 Frequencies --     86.0321               119.6353               128.9538
 Red. masses --      4.7176                 6.2311                 4.3490
 Frc consts  --      0.0206                 0.0525                 0.0426
 IR Inten    --      0.9771                 3.6287                 0.8338

                      7                      8                      9
                      A                      A                      A
 Frequencies --    139.4384               149.9743               169.1120
 Red. masses --      6.7800                 4.6329                 3.0963
 Frc consts  --      0.0777                 0.0614                 0.0522
 IR Inten    --      4.7358                 4.6400                 0.8102

                     10                     11                     12
                      A                      A                      A
 Frequencies --    196.0217               234.0359               270.1715
 Red. masses --      4.3957                 1.0507                 2.6777
 Frc consts  --      0.0995                 0.0339                 0.1152
 IR Inten    --      0.1664                 0.0857                 1.8956

                     13                     14                     15
                      A                      A                      A
 Frequencies --    295.1741               313.0876               316.7315
 Red. masses --      2.6141                 2.8745                 4.1468
 Frc consts  --      0.1342                 0.1660                 0.2451
 IR Inten    --      1.5321                 2.8910                 0.8960

                     16                     17                     18
                      A                      A                      A
 Frequencies --    352.7715               369.4888               392.1475
 Red. masses --      2.9278                 3.5695                 2.3944
 Frc consts  --      0.2147                 0.2871                 0.2169
 IR Inten    --      0.8101                 5.5097                 1.9625

                     19                     20                     21
                      A                      A                      A
 Frequencies --    419.3536               420.8958               456.5274
 Red. masses --      3.1220                 4.6788                 3.0952
 Frc consts  --      0.3235                 0.4884                 0.3801
 IR Inten    --      0.0862                 0.1874                 1.2719

                     22                     23                     24
                      A                      A                      A
 Frequencies --    479.8162               481.8479               495.1151
 Red. masses --      2.5105                 3.8911                 5.9066
 Frc consts  --      0.3405                 0.5323                 0.8531
 IR Inten    --      1.1571                 0.9247                 4.9612

                     25                     26                     27
                      A                      A                      A
 Frequencies --    551.2931               568.1996               573.8925
 Red. masses --      3.5114                 2.3237                 2.5670
 Frc consts  --      0.6288                 0.4420                 0.4981
 IR Inten    --      8.7540                 9.6880                16.9169

                     28                     29                     30
                      A                      A                      A
 Frequencies --    605.8733               636.6658               659.1927
 Red. masses --      2.5445                 6.2359                 2.6062
 Frc consts  --      0.5503                 1.4893                 0.6672
 IR Inten    --     16.0538                 0.4838                31.2725

                     31                     32                     33
                      A                      A                      A
 Frequencies --    715.6529               742.9484               750.3079
 Red. masses --      2.6133                 2.0556                 2.5808
 Frc consts  --      0.7886                 0.6685                 0.8560
 IR Inten    --     18.4540                31.0103                51.1135

                     34                     35                     36
                      A                      A                      A
 Frequencies --    777.2362               790.9601               833.2095
 Red. masses --      2.7669                 1.5380                 3.1456
 Frc consts  --      0.9848                 0.5669                 1.2867
 IR Inten    --      3.5238                 0.3834                 4.3766

                     37                     38                     39
                      A                      A                      A
 Frequencies --    859.9703               871.3686               873.8501
 Red. masses --      3.0521                 1.2487                 2.0585
 Frc consts  --      1.3299                 0.5586                 0.9261
 IR Inten    --      2.4401                 0.3140                 5.9802

                     40                     41                     42
                      A                      A                      A
 Frequencies --    886.5292               899.4330               946.8662
 Red. masses --      1.9075                 2.5433                 1.4389
 Frc consts  --      0.8833                 1.2122                 0.7601
 IR Inten    --      0.2988                 0.5932                 2.4164

                     43                     44                     45
                      A                      A                      A
 Frequencies --    949.7865               967.8918               984.4610
 Red. masses --      1.4519                 2.3805                 1.3390
 Frc consts  --      0.7717                 1.3139                 0.7646
 IR Inten    --      5.5389                10.3243                 0.1955

                     46                     47                     48
                      A                      A                      A
 Frequencies --   1002.6111              1005.0650              1017.9852
 Red. masses --      1.8982                 1.2721                 2.1617
 Frc consts  --      1.1242                 0.7571                 1.3198
 IR Inten    --      5.1071                 0.7621                 4.1645

                     49                     50                     51
                      A                      A                      A
 Frequencies --   1023.7735              1041.0910              1047.0518
 Red. masses --      5.5561                 1.7166                 2.8501
 Frc consts  --      3.4310                 1.0962                 1.8410
 IR Inten    --      1.3392                 1.0397                 3.0863

                     52                     53                     54
                      A                      A                      A
 Frequencies --   1066.5367              1077.6887              1097.8046
 Red. masses --      2.2351                 1.9814                 1.7846
 Frc consts  --      1.4979                 1.3558                 1.2672
 IR Inten    --      3.4317                 4.6414                 0.2928

                     55                     56                     57
                      A                      A                      A
 Frequencies --   1125.0596              1130.8561              1157.7575
 Red. masses --      1.5863                 1.1832                 2.9178
 Frc consts  --      1.1830                 0.8915                 2.3043
 IR Inten    --      5.0980                 1.6190                14.2240

                     58                     59                     60
                      A                      A                      A
 Frequencies --   1183.6164              1196.4634              1206.6312
 Red. masses --      1.4985                 1.1314                 2.7085
 Frc consts  --      1.2369                 0.9543                 2.3235
 IR Inten    --      1.1383                 0.1263                 1.0864

                     61                     62                     63
                      A                      A                      A
 Frequencies --   1210.5086              1226.4566              1250.2583
 Red. masses --      2.2492                 1.1433                 1.4075
 Frc consts  --      1.9419                 1.0132                 1.2963
 IR Inten    --     11.1438                 2.4140                40.0423

                     64                     65                     66
                      A                      A                      A
 Frequencies --   1276.3274              1309.1798              1315.7583
 Red. masses --      1.8730                 1.3365                 1.5061
 Frc consts  --      1.7977                 1.3497                 1.5362
 IR Inten    --      3.9635                 6.4120                16.7381

                     67                     68                     69
                      A                      A                      A
 Frequencies --   1316.8648              1326.2221              1364.3848
 Red. masses --      1.3696                 1.4852                 3.1754
 Frc consts  --      1.3993                 1.5391                 3.4828
 IR Inten    --      6.7069                11.8961                 3.2567

                     70                     71                     72
                      A                      A                      A
 Frequencies --   1371.2450              1379.2016              1393.0892
 Red. masses --      1.3922                 1.3934                 1.4550
 Frc consts  --      1.5423                 1.5616                 1.6636
 IR Inten    --      0.9164                 2.6444                 0.3899

                     73                     74                     75
                      A                      A                      A
 Frequencies --   1404.5270              1405.9917              1412.5107
 Red. masses --      1.4442                 2.2626                 1.6952
 Frc consts  --      1.6786                 2.6353                 1.9927
 IR Inten    --      3.0825               120.3365                24.0398

                     76                     77                     78
                      A                      A                      A
 Frequencies --   1413.9260              1447.2128              1491.1663
 Red. masses --      1.8099                 1.2339                 1.3051
 Frc consts  --      2.1318                 1.5226                 1.7097
 IR Inten    --     74.9790                14.4356                 9.6879

                     79                     80                     81
                      A                      A                      A
 Frequencies --   1501.8119              1511.7812              1516.5371
 Red. masses --      2.2488                 1.0905                 1.0939
 Frc consts  --      2.9884                 1.4684                 1.4823
 IR Inten    --      9.8235                 2.7578                 2.6240

                     82                     83                     84
                      A                      A                      A
 Frequencies --   1517.8078              1525.8478              1529.0902
 Red. masses --      1.0892                 1.0883                 1.0924
 Frc consts  --      1.4784                 1.4929                 1.5048
 IR Inten    --      4.1315                11.4732                 1.4367

                     85                     86                     87
                      A                      A                      A
 Frequencies --   1537.2343              1540.7850              1548.0807
 Red. masses --      1.0854                 1.1051                 2.1288
 Frc consts  --      1.5111                 1.5457                 3.0059
 IR Inten    --      1.1155                 5.6886                19.0381

                     88                     89                     90
                      A                      A                      A
 Frequencies --   1647.3255              1665.6471              1750.5749
 Red. masses --      5.6325                 5.3540                 6.4534
 Frc consts  --      9.0056                 8.7518                11.6520
 IR Inten    --      2.5544                 7.5074               377.9332

                     91                     92                     93
                      A                      A                      A
 Frequencies --   2362.6881              3022.7705              3029.8984
 Red. masses --     12.6668                 1.0678                 1.0647
 Frc consts  --     41.6610                 5.7483                 5.7591
 IR Inten    --     10.0589                29.1122                21.2864

                     94                     95                     96
                      A                      A                      A
 Frequencies --   3040.8894              3047.1797              3059.9159
 Red. masses --      1.0634                 1.0723                 1.0433
 Frc consts  --      5.7937                 5.8665                 5.7557
 IR Inten    --     27.6440                 9.7661                43.1383

                     97                     98                     99
                      A                      A                      A
 Frequencies --   3066.0173              3066.3036              3074.4883
 Red. masses --      1.0816                 1.0678                 1.0981
 Frc consts  --      5.9907                 5.9155                 6.1157
 IR Inten    --      0.5487                15.6111                24.0520

                    100                    101                    102
                      A                      A                      A
 Frequencies --   3079.6374              3087.4909              3113.7818
 Red. masses --      1.0903                 1.1016                 1.0997
 Frc consts  --      6.0924                 6.1869                 6.2820
 IR Inten    --     44.1437                58.7492                21.5106

                    103                    104                    105
                      A                      A                      A
 Frequencies --   3120.0712              3151.5569              3178.1038
 Red. masses --      1.1019                 1.0872                 1.0968
 Frc consts  --      6.3198                 6.3624                 6.5269
 IR Inten    --     38.4475                19.4679                 3.2051

                    106                    107                    108
                      A                      A                      A
 Frequencies --   3188.2203              3197.1791              3206.7148
 Red. masses --      1.0853                 1.0885                 1.0918
 Frc consts  --      6.4998                 6.5558                 6.6145
 IR Inten    --      0.0639                10.0128                13.9781

                    109                    110                    111
                      A                      A                      A
 Frequencies --   3213.6087              3218.2684              3560.5039
 Red. masses --      1.0940                 1.0971                 1.0744
 Frc consts  --      6.6568                 6.6948                 8.0252
 IR Inten    --      8.8806                12.3309                18.7032

 - Thermochemistry -
 -------------------
 Temperature   298.150 Kelvin.  Pressure   1.00000 Atm.
 Atom     1 has atomic number  6 and mass  12.00000

 Molecular mass:   256.15756 amu.
 Principal axes and moments of inertia in atomic units:
                           1         2         3
     Eigenvalues --  3576.660655272.660716334.79197
           X            0.99999  -0.00009  -0.00484
           Y            0.00008   1.00000  -0.00164
           Z            0.00484   0.00164   0.99999
 This molecule is an asymmetric top.
 Rotational symmetry number  1.
 Warning -- assumption of classical behavior for rotation
           may cause significant error
 Rotational temperatures (Kelvin)      0.02422     0.01643     0.01367
 Rotational constants (GHZ):           0.50459     0.34228     0.28489
 Zero-point vibrational energy     882048.7 (Joules/Mol)
                                  210.81470 (Kcal/Mol)
 Warning -- explicit consideration of  28 degrees of freedom as
           vibrations may cause significant error
 Vibrational temperatures:     59.12    75.52    99.13   123.78   172.13
          (Kelvin)            185.54   200.62   215.78   243.31   282.03
                              336.73   388.72   424.69   450.46   455.71
                              507.56   531.61   564.21   603.36   605.58
                              656.84   690.35   693.27   712.36   793.19
                              817.51   825.70   871.72   916.02   948.43
                             1029.66  1068.94  1079.53  1118.27  1138.02
                             1198.80  1237.31  1253.71  1257.28  1275.52
                             1294.08  1362.33  1366.53  1392.58  1416.42
                             1442.53  1446.06  1464.65  1472.98  1497.90
                             1506.47  1534.51  1550.55  1579.50  1618.71
                             1627.05  1665.75  1702.96  1721.44  1736.07
                             1741.65  1764.60  1798.84  1836.35  1883.62
                             1893.08  1894.67  1908.14  1963.05  1972.92
                             1984.36  2004.34  2020.80  2022.91  2032.29
                             2034.32  2082.22  2145.46  2160.77  2175.12
                             2181.96  2183.79  2195.35  2200.02  2211.74
                             2216.85  2227.34  2370.13  2396.49  2518.69
                             3399.38  4349.09  4359.35  4375.16  4384.21
                             4402.54  4411.32  4411.73  4423.50  4430.91
                             4442.21  4480.04  4489.09  4534.39  4572.58
                             4587.14  4600.03  4613.75  4623.67  4630.37
                             5122.77

 Zero-point correction=                           0.335955 (Hartree/Particle)
 Thermal correction to Energy=                    0.353231
 Thermal correction to Enthalpy=                  0.354175
 Thermal correction to Gibbs Free Energy=         0.291451
 Sum of electronic and zero-point Energies=           -806.226032
 Sum of electronic and thermal Energies=              -806.208756
 Sum of electronic and thermal Enthalpies=            -806.207811
 Sum of electronic and thermal Free Energies=         -806.270536

                     E (Thermal)             CV                S
                      KCal/Mol        Cal/Mol-Kelvin    Cal/Mol-Kelvin
 Total                  221.656             68.592            132.016
 Electronic               0.000              0.000              0.000
 Translational            0.889              2.981             42.522
 Rotational               0.889              2.981             33.146
 Vibrational            219.878             62.630             56.348
 Vibration     1          0.594              1.981              5.206
 Vibration     2          0.596              1.977              4.721
 Vibration     3          0.598              1.969              4.185
 Vibration     4          0.601              1.959              3.748
 Vibration     5          0.609              1.933              3.106
 Vibration     6          0.611              1.924              2.962
 Vibration     7          0.615              1.914              2.812
 Vibration     8          0.618              1.903              2.673
 Vibration     9          0.625              1.880              2.445
 Vibration    10          0.636              1.845              2.170
 Vibration    11          0.654              1.789              1.848
 Vibration    12          0.674              1.728              1.595
 Vibration    13          0.689              1.683              1.444
 Vibration    14          0.701              1.649              1.346
 Vibration    15          0.704              1.642              1.327
 Vibration    16          0.729              1.570              1.154
 Vibration    17          0.742              1.535              1.082
 Vibration    18          0.760              1.487              0.992
 Vibration    19          0.782              1.428              0.894
 Vibration    20          0.783              1.425              0.889
 Vibration    21          0.815              1.346              0.776
 Vibration    22          0.836              1.295              0.711
 Vibration    23          0.838              1.290              0.705
 Vibration    24          0.851              1.261              0.670
 Vibration    25          0.907              1.137              0.541
 Vibration    26          0.924              1.100              0.508
 Vibration    27          0.930              1.088              0.497
 Vibration    28          0.965              1.019              0.440

                           ! Non-Optimized Parameters !
 Normal termination of Gaussian 16 at Sat Dec 12 10:36:33 2020.

 ----------------------------------------------------------------------
 # B3LYP/6-311++G(d,p) empiricaldispersion=gd3bj scf=xqc pop=npa geom=c
 heck
 ----------------------------------------------------------------------

 --------------------------------------
 CID_62878781_JID_9743_Energie_neutraal
 --------------------------------------
 Structure from the checkpoint file:  "JID_9743.chk"
 Charge =  0 Multiplicity = 1

 SCF Done:  E(RB3LYP) =  -806.780544344     A.U. after   16 cycles
 Normal termination of Gaussian 16 at Sat Dec 12 10:45:30 2020.

 ----------------------------------------------------------------------
 # B3LYP/6-311++G(d,p) empiricaldispersion=gd3bj scf=xqc pop=npa geom=c
 heck
 ----------------------------------------------------------------------

 ------------------------------------
 CID_62878781_JID_9743_Energie_kation
 ------------------------------------
 Structure from the checkpoint file:  "JID_9743.chk"
 Charge =  1 Multiplicity = 2

 SCF Done:  E(UB3LYP) =  -806.458168179     A.U. after   33 cycles
 SCF Done:  E(UB3LYP) =  -806.458168179     a.u. after    1 cycles
 Normal termination of Gaussian 16 at Sat Dec 12 11:10:51 2020.
 Gaussian 16:  ES64L-G16RevA.03 25-Dec-2016

 ----------------------------------------------------------------------
 # B3LYP/6-311++G(d,p) empiricaldispersion=gd3bj scf=xqc pop=npa geom=c
 heck
 ----------------------------------------------------------------------

 -----------------------------------
 CID_62878781_JID_9743_Energie_anion
 -----------------------------------
 Structure from the checkpoint file:  "JID_9743.chk"
 Charge = -1 Multiplicity = 2

                         Standard orientation:
 ---------------------------------------------------------------------
 Center     Atomic      Atomic             Coordinates (Angstroms)
 Number     Number       Type             X           Y           Z
 ---------------------------------------------------------------------
      1          6           0        2.795775    1.420295   -0.861112
      2          6           0        2.071484    0.206373   -0.259393
      3          6           0        1.122566   -0.453690   -1.278980
      4          6           0        0.507256   -1.766888   -0.782802
      5          6           0        1.589222   -2.771456   -0.373204
      6          6           0        2.527545   -2.158646    0.672489
      7          6           0        3.128784   -0.842696    0.165033
      8          7           0        1.384616    0.591659    1.002982
      9          6           0        0.282894    1.290997    1.390588
     10          8           0        0.096249    1.532402    2.580882
     11          6           0       -0.860145    1.719292    0.426573
     12          6           0       -0.455234    2.420652   -0.789366
     13          7           0       -0.172397    3.008724   -1.749469
     14          6           0       -1.829683    0.559089    0.165905
     15          6           0       -2.314585    0.268374   -1.110243
     16          6           0       -3.192211   -0.800510   -1.300382
     17          6           0       -3.594813   -1.580656   -0.217892
     18          6           0       -3.124384   -1.279480    1.061864
     19          6           0       -2.248841   -0.213383    1.255953
     20          1           0        3.377693    1.113189   -1.737099
     21          1           0        2.097823    2.196546   -1.176741
     22          1           0        3.485998    1.850250   -0.126781
     23          1           0        0.346838    0.245062   -1.594408
     24          1           0        1.723853   -0.651746   -2.176522
     25          1           0       -0.133308   -2.184947   -1.567493
     26          1           0       -0.144915   -1.567152    0.073506
     27          1           0        2.174998   -3.061957   -1.257834
     28          1           0        1.131330   -3.688132    0.017302
     29          1           0        3.335966   -2.855403    0.924596
     30          1           0        1.967191   -1.979919    1.600019
     31          1           0        3.753556   -1.045811   -0.713433
     32          1           0        3.794774   -0.399086    0.918697
     33          1           0        1.942623    0.415745    1.832032
     34          1           0       -1.385879    2.463884    1.035611
     35          1           0       -2.007455    0.871450   -1.958865
     36          1           0       -3.558163   -1.020227   -2.299138
     37          1           0       -4.274296   -2.414524   -0.368000
     38          1           0       -3.438595   -1.876038    1.913446
     39          1           0       -1.879347    0.020901    2.249288
 ---------------------------------------------------------------------

 SCF Done:  E(UB3LYP) =  -806.771191084     A.U. after   33 cycles
 SCF Done:  E(UB3LYP) =  -806.771191088     a.u. after    2 cycles

 The electronic state is 2-A.
 Alpha  occ. eigenvalues --  -19.00322 -14.24727 -14.23333 -10.19687 -10.14273
 Alpha  occ. eigenvalues --  -10.13398 -10.13359 -10.09318 -10.08009 -10.07943
 Alpha  occ. eigenvalues --  -10.07595 -10.07527 -10.07285 -10.07056 -10.06988
 Alpha  occ. eigenvalues --  -10.06769 -10.06510 -10.06163 -10.05840  -0.95747
 Alpha  occ. eigenvalues --   -0.83875  -0.83156  -0.76964  -0.73317  -0.71379
 Alpha  occ. eigenvalues --   -0.67157  -0.65241  -0.64914  -0.63277  -0.58865
 Alpha  occ. eigenvalues --   -0.53676  -0.52235  -0.51668  -0.50563  -0.48644
 Alpha  occ. eigenvalues --   -0.46817  -0.44062  -0.42701  -0.39941  -0.37598
 Alpha  occ. eigenvalues --   -0.37315  -0.37141  -0.35617  -0.34868  -0.34245
 Alpha  occ. eigenvalues --   -0.33816  -0.33466  -0.32845  -0.32645  -0.31952
 Alpha  occ. eigenvalues --   -0.29357  -0.29221  -0.28547  -0.28494  -0.27871
 Alpha  occ. eigenvalues --   -0.27300  -0.26643  -0.26078  -0.25191  -0.24964
 Alpha  occ. eigenvalues --   -0.24776  -0.24482  -0.22473  -0.21329  -0.20467
 Alpha  occ. eigenvalues --   -0.17784  -0.16827  -0.16232  -0.15603   0.04326
 Alpha virt. eigenvalues --    0.06046   0.06525   0.07119   0.07498   0.07820
 Alpha virt. eigenvalues --    0.08436   0.08609   0.08956   0.09451   0.09743
 Alpha virt. eigenvalues --    0.10123   0.10869   0.10939   0.11108   0.11695

  Beta  occ. eigenvalues --  -19.00320 -14.24711 -14.23334 -10.19645 -10.14284
  Beta  occ. eigenvalues --  -10.13393 -10.13361 -10.09166 -10.08026 -10.07974
  Beta  occ. eigenvalues --  -10.07541 -10.07503 -10.07207 -10.06978 -10.06902
  Beta  occ. eigenvalues --  -10.06757 -10.06482 -10.06145 -10.05831  -0.95720
  Beta  occ. eigenvalues --   -0.83850  -0.83147  -0.76784  -0.73283  -0.71257
  Beta  occ. eigenvalues --   -0.67127  -0.65122  -0.64871  -0.63070  -0.58830
  Beta  occ. eigenvalues --   -0.53616  -0.52190  -0.51617  -0.50282  -0.48570
  Beta  occ. eigenvalues --   -0.46762  -0.44013  -0.42619  -0.39890  -0.37487
  Beta  occ. eigenvalues --   -0.37203  -0.37080  -0.35536  -0.34784  -0.34200
  Beta  occ. eigenvalues --   -0.33780  -0.33423  -0.32808  -0.32613  -0.31903
  Beta  occ. eigenvalues --   -0.29315  -0.29194  -0.28504  -0.28443  -0.27829
  Beta  occ. eigenvalues --   -0.26996  -0.26606  -0.25997  -0.25130  -0.24909
  Beta  occ. eigenvalues --   -0.24699  -0.24437  -0.22425  -0.21292  -0.20431
  Beta  occ. eigenvalues --   -0.17701  -0.16754  -0.15928  -0.14869
  Beta virt. eigenvalues --    0.06468   0.07033   0.07212   0.07371   0.07901
  Beta virt. eigenvalues --    0.08322   0.08661   0.08856   0.09266   0.09816
  Beta virt. eigenvalues --    0.10013   0.10413   0.10996   0.11143   0.11235

 Mulliken charges and spin densities:
               1          2
     1  C    0.388556  -0.789730
     2  C    0.156773   0.247854
     3  C    0.020797  -0.273682
     4  C   -0.767425   0.571862
     5  C    1.157942  -1.713590
     6  C   -0.367468   0.083843
     7  C   -0.196740  -0.419619
     8  N   -0.314961   0.095748
     9  C   -0.462427   0.047740
    10  O   -0.262521   0.004548
    11  C    0.618685  -0.159411
    12  C   -0.140724  -0.119796
    13  N   -0.249954   0.005187
    14  C    1.211910  -0.243454
    15  C   -0.807178   0.261682
    16  C   -0.380051   0.106443
    17  C    0.196691  -0.429502
    18  C   -0.541394   0.162863
    19  C   -0.405105   0.196984
    20  H    0.027092   0.112342
    21  H    0.143630  -0.017300
    22  H    0.039284   0.123265
    23  H    0.128468  -0.004570
    24  H   -0.179390   0.380976
    25  H   -0.014711   0.184907
    26  H    0.835827  -0.650570
    27  H   -0.077203   0.197620
    28  H   -0.290154   0.470855
    29  H   -0.802995   1.002535
    30  H    0.017846   0.097435
    31  H   -0.136960   0.292127
    32  H   -0.241809   0.405956
    33  H    0.270823   0.065587
    34  H    0.297844   0.016169
    35  H    0.139184   0.021005
    36  H   -0.065599   0.226637
    37  H   -0.089441   0.218449
    38  H   -0.030474   0.195939
    39  H    0.173332   0.024665
 Sum of Mulliken charges =  -1.00000   1.00000

 Dipole moment (field-independent basis, Debye):
    X=             -3.1512    Y=              3.5297    Z=             -0.3175  Tot=              4.7423
 Quadrupole moment (field-independent basis, Debye-Ang):
   XX=           -179.0301   YY=           -169.1898   ZZ=           -155.5149
   XY=             11.1132   XZ=             -3.1188   YZ=              1.8048

 Summary of Natural Population Analysis:

                                       Natural Population
                Natural  -----------------------------------------------
    Atom  No    Charge         Core      Valence    Rydberg      Total
 -----------------------------------------------------------------------
      C    1   -0.28828      0.99961     2.28218    0.00650     3.28828
      C    2    0.06547      0.99954     1.92246    0.01252     2.93453
      C    3   -0.19512      0.99957     2.18592    0.00964     3.19512
      C    4   -0.19487      0.99962     2.18663    0.00862     3.19487
      C    5   -0.18623      0.99963     2.17847    0.00814     3.18623
      C    6   -0.19159      0.99962     2.18296    0.00900     3.19159
      C    7   -0.19146      0.99958     2.18095    0.01092     3.19146
      N    8   -0.31903      0.99963     2.80828    0.01113     3.81903
      C    9    0.36227      0.99965     1.61428    0.02381     2.63773
      O   10   -0.32705      0.99988     3.32168    0.00549     4.32705
      C   11   -0.20765      0.99943     2.19820    0.01002     3.20765
      C   12    0.16690      0.99964     1.81494    0.01852     2.83310
      N   13   -0.18253      0.99979     2.67277    0.00998     3.68253
      C   14    0.00442      0.99948     1.98626    0.00985     2.99558
      C   15   -0.10954      0.99951     2.10140    0.00864     3.10954
      C   16   -0.09057      0.99957     2.08093    0.01008     3.09057
      C   17   -0.07907      0.99956     2.06961    0.00990     3.07907
      C   18   -0.10398      0.99957     2.09445    0.00997     3.10398
      C   19   -0.09126      0.99951     2.08277    0.00898     3.09126
      H   20    0.10088      0.00000     0.39832    0.00081     0.39912
      H   21    0.10910      0.00000     0.38957    0.00132     0.39090
      H   22    0.09912      0.00000     0.40002    0.00086     0.40088
      H   23    0.10497      0.00000     0.39292    0.00211     0.39503
      H   24    0.10012      0.00000     0.39860    0.00128     0.39988
      H   25    0.10197      0.00000     0.39693    0.00110     0.39803
      H   26    0.10270      0.00000     0.39467    0.00262     0.39730
      H   27    0.09204      0.00000     0.40653    0.00142     0.40796
      H   28    0.09973      0.00000     0.39927    0.00100     0.40027
      H   29    0.10324      0.00000     0.39457    0.00218     0.39676
      H   30    0.09501      0.00000     0.40338    0.00161     0.40499
      H   31    0.10351      0.00000     0.39490    0.00159     0.39649
      H   32    0.09923      0.00000     0.39931    0.00146     0.40077
      H   33    0.19702      0.00000     0.30070    0.00228     0.30298
      H   34    0.14025      0.00000     0.35838    0.00137     0.35975
      H   35    0.10487      0.00000     0.39364    0.00150     0.39513
      H   36    0.09876      0.00000     0.40044    0.00080     0.40124
      H   37    0.09707      0.00000     0.40212    0.00080     0.40293
      H   38    0.09938      0.00000     0.39988    0.00074     0.40062
      H   39    0.11019      0.00000     0.38877    0.00104     0.38981
 =======================================================================
   * Total *   -0.00000     18.99237    49.77804    0.22959    69.00000

 Normal termination of Gaussian 16 at Sat Dec 12 11:58:21 2020.
