 Gaussian 16, Revision A.03,

 -----------------------------------------------------------
 # opt freq B3LYP/6-31G(d) empiricaldispersion=gd3bj scf=xqc
 -----------------------------------------------------------

 -------------------------------
 CID_23010051_JID_10498_neutraal
 -------------------------------
 Symbolic Z-matrix:
 Charge =  0 Multiplicity = 1

 SCF Done:  E(RB3LYP) =  -1292.59262940     A.U. after   15 cycles
 SCF Done:  E(RB3LYP) =  -1292.37725105     A.U. after   16 cycles
 SCF Done:  E(RB3LYP) =  -1292.59929447     A.U. after   14 cycles
 SCF Done:  E(RB3LYP) =  -1292.60106055     A.U. after   13 cycles
 SCF Done:  E(RB3LYP) =  -1292.60015259     A.U. after   15 cycles
 SCF Done:  E(RB3LYP) =  -1292.60147917     A.U. after   13 cycles
 SCF Done:  E(RB3LYP) =  -1292.60183439     A.U. after   12 cycles
 SCF Done:  E(RB3LYP) =  -1292.60213117     A.U. after   12 cycles
 SCF Done:  E(RB3LYP) =  -1292.60227067     A.U. after   13 cycles
 SCF Done:  E(RB3LYP) =  -1292.60241458     A.U. after   11 cycles
 SCF Done:  E(RB3LYP) =  -1292.60852966     A.U. after   10 cycles
 SCF Done:  E(RB3LYP) =  -1292.60853030     A.U. after    8 cycles
 SCF Done:  E(RB3LYP) =  -1292.60853060     A.U. after    8 cycles
 SCF Done:  E(RB3LYP) =  -1292.60853066     A.U. after    8 cycles
 SCF Done:  E(RB3LYP) =  -1292.60853067     A.U. after    7 cycles
 Optimization completed.
    -- Stationary point found.
 Normal termination of Gaussian 16 at Mon Dec 14 20:10:04 2020.

 --------------------------------------------------------------------
 #N Geom=AllCheck Guess=TCheck SCRF=Check GenChk RB3LYP/6-31G(d) Freq
 --------------------------------------------------------------------

 Structure from the checkpoint file:  "JID_10498.chk"
 -------------------------------
 CID_23010051_JID_10498_neutraal
 -------------------------------
 Charge =  0 Multiplicity = 1

 SCF Done:  E(RB3LYP) =  -1292.60853067     A.U. after    1 cycles

  Exact polarizability: 221.822  31.432 144.107  14.412 -22.048 144.053
 Approx polarizability: 347.865  56.180 226.838  37.402 -58.889 269.356

                      1                      2                      3
                      A                      A                      A
 Frequencies --     25.1615                34.2628                61.1730
 Red. masses --      6.2048                 8.5898                 6.5300
 Frc consts  --      0.0023                 0.0059                 0.0144
 IR Inten    --      0.4113                 0.3883                 5.3109

                      4                      5                      6
                      A                      A                      A
 Frequencies --     81.5978                87.3333                96.2296
 Red. masses --      4.2196                 4.5027                 2.6779
 Frc consts  --      0.0166                 0.0202                 0.0146
 IR Inten    --      4.2323                 2.4231                 1.8358

                      7                      8                      9
                      A                      A                      A
 Frequencies --    113.8767               124.4596               141.0530
 Red. masses --      1.6779                 3.6012                 3.3646
 Frc consts  --      0.0128                 0.0329                 0.0394
 IR Inten    --      2.6023                 1.2412                 2.6217

                     10                     11                     12
                      A                      A                      A
 Frequencies --    153.0061               185.8461               191.8214
 Red. masses --      4.5127                 2.1084                 1.5537
 Frc consts  --      0.0622                 0.0429                 0.0337
 IR Inten    --      2.6919                 0.5542                 0.3683

                     13                     14                     15
                      A                      A                      A
 Frequencies --    211.5946               242.2531               258.7625
 Red. masses --      4.4945                 4.1947                 4.0662
 Frc consts  --      0.1186                 0.1450                 0.1604
 IR Inten    --      4.3823                 0.0492                 1.5669

                     16                     17                     18
                      A                      A                      A
 Frequencies --    282.2568               287.1662               309.2872
 Red. masses --      2.6920                 2.5972                 5.7470
 Frc consts  --      0.1264                 0.1262                 0.3239
 IR Inten    --      1.5144                 1.1670                 4.5898

                     19                     20                     21
                      A                      A                      A
 Frequencies --    341.0404               347.2053               428.2925
 Red. masses --      6.3429                 5.6935                 3.1413
 Frc consts  --      0.4347                 0.4044                 0.3395
 IR Inten    --      0.9694                 5.6099                 0.2178

                     22                     23                     24
                      A                      A                      A
 Frequencies --    449.5860               461.9873               480.9680
 Red. masses --      5.2218                 4.3762                 4.1423
 Frc consts  --      0.6219                 0.5503                 0.5646
 IR Inten    --      5.4664                 2.4939                 5.8133

                     25                     26                     27
                      A                      A                      A
 Frequencies --    505.4839               514.0365               541.9408
 Red. masses --      5.1893                 3.8029                 2.9192
 Frc consts  --      0.7812                 0.5920                 0.5051
 IR Inten    --     15.1945                13.3671                 8.0646

                     28                     29                     30
                      A                      A                      A
 Frequencies --    600.3900               615.2884               649.1254
 Red. masses --      2.9381                 1.5306                 6.9174
 Frc consts  --      0.6240                 0.3414                 1.7173
 IR Inten    --     59.6212                36.9006                 1.0252

                     31                     32                     33
                      A                      A                      A
 Frequencies --    656.6395               672.8509               689.4489
 Red. masses --      4.3332                 6.0179                11.2119
 Frc consts  --      1.1008                 1.6052                 3.1400
 IR Inten    --     10.2478                 3.4620                 2.5500

                     34                     35                     36
                      A                      A                      A
 Frequencies --    691.3049               709.3403               729.6494
 Red. masses --      5.1465                 3.3188                 3.8172
 Frc consts  --      1.4491                 0.9839                 1.1973
 IR Inten    --      6.0354                38.2463                 9.8571

                     37                     38                     39
                      A                      A                      A
 Frequencies --    747.3692               778.3457               823.3988
 Red. masses --      4.6352                 5.1452                 2.6927
 Frc consts  --      1.5254                 1.8365                 1.0756
 IR Inten    --      6.7710                60.1991                 2.8935

                     40                     41                     42
                      A                      A                      A
 Frequencies --    832.6133               861.3511               867.9695
 Red. masses --      1.4057                 2.5874                 1.7637
 Frc consts  --      0.5742                 1.1310                 0.7829
 IR Inten    --      5.2044                 6.4848                30.1282

                     43                     44                     45
                      A                      A                      A
 Frequencies --    965.8891               969.9054               985.4448
 Red. masses --      2.1090                 1.4262                 1.2963
 Frc consts  --      1.1592                 0.7905                 0.7417
 IR Inten    --     12.0096                 0.9563                 0.7449

                     46                     47                     48
                      A                      A                      A
 Frequencies --    990.9039              1029.7822              1032.9251
 Red. masses --      3.1871                 1.9074                 2.7835
 Frc consts  --      1.8438                 1.1917                 1.7497
 IR Inten    --      0.5054                 3.8247                 2.7667

                     49                     50                     51
                      A                      A                      A
 Frequencies --   1057.2404              1074.9704              1085.9209
 Red. masses --      2.6400                 8.1372                 1.4758
 Frc consts  --      1.7386                 5.5401                 1.0254
 IR Inten    --     70.5398                 0.4894                 6.4447

                     52                     53                     54
                      A                      A                      A
 Frequencies --   1087.0472              1111.4272              1147.8812
 Red. masses --      2.5620                 3.6320                 1.3555
 Frc consts  --      1.7837                 2.6434                 1.0523
 IR Inten    --     20.0033               147.2425                 0.7686

                     55                     56                     57
                      A                      A                      A
 Frequencies --   1152.6066              1163.3248              1198.3043
 Red. masses --      2.0255                 1.3113                 1.3391
 Frc consts  --      1.5854                 1.0456                 1.1330
 IR Inten    --     17.9873                 1.4692               261.2791

                     58                     59                     60
                      A                      A                      A
 Frequencies --   1230.1496              1241.5921              1262.7521
 Red. masses --      1.5420                 1.2569                 4.5024
 Frc consts  --      1.3748                 1.1416                 4.2299
 IR Inten    --     72.3579                18.1405                 6.3202

                     61                     62                     63
                      A                      A                      A
 Frequencies --   1271.2877              1305.5682              1337.2351
 Red. masses --      1.7578                 1.8297                 1.3498
 Frc consts  --      1.6738                 1.8375                 1.4221
 IR Inten    --     80.6436                88.3575                13.4950

                     64                     65                     66
                      A                      A                      A
 Frequencies --   1357.1741              1377.7202              1379.2301
 Red. masses --      1.8298                 2.9022                 4.9764
 Frc consts  --      1.9858                 3.2457                 5.5775
 IR Inten    --     33.6582                25.8596                 7.9598

                     67                     68                     69
                      A                      A                      A
 Frequencies --   1389.9901              1422.3832              1427.9659
 Red. masses --      2.8050                 1.3451                 2.2518
 Frc consts  --      3.1931                 1.6034                 2.7053
 IR Inten    --    138.5897                 2.6307                27.8600

                     70                     71                     72
                      A                      A                      A
 Frequencies --   1444.7872              1468.0068              1470.8810
 Red. masses --      1.7316                 2.3249                 3.1978
 Frc consts  --      2.1296                 2.9520                 4.0762
 IR Inten    --      5.7171                33.4899                12.8772

                     73                     74                     75
                      A                      A                      A
 Frequencies --   1481.1080              1497.2147              1512.3808
 Red. masses --      1.1370                 1.2484                 1.1088
 Frc consts  --      1.4695                 1.6488                 1.4943
 IR Inten    --      8.4788                22.3756                13.3280

                     76                     77                     78
                      A                      A                      A
 Frequencies --   1517.6026              1528.5736              1535.0652
 Red. masses --      1.0641                 1.3259                 1.1129
 Frc consts  --      1.4439                 1.8253                 1.5452
 IR Inten    --      6.8354                 5.5965                16.4870

                     79                     80                     81
                      A                      A                      A
 Frequencies --   1540.6025              1562.3917              1583.4035
 Red. masses --      1.2996                 2.5309                 4.4086
 Frc consts  --      1.8173                 3.6400                 6.5122
 IR Inten    --     16.2880                53.0752                38.1122

                     82                     83                     84
                      A                      A                      A
 Frequencies --   1627.1485              1665.8671              1816.6905
 Red. masses --      6.8599                 5.7186                 9.5659
 Frc consts  --     10.7009                 9.3502                18.6010
 IR Inten    --     24.5367               180.1585               351.4754

                     85                     86                     87
                      A                      A                      A
 Frequencies --   3053.0788              3071.8495              3083.6592
 Red. masses --      1.0390                 1.0387                 1.0635
 Frc consts  --      5.7060                 5.7750                 5.9583
 IR Inten    --     16.7750                27.0027                 9.2613

                     88                     89                     90
                      A                      A                      A
 Frequencies --   3092.2469              3108.7578              3144.4918
 Red. masses --      1.0625                 1.1017                 1.1075
 Frc consts  --      5.9859                 6.2730                 6.4520
 IR Inten    --     48.7820                 6.5747                 2.1462

                     91                     92                     93
                      A                      A                      A
 Frequencies --   3148.8248              3161.4051              3180.3514
 Red. masses --      1.0991                 1.0988                 1.0982
 Frc consts  --      6.4208                 6.4703                 6.5445
 IR Inten    --      7.6045                 2.7267                 3.7293

                     94                     95                     96
                      A                      A                      A
 Frequencies --   3180.9596              3216.6622              3230.1381
 Red. masses --      1.1042                 1.0879                 1.0947
 Frc consts  --      6.5826                 6.6323                 6.7295
 IR Inten    --      3.8152                 1.3675                 3.7017

                     97                     98                     99
                      A                      A                      A
 Frequencies --   3232.7515              3248.9764              3699.6996
 Red. masses --      1.0888                 1.0932                 1.0642
 Frc consts  --      6.7044                 6.7992                 8.5826
 IR Inten    --      0.6243                 2.9068                83.5744

 - Thermochemistry -
 -------------------
 Temperature   298.150 Kelvin.  Pressure   1.00000 Atm.
 Atom     1 has atomic number  6 and mass  12.00000

 Molecular mass:   293.08341 amu.
 Principal axes and moments of inertia in atomic units:
                           1         2         3
     Eigenvalues --  3661.134066501.086408117.98737
           X            0.99923   0.03856   0.00671
           Y           -0.03858   0.99925   0.00284
           Z           -0.00659  -0.00309   0.99997
 This molecule is an asymmetric top.
 Rotational symmetry number  1.
 Warning -- assumption of classical behavior for rotation
           may cause significant error
 Rotational temperatures (Kelvin)      0.02366     0.01332     0.01067
 Rotational constants (GHZ):           0.49295     0.27761     0.22231
 Zero-point vibrational energy     724009.7 (Joules/Mol)
                                  173.04246 (Kcal/Mol)
 Warning -- explicit consideration of  29 degrees of freedom as
           vibrations may cause significant error
 Vibrational temperatures:     36.20    49.30    88.01   117.40   125.65
          (Kelvin)            138.45   163.84   179.07   202.94   220.14
                              267.39   275.99   304.44   348.55   372.30
                              406.10   413.17   445.00   490.68   499.55
                              616.22   646.85   664.70   692.01   727.28
                              739.58   779.73   863.83   885.26   933.95
                              944.76   968.08   991.96   994.63  1020.58
                             1049.80  1075.30  1119.87  1184.69  1197.94
                             1239.29  1248.81  1389.70  1395.48  1417.84
                             1425.69  1481.63  1486.15  1521.13  1546.64
                             1562.40  1564.02  1599.10  1651.55  1658.34
                             1673.76  1724.09  1769.91  1786.37  1816.82
                             1829.10  1878.42  1923.98  1952.67  1982.23
                             1984.40  1999.89  2046.49  2054.52  2078.73
                             2112.13  2116.27  2130.98  2154.16  2175.98
                             2183.49  2199.28  2208.62  2216.58  2247.93
                             2278.16  2341.10  2396.81  2613.81  4392.70
                             4419.71  4436.70  4449.05  4472.81  4524.22
                             4530.46  4548.56  4575.82  4576.69  4628.06
                             4647.45  4651.21  4674.55  5323.04

 Zero-point correction=                           0.275761 (Hartree/Particle)
 Thermal correction to Energy=                    0.294702
 Thermal correction to Enthalpy=                  0.295646
 Thermal correction to Gibbs Free Energy=         0.227690
 Sum of electronic and zero-point Energies=          -1292.332770
 Sum of electronic and thermal Energies=             -1292.313829
 Sum of electronic and thermal Enthalpies=           -1292.312885
 Sum of electronic and thermal Free Energies=        -1292.380840

                     E (Thermal)             CV                S
                      KCal/Mol        Cal/Mol-Kelvin    Cal/Mol-Kelvin
 Total                  184.928             70.828            143.024
 Electronic               0.000              0.000              0.000
 Translational            0.889              2.981             42.923
 Rotational               0.889              2.981             33.624
 Vibrational            183.151             64.866             66.477
 Vibration     1          0.593              1.985              6.178
 Vibration     2          0.594              1.983              5.566
 Vibration     3          0.597              1.973              4.419
 Vibration     4          0.600              1.962              3.852
 Vibration     5          0.601              1.958              3.719
 Vibration     6          0.603              1.952              3.529
 Vibration     7          0.607              1.938              3.202
 Vibration     8          0.610              1.929              3.030
 Vibration     9          0.615              1.912              2.790
 Vibration    10          0.619              1.899              2.635
 Vibration    11          0.632              1.859              2.269
 Vibration    12          0.634              1.851              2.210
 Vibration    13          0.643              1.823              2.030
 Vibration    14          0.658              1.776              1.786
 Vibration    15          0.668              1.748              1.670
 Vibration    16          0.681              1.707              1.520
 Vibration    17          0.684              1.698              1.491
 Vibration    18          0.699              1.656              1.366
 Vibration    19          0.721              1.593              1.207
 Vibration    20          0.725              1.581              1.179
 Vibration    21          0.790              1.409              0.864
 Vibration    22          0.808              1.362              0.797
 Vibration    23          0.820              1.334              0.760
 Vibration    24          0.837              1.292              0.707
 Vibration    25          0.861              1.238              0.645
 Vibration    26          0.869              1.219              0.624
 Vibration    27          0.897              1.157              0.561
 Vibration    28          0.959              1.031              0.449
 Vibration    29          0.975              1.000              0.424

 Optimization completed.
    -- Stationary point found.
 Normal termination of Gaussian 16 at Mon Dec 14 20:32:49 2020.

 ----------------------------------------------------------------------
 # B3LYP/6-311++G(d,p) empiricaldispersion=gd3bj scf=xqc pop=npa geom=c
 heck
 ----------------------------------------------------------------------

 ---------------------------------------
 CID_23010051_JID_10498_Energie_neutraal
 ---------------------------------------
 Structure from the checkpoint file:  "JID_10498.chk"
 Charge =  0 Multiplicity = 1

 SCF Done:  E(RB3LYP) =  -1292.88544033     A.U. after   16 cycles
 Normal termination of Gaussian 16 at Mon Dec 14 20:42:45 2020.

 ----------------------------------------------------------------------
 # B3LYP/6-311++G(d,p) empiricaldispersion=gd3bj scf=xqc pop=npa geom=c
 heck
 ----------------------------------------------------------------------

 -------------------------------------
 CID_23010051_JID_10498_Energie_kation
 -------------------------------------
 Structure from the checkpoint file:  "JID_10498.chk"
 Charge =  1 Multiplicity = 2

 SCF Done:  E(UB3LYP) =  -1292.59008481     A.U. after   27 cycles
 Normal termination of Gaussian 16 at Mon Dec 14 21:06:28 2020.
 Gaussian 16:  ES64L-G16RevA.03 25-Dec-2016

 ----------------------------------------------------------------------
 # B3LYP/6-311++G(d,p) empiricaldispersion=gd3bj scf=xqc pop=npa geom=c
 heck
 ----------------------------------------------------------------------

 ------------------------------------
 CID_23010051_JID_10498_Energie_anion
 ------------------------------------
 Structure from the checkpoint file:  "JID_10498.chk"
 Charge = -1 Multiplicity = 2

                         Standard orientation:
 ---------------------------------------------------------------------
 Center     Atomic      Atomic             Coordinates (Angstroms)
 Number     Number       Type             X           Y           Z
 ---------------------------------------------------------------------
      1          6           0        1.447080    3.010650   -0.344499
      2          6           0        0.108797    2.358425   -0.306033
      3          7           0       -0.799617    2.415103   -1.254534
      4          7           0       -1.899581    1.683294   -0.833852
      5          6           0       -1.608309    1.198141    0.353762
      6          7           0       -0.350163    1.590716    0.741821
      7          6           0        0.357926    1.214981    1.954003
      8         16           0       -2.598939    0.132307    1.342335
      9          6           0       -3.624995   -0.670101    0.044824
     10          6           0       -2.849353   -1.309115   -1.104830
     11          8           0       -1.860018   -2.222750   -0.626661
     12          6           0       -0.562238   -1.813647   -0.539566
     13          6           0        0.189139   -2.369475    0.507928
     14          6           0        1.513320   -2.002306    0.682200
     15          6           0        2.113603   -1.072770   -0.182599
     16          6           0        1.368950   -0.554234   -1.250235
     17          6           0        0.043403   -0.925820   -1.438855
     18          6           0        3.504077   -0.663043    0.087806
     19          8           0        4.206236   -1.092844    0.982977
     20          8           0        3.954563    0.300945   -0.767817
     21          1           0        1.519159    3.580880   -1.272814
     22          1           0        2.260025    2.275334   -0.327309
     23          1           0        1.588996    3.697750    0.498093
     24          1           0        0.140138    0.170576    2.185321
     25          1           0        1.430272    1.316061    1.784972
     26          1           0        0.062033    1.847987    2.796882
     27          1           0       -4.186241   -1.424377    0.603953
     28          1           0       -4.325054    0.063928   -0.363099
     29          1           0       -3.546539   -1.896414   -1.710947
     30          1           0       -2.418189   -0.525271   -1.725284
     31          1           0       -0.301307   -3.062406    1.182775
     32          1           0        2.100407   -2.407038    1.499712
     33          1           0        1.827459    0.147548   -1.936735
     34          1           0       -0.510375   -0.497513   -2.263937
     35          1           0        4.873118    0.479339   -0.494432
 ---------------------------------------------------------------------

 SCF Done:  E(UB3LYP) =  -1292.88956302     A.U. after   33 cycles
 SCF Done:  E(UB3LYP) =  -1292.88956302     a.u. after    1 cycles

 The electronic state is 2-A.
 Alpha  occ. eigenvalues --  -88.76820 -19.03032 -19.02614 -18.94940 -14.27737
 Alpha  occ. eigenvalues --  -14.21653 -14.21452 -10.15316 -10.13363 -10.13111
 Alpha  occ. eigenvalues --  -10.12923 -10.11945 -10.11338 -10.08780 -10.07743
 Alpha  occ. eigenvalues --  -10.03881 -10.03831 -10.03574 -10.03555 -10.02767
 Alpha  occ. eigenvalues --   -7.85444  -5.81862  -5.81450  -5.80803  -0.95927
 Alpha  occ. eigenvalues --   -0.95836  -0.94889  -0.86421  -0.82252  -0.74648
 Alpha  occ. eigenvalues --   -0.72324  -0.69960  -0.64747  -0.62921  -0.61915
 Alpha  occ. eigenvalues --   -0.61719  -0.60360  -0.54839  -0.50902  -0.49539
 Alpha  occ. eigenvalues --   -0.48150  -0.46718  -0.44815  -0.42214  -0.40602
 Alpha  occ. eigenvalues --   -0.39249  -0.38077  -0.37567  -0.35842  -0.34774
 Alpha  occ. eigenvalues --   -0.34569  -0.33844  -0.32901  -0.32655  -0.31467
 Alpha  occ. eigenvalues --   -0.31080  -0.30645  -0.30408  -0.29839  -0.29331
 Alpha  occ. eigenvalues --   -0.28473  -0.27546  -0.26625  -0.24721  -0.24253
 Alpha  occ. eigenvalues --   -0.23542  -0.21131  -0.20963  -0.19589  -0.18828
 Alpha  occ. eigenvalues --   -0.18295  -0.18240  -0.16027  -0.13390  -0.12966
 Alpha  occ. eigenvalues --   -0.12441  -0.10426   0.04663
 Alpha virt. eigenvalues --    0.06734   0.07009   0.08413   0.08812   0.09341
 Alpha virt. eigenvalues --    0.10032   0.10495   0.10751   0.11384   0.11569
 Alpha virt. eigenvalues --    0.11809   0.12007   0.12693   0.12821   0.13576

  Beta  occ. eigenvalues --  -88.76818 -19.02954 -19.02559 -18.94657 -14.27735
  Beta  occ. eigenvalues --  -14.21647 -14.21443 -10.15316 -10.13365 -10.12909
  Beta  occ. eigenvalues --  -10.12792 -10.11937 -10.11318 -10.08373 -10.07723
  Beta  occ. eigenvalues --  -10.03981 -10.03925 -10.03417 -10.03360 -10.02647
  Beta  occ. eigenvalues --   -7.85442  -5.81861  -5.81449  -5.80800  -0.95826
  Beta  occ. eigenvalues --   -0.95625  -0.94667  -0.85992  -0.82241  -0.74627
  Beta  occ. eigenvalues --   -0.72033  -0.69898  -0.64589  -0.62810  -0.61818
  Beta  occ. eigenvalues --   -0.61477  -0.60145  -0.54677  -0.50534  -0.49371
  Beta  occ. eigenvalues --   -0.48005  -0.46690  -0.44637  -0.42051  -0.40569
  Beta  occ. eigenvalues --   -0.39185  -0.37912  -0.37395  -0.35737  -0.34612
  Beta  occ. eigenvalues --   -0.34407  -0.33803  -0.32856  -0.32568  -0.31260
  Beta  occ. eigenvalues --   -0.30648  -0.30371  -0.30319  -0.29373  -0.29111
  Beta  occ. eigenvalues --   -0.28251  -0.27354  -0.26301  -0.24513  -0.23929
  Beta  occ. eigenvalues --   -0.23371  -0.20958  -0.20711  -0.19363  -0.18569
  Beta  occ. eigenvalues --   -0.18242  -0.17143  -0.16012  -0.13108  -0.12652
  Beta  occ. eigenvalues --   -0.12083  -0.09135
  Beta virt. eigenvalues --    0.06980   0.07137   0.08545   0.08782   0.09357
  Beta virt. eigenvalues --    0.10039   0.10326   0.10536   0.10726   0.11521
  Beta virt. eigenvalues --    0.11685   0.11856   0.12158   0.12718   0.12911

 Mulliken charges and spin densities:
               1          2
     1  C   -0.086046  -0.562419
     2  C   -0.239887   0.242236
     3  N    0.030347   0.018119
     4  N   -0.226340  -0.001779
     5  C    0.216987   0.031747
     6  N    0.051651   0.082081
     7  C    0.187186  -0.455869
     8  S    0.084854  -0.057866
     9  C   -0.858006   0.011445
    10  C    0.015268   0.001147
    11  O   -0.018295   0.013468
    12  C   -0.882103   0.209057
    13  C   -0.232106  -0.066854
    14  C   -0.489929   0.299143
    15  C    0.215801  -0.054949
    16  C    0.100845   0.177869
    17  C    0.218149  -0.048308
    18  C   -0.278031   0.119253
    19  O   -0.396683   0.110311
    20  O   -0.207405   0.017735
    21  H    0.125832   0.041180
    22  H    0.152099   0.059396
    23  H   -0.153295   0.320858
    24  H    0.088543   0.057110
    25  H    0.088360   0.087720
    26  H   -0.138806   0.345172
    27  H    0.206849  -0.002182
    28  H    0.216287   0.005316
    29  H    0.153224   0.001203
    30  H    0.109854   0.000243
    31  H    0.130684   0.003612
    32  H    0.185541  -0.000720
    33  H    0.202600  -0.020279
    34  H    0.178716   0.003672
    35  H    0.247255   0.012131
 Sum of Mulliken charges =  -1.00000   1.00000

 Dipole moment (field-independent basis, Debye):
    X=             -5.8690    Y=              0.4244    Z=             -0.0588  Tot=              5.8846
 Quadrupole moment (field-independent basis, Debye-Ang):
   XX=           -165.0687   YY=           -161.1446   ZZ=           -146.5774
   XY=             17.1870   XZ=             -8.4595   YZ=              2.4449

 Summary of Natural Population Analysis:

                                       Natural Population
                Natural  -----------------------------------------------
    Atom  No    Charge         Core      Valence    Rydberg      Total
 -----------------------------------------------------------------------
      C    1   -0.31476      0.99962     2.30931    0.00583     3.31476
      C    2    0.19560      0.99961     1.78728    0.01751     2.80440
      N    3   -0.16773      0.99968     2.65543    0.01261     3.66773
      N    4   -0.18819      0.99965     2.67435    0.01418     3.68819
      C    5    0.10546      0.99954     1.87297    0.02204     2.89454
      N    6   -0.22008      0.99955     2.70786    0.01267     3.72008
      C    7   -0.18036      0.99963     2.17281    0.00792     3.18036
      S    8    0.12542      4.99952     2.85398    0.02108     7.87458
      C    9   -0.24867      0.99958     2.24122    0.00788     3.24867
      C   10   -0.01688      0.99954     2.00684    0.01050     3.01688
      O   11   -0.28056      0.99985     3.27046    0.01025     4.28056
      C   12    0.22302      0.99938     1.76295    0.01466     2.77698
      C   13   -0.15508      0.99952     2.14564    0.00991     3.15508
      C   14   -0.04425      0.99954     2.03539    0.00931     3.04425
      C   15   -0.08810      0.99945     2.07751    0.01114     3.08810
      C   16   -0.04057      0.99955     2.03129    0.00973     3.04057
      C   17   -0.17151      0.99952     2.16246    0.00953     3.17151
      C   18    0.42805      0.99964     1.54544    0.02687     2.57195
      O   19   -0.30678      0.99987     3.30124    0.00567     4.30678
      O   20   -0.35825      0.99988     3.35209    0.00628     4.35825
      H   21    0.11379      0.00000     0.38526    0.00095     0.38621
      H   22    0.12157      0.00000     0.37677    0.00165     0.37843
      H   23    0.10465      0.00000     0.39415    0.00120     0.39535
      H   24    0.11667      0.00000     0.38201    0.00132     0.38333
      H   25    0.11087      0.00000     0.38785    0.00128     0.38913
      H   26    0.09502      0.00000     0.40398    0.00100     0.40498
      H   27    0.10427      0.00000     0.39479    0.00094     0.39573
      H   28    0.10716      0.00000     0.39169    0.00115     0.39284
      H   29    0.08624      0.00000     0.41266    0.00109     0.41376
      H   30    0.10307      0.00000     0.39562    0.00131     0.39693
      H   31    0.09923      0.00000     0.39988    0.00089     0.40077
      H   32    0.10510      0.00000     0.39405    0.00085     0.39490
      H   33    0.10241      0.00000     0.39647    0.00112     0.39759
      H   34    0.10181      0.00000     0.39694    0.00125     0.39819
      H   35    0.23233      0.00000     0.26420    0.00347     0.26767
 =======================================================================
   * Total *   -0.00000     23.99212    52.74284    0.26504    77.00000

 Normal termination of Gaussian 16 at Mon Dec 14 21:35:30 2020.
