 Gaussian 16, Revision A.03,

 -----------------------------------------------------------
 # opt freq B3LYP/6-31G(d) empiricaldispersion=gd3bj scf=xqc
 -----------------------------------------------------------

 ------------------------------
 CID_83823822_JID_5532_neutraal
 ------------------------------
 Symbolic Z-matrix:
 Charge =  0 Multiplicity = 1

 SCF Done:  E(RB3LYP) =  -1119.43735482     A.U. after   15 cycles
 SCF Done:  E(RB3LYP) =  -1119.44279497     A.U. after   12 cycles
 SCF Done:  E(RB3LYP) =  -1119.44330915     A.U. after   11 cycles
 SCF Done:  E(RB3LYP) =  -1119.44334533     A.U. after   10 cycles
 SCF Done:  E(RB3LYP) =  -1119.44329902     A.U. after   11 cycles
 SCF Done:  E(RB3LYP) =  -1119.44335320     A.U. after   10 cycles
 SCF Done:  E(RB3LYP) =  -1119.44335577     A.U. after    8 cycles
 SCF Done:  E(RB3LYP) =  -1119.44335745     A.U. after    9 cycles
 SCF Done:  E(RB3LYP) =  -1119.44335815     A.U. after    9 cycles
 SCF Done:  E(RB3LYP) =  -1119.44335871     A.U. after    9 cycles
 SCF Done:  E(RB3LYP) =  -1119.44335889     A.U. after    8 cycles
 Optimization completed.
    -- Stationary point found.
 Normal termination of Gaussian 16 at Mon Dec 14 16:30:45 2020.

 --------------------------------------------------------------------
 #N Geom=AllCheck Guess=TCheck SCRF=Check GenChk RB3LYP/6-31G(d) Freq
 --------------------------------------------------------------------

 Structure from the checkpoint file:  "JID_5532.chk"
 ------------------------------
 CID_83823822_JID_5532_neutraal
 ------------------------------
 Charge =  0 Multiplicity = 1

 SCF Done:  E(RB3LYP) =  -1119.44335889     A.U. after    1 cycles

  Exact polarizability: 151.963  -0.072 144.659   0.017  -0.017  75.061
 Approx polarizability: 226.417  -9.235 217.873   0.768   0.510 130.177

 ******    1 imaginary frequencies (negative Signs) ******

                      1                      2                      3
                      A                      A                      A
 Frequencies --     -0.7010                23.9444                40.9565
 Red. masses --      5.5552                11.7049                 2.2717
 Frc consts  --      0.0000                 0.0040                 0.0022
 IR Inten    --      3.3217                 2.6955                 0.3333

                      4                      5                      6
                      A                      A                      A
 Frequencies --     88.2066               108.1559               138.8718
 Red. masses --      4.9193                 5.9643                 5.1960
 Frc consts  --      0.0226                 0.0411                 0.0590
 IR Inten    --      0.0973                 3.7196                 4.2942

                      7                      8                      9
                      A                      A                      A
 Frequencies --    141.6719               174.6462               229.2647
 Red. masses --      4.4101                 3.1628                 4.0197
 Frc consts  --      0.0522                 0.0568                 0.1245
 IR Inten    --      1.2317                 0.6996                 2.4135

                     10                     11                     12
                      A                      A                      A
 Frequencies --    243.6440               260.0531               266.5336
 Red. masses --      1.1626                 5.9481                 5.3354
 Frc consts  --      0.0407                 0.2370                 0.2233
 IR Inten    --      0.1771                 0.2968                 0.0118

                     13                     14                     15
                      A                      A                      A
 Frequencies --    286.9204               315.7386               336.5075
 Red. masses --      1.1722                 4.5382                 4.0104
 Frc consts  --      0.0569                 0.2666                 0.2676
 IR Inten    --      0.0863                 0.5800                 0.5652

                     16                     17                     18
                      A                      A                      A
 Frequencies --    361.7950               433.7465               476.1010
 Red. masses --      6.2485                 7.1899                 6.8708
 Frc consts  --      0.4819                 0.7970                 0.9176
 IR Inten    --      9.8603                 7.2206                20.7511

                     19                     20                     21
                      A                      A                      A
 Frequencies --    498.0591               519.0205               553.7660
 Red. masses --      2.9636                 7.3315                 6.2269
 Frc consts  --      0.4331                 1.1636                 1.1251
 IR Inten    --      0.4062                82.7525                 2.1578

                     22                     23                     24
                      A                      A                      A
 Frequencies --    580.2094               590.9869               656.9933
 Red. masses --      4.6889                 3.6068                 1.4927
 Frc consts  --      0.9300                 0.7422                 0.3796
 IR Inten    --      6.9094                 0.9147               111.3345

                     25                     26                     27
                      A                      A                      A
 Frequencies --    676.8655               739.2145               748.7100
 Red. masses --      4.2945                 6.4079                 3.1478
 Frc consts  --      1.1592                 2.0630                 1.0397
 IR Inten    --    117.6747                56.1054                20.1779

                     28                     29                     30
                      A                      A                      A
 Frequencies --    795.6064               827.8037               845.8032
 Red. masses --      1.5205                 7.4793                 5.4986
 Frc consts  --      0.5671                 3.0197                 2.3176
 IR Inten    --     10.5340                 0.6316                17.3104

                     31                     32                     33
                      A                      A                      A
 Frequencies --    894.9286               905.6202               986.2806
 Red. masses --      1.3950                 5.1533                 1.3416
 Frc consts  --      0.6583                 2.4902                 0.7689
 IR Inten    --      9.8019                 7.0407                 1.0090

                     34                     35                     36
                      A                      A                      A
 Frequencies --    988.6473              1012.8532              1022.8489
 Red. masses --      1.5095                 8.1421                 1.8232
 Frc consts  --      0.8693                 4.9213                 1.1238
 IR Inten    --     30.2499                 5.5058                 2.7258

                     37                     38                     39
                      A                      A                      A
 Frequencies --   1095.0678              1118.5872              1125.5434
 Red. masses --      2.3876                 1.6036                 9.0233
 Frc consts  --      1.6869                 1.1822                 6.7350
 IR Inten    --      4.1117                 0.3125               117.2054

                     40                     41                     42
                      A                      A                      A
 Frequencies --   1181.5203              1191.5910              1269.3120
 Red. masses --      1.7854                 2.6721                 6.5587
 Frc consts  --      1.4685                 2.2354                 6.2259
 IR Inten    --    114.8117               207.3022                11.5993

                     43                     44                     45
                      A                      A                      A
 Frequencies --   1301.4374              1306.7530              1332.6869
 Red. masses --      1.1579                 2.8535                16.4482
 Frc consts  --      1.1555                 2.8708                17.2117
 IR Inten    --      0.0223                16.0140               177.9296

                     46                     47                     48
                      A                      A                      A
 Frequencies --   1352.6922              1372.9404              1375.9075
 Red. masses --      4.2563                 1.3785                 1.5409
 Frc consts  --      4.5886                 1.5309                 1.7187
 IR Inten    --     58.1856                 3.5522                54.8333

                     49                     50                     51
                      A                      A                      A
 Frequencies --   1444.1467              1445.1135              1470.2010
 Red. masses --      1.2937                 4.2584                 3.4169
 Frc consts  --      1.5896                 5.2396                 4.3514
 IR Inten    --     13.8459                16.3665                11.1628

                     52                     53                     54
                      A                      A                      A
 Frequencies --   1486.2416              1489.8439              1490.7054
 Red. masses --      1.0517                 1.0827                 1.0937
 Frc consts  --      1.3687                 1.4159                 1.4320
 IR Inten    --      8.2617                19.7552                15.4733

                     55                     56                     57
                      A                      A                      A
 Frequencies --   1533.6206              1537.4043              1591.0257
 Red. masses --      1.0392                 1.0552                 7.5796
 Frc consts  --      1.4401                 1.4694                11.3045
 IR Inten    --      8.9826                 9.3308               129.2844

                     58                     59                     60
                      A                      A                      A
 Frequencies --   1618.8581              1848.3994              3051.5023
 Red. masses --      7.4875                10.7500                 1.0430
 Frc consts  --     11.5612                21.6396                 5.7220
 IR Inten    --    152.6064               236.7023                 6.1877

                     61                     62                     63
                      A                      A                      A
 Frequencies --   3056.7635              3082.7289              3085.7892
 Red. masses --      1.0560                 1.1011                 1.0294
 Frc consts  --      5.8138                 6.1654                 5.7754
 IR Inten    --     15.8421                 0.6112                 1.5955

                     64                     65                     66
                      A                      A                      A
 Frequencies --   3117.1896              3134.1802              3184.1534
 Red. masses --      1.1029                 1.1003                 1.1055
 Frc consts  --      6.3143                 6.3680                 6.6037
 IR Inten    --     30.2262                24.5789                 0.4350

                     67                     68                     69
                      A                      A                      A
 Frequencies --   3193.6538              3263.5763              3694.6181
 Red. masses --      1.1088                 1.0907                 1.0641
 Frc consts  --      6.6632                 6.8444                 8.5581
 IR Inten    --      1.2461                 0.6805                76.0753

 - Thermochemistry -
 -------------------
 Temperature   298.150 Kelvin.  Pressure   1.00000 Atm.
 Atom     1 has atomic number  6 and mass  12.00000

 Molecular mass:   230.03613 amu.
 Principal axes and moments of inertia in atomic units:
                           1         2         3
     Eigenvalues --  2980.457354155.989446728.50209
           X            0.99980   0.02022  -0.00103
           Y           -0.02022   0.99980  -0.00021
           Z            0.00103   0.00023   1.00000
 This molecule is an asymmetric top.
 Rotational symmetry number  1.
 Warning -- assumption of classical behavior for rotation
           may cause significant error
 Rotational temperatures (Kelvin)      0.02906     0.02084     0.01287
 Rotational constants (GHZ):           0.60552     0.43425     0.26822
    1 imaginary frequencies ignored.
 Zero-point vibrational energy     488164.5 (Joules/Mol)
                                  116.67411 (Kcal/Mol)
 Warning -- explicit consideration of  22 degrees of freedom as
           vibrations may cause significant error
 Vibrational temperatures:     34.45    58.93   126.91   155.61   199.81
          (Kelvin)            203.83   251.28   329.86   350.55   374.16
                              383.48   412.81   454.28   484.16   520.54
                              624.06   685.00   716.60   746.75   796.75
                              834.79   850.30   945.27   973.86  1063.56
                             1077.23  1144.70  1191.02  1216.92  1287.60
                             1302.99  1419.04  1422.44  1457.27  1471.65
                             1575.56  1609.40  1619.41  1699.94  1714.43
                             1826.26  1872.48  1880.13  1917.44  1946.22
                             1975.35  1979.62  2077.81  2079.20  2115.29
                             2138.37  2143.55  2144.79  2206.54  2211.98
                             2289.13  2329.18  2659.43  4390.43  4398.00
                             4435.36  4439.76  4484.94  4509.39  4581.29
                             4594.96  4695.56  5315.73

 Zero-point correction=                           0.185932 (Hartree/Particle)
 Thermal correction to Energy=                    0.200041
 Thermal correction to Enthalpy=                  0.200985
 Thermal correction to Gibbs Free Energy=         0.143547
 Sum of electronic and zero-point Energies=          -1119.257427
 Sum of electronic and thermal Energies=             -1119.243318
 Sum of electronic and thermal Enthalpies=           -1119.242374
 Sum of electronic and thermal Free Energies=        -1119.299812

                     E (Thermal)             CV                S
                      KCal/Mol        Cal/Mol-Kelvin    Cal/Mol-Kelvin
 Total                  125.527             52.049            120.888
 Electronic               0.000              0.000              0.000
 Translational            0.889              2.981             42.201
 Rotational               0.889              2.981             32.788
 Vibrational            123.750             46.087             45.899
 Vibration     1          0.593              1.985              6.277
 Vibration     2          0.594              1.981              5.212
 Vibration     3          0.601              1.957              3.699
 Vibration     4          0.606              1.943              3.302
 Vibration     5          0.614              1.914              2.819
 Vibration     6          0.615              1.912              2.781
 Vibration     7          0.627              1.874              2.385
 Vibration     8          0.652              1.796              1.885
 Vibration     9          0.659              1.773              1.776
 Vibration    10          0.668              1.746              1.661
 Vibration    11          0.672              1.735              1.619
 Vibration    12          0.684              1.698              1.492
 Vibration    13          0.703              1.644              1.332
 Vibration    14          0.717              1.603              1.229
 Vibration    15          0.736              1.551              1.114
 Vibration    16          0.794              1.397              0.846
 Vibration    17          0.833              1.303              0.721
 Vibration    18          0.854              1.254              0.663
 Vibration    19          0.874              1.208              0.612
 Vibration    20          0.909              1.131              0.536
 Vibration    21          0.937              1.074              0.485
 Vibration    22          0.948              1.051              0.465

                           ! Non-Optimized Parameters !
 Normal termination of Gaussian 16 at Mon Dec 14 16:37:24 2020.

 ----------------------------------------------------------------------
 # B3LYP/6-311++G(d,p) empiricaldispersion=gd3bj scf=xqc pop=npa geom=c
 heck
 ----------------------------------------------------------------------

 --------------------------------------
 CID_83823822_JID_5532_Energie_neutraal
 --------------------------------------
 Structure from the checkpoint file:  "JID_5532.chk"
 Charge =  0 Multiplicity = 1

 SCF Done:  E(RB3LYP) =  -1119.68155135     A.U. after   16 cycles
 Normal termination of Gaussian 16 at Mon Dec 14 16:40:35 2020.

 ----------------------------------------------------------------------
 # B3LYP/6-311++G(d,p) empiricaldispersion=gd3bj scf=xqc pop=npa geom=c
 heck
 ----------------------------------------------------------------------

 ------------------------------------
 CID_83823822_JID_5532_Energie_kation
 ------------------------------------
 Structure from the checkpoint file:  "JID_5532.chk"
 Charge =  1 Multiplicity = 2

 SCF Done:  E(UB3LYP) =  -1119.33065756     A.U. after   29 cycles
 Normal termination of Gaussian 16 at Mon Dec 14 16:48:41 2020.
 Gaussian 16:  ES64L-G16RevA.03 25-Dec-2016

 ----------------------------------------------------------------------
 # B3LYP/6-311++G(d,p) empiricaldispersion=gd3bj scf=xqc pop=npa geom=c
 heck
 ----------------------------------------------------------------------

 -----------------------------------
 CID_83823822_JID_5532_Energie_anion
 -----------------------------------
 Structure from the checkpoint file:  "JID_5532.chk"
 Charge = -1 Multiplicity = 2

                         Standard orientation:
 ---------------------------------------------------------------------
 Center     Atomic      Atomic             Coordinates (Angstroms)
 Number     Number       Type             X           Y           Z
 ---------------------------------------------------------------------
      1          6           0       -0.337171    4.141451    0.005802
      2          6           0       -1.442129    3.086238    0.001820
      3          6           0       -0.983910    1.648279    0.000854
      4          6           0        0.365626    1.268433    0.002533
      5          6           0        0.621327   -0.098003   -0.000590
      6          7           0       -0.329251   -1.021944   -0.002488
      7          6           0       -1.582949   -0.557083   -0.002039
      8          7           0       -1.954760    0.723070   -0.001800
      9          6           0       -2.712707   -1.565422   -0.003528
     10          8           0       -3.882504   -1.262556   -0.012744
     11          8           0       -2.259829   -2.832047    0.006797
     12         16           0        2.301238   -0.817747    0.009302
     13          8           0        2.501256   -1.444581    1.320129
     14          8           0        2.459575   -1.578288   -1.233958
     15          6           0        3.401663    0.612748   -0.085273
     16          1           0        0.298793    4.058943    0.894695
     17          1           0       -0.774651    5.143901    0.006340
     18          1           0        0.302685    4.061660   -0.880574
     19          1           0       -2.098785    3.213626    0.871670
     20          1           0       -2.095012    3.216129   -0.870526
     21          1           0        1.154954    2.006860    0.006004
     22          1           0       -3.054790   -3.397387    0.004805
     23          1           0        3.223119    1.163577   -1.010318
     24          1           0        3.278607    1.243444    0.796671
     25          1           0        4.406872    0.185249   -0.096846
 ---------------------------------------------------------------------

 SCF Done:  E(UB3LYP) =  -1119.71856414     A.U. after   27 cycles

 The electronic state is 2-A.
 Alpha  occ. eigenvalues --  -88.92425 -19.02216 -18.99235 -18.99216 -18.95372
 Alpha  occ. eigenvalues --  -14.18039 -14.14681 -10.13888 -10.10657 -10.09193
 Alpha  occ. eigenvalues --  -10.09191 -10.07816 -10.07174 -10.06732 -10.04096
 Alpha  occ. eigenvalues --   -7.98878  -5.95122  -5.95083  -5.94957  -0.98686
 Alpha  occ. eigenvalues --   -0.96233  -0.88374  -0.86955  -0.84374  -0.75350
 Alpha  occ. eigenvalues --   -0.68972  -0.67132  -0.64108  -0.55899  -0.55827
 Alpha  occ. eigenvalues --   -0.53146  -0.46195  -0.45868  -0.40751  -0.39098
 Alpha  occ. eigenvalues --   -0.36402  -0.36001  -0.35525  -0.35083  -0.34219
 Alpha  occ. eigenvalues --   -0.33432  -0.32241  -0.32164  -0.31499  -0.31465
 Alpha  occ. eigenvalues --   -0.28071  -0.27216  -0.26120  -0.25648  -0.24367
 Alpha  occ. eigenvalues --   -0.21564  -0.20962  -0.19180  -0.18282  -0.18017
 Alpha  occ. eigenvalues --   -0.16640  -0.16544  -0.15118  -0.13215  -0.10677
 Alpha  occ. eigenvalues --    0.02590
 Alpha virt. eigenvalues --    0.06630   0.07884   0.08417   0.09970   0.10078
 Alpha virt. eigenvalues --    0.10155   0.10991   0.12298   0.12770   0.13607
 Alpha virt. eigenvalues --    0.14735   0.15466   0.16163   0.16260   0.16284

  Beta  occ. eigenvalues --  -88.92429 -19.02136 -18.99204 -18.99186 -18.95135
  Beta  occ. eigenvalues --  -14.18165 -14.14137 -10.13742 -10.10660 -10.09307
  Beta  occ. eigenvalues --  -10.08914 -10.07461 -10.07170 -10.06727 -10.03750
  Beta  occ. eigenvalues --   -7.98882  -5.95121  -5.95086  -5.94968  -0.98626
  Beta  occ. eigenvalues --   -0.95974  -0.88301  -0.86586  -0.83895  -0.74831
  Beta  occ. eigenvalues --   -0.68622  -0.67078  -0.63697  -0.55766  -0.55115
  Beta  occ. eigenvalues --   -0.52830  -0.46076  -0.45584  -0.40628  -0.38913
  Beta  occ. eigenvalues --   -0.36346  -0.35948  -0.35456  -0.34840  -0.33982
  Beta  occ. eigenvalues --   -0.33158  -0.32121  -0.32006  -0.31342  -0.30328
  Beta  occ. eigenvalues --   -0.27354  -0.27108  -0.26029  -0.25274  -0.24195
  Beta  occ. eigenvalues --   -0.21443  -0.20470  -0.18934  -0.17941  -0.17287
  Beta  occ. eigenvalues --   -0.16360  -0.15354  -0.12907  -0.12865  -0.10284
  Beta virt. eigenvalues --    0.06592   0.07855   0.08786   0.09313   0.09959
  Beta virt. eigenvalues --    0.10153   0.10362   0.10992   0.12323   0.12731
  Beta virt. eigenvalues --    0.13574   0.14741   0.15431   0.16180   0.16274

 Mulliken charges and spin densities:
               1          2
     1  C   -0.520523  -0.018306
     2  C   -0.213993  -0.005340
     3  C    0.048116  -0.132161
     4  C    0.396582   0.357442
     5  C   -2.012233   0.162630
     6  N    0.195761  -0.081284
     7  C   -0.832560   0.240206
     8  N   -0.017590   0.257537
     9  C    0.350760   0.109097
    10  O   -0.373033   0.084059
    11  O   -0.183959   0.018682
    12  S    1.641928   0.005714
    13  O   -0.091051   0.005235
    14  O   -0.112299   0.007431
    15  C   -0.931677  -0.002372
    16  H    0.125008   0.007242
    17  H    0.140984  -0.000187
    18  H    0.123093   0.007001
    19  H    0.156801  -0.001703
    20  H    0.156263  -0.001690
    21  H    0.104107  -0.025438
    22  H    0.267712  -0.000912
    23  H    0.191109   0.003341
    24  H    0.184882   0.004099
    25  H    0.205815  -0.000322
 Sum of Mulliken charges =  -1.00000   1.00000

 Dipole moment (field-independent basis, Debye):
    X=              4.6486    Y=              6.1117    Z=             -0.1949  Tot=              7.6811
 Quadrupole moment (field-independent basis, Debye-Ang):
   XX=           -133.2983   YY=           -110.0807   ZZ=           -106.1188
   XY=             11.9510   XZ=             -0.8965   YZ=             -0.1460

 Summary of Natural Population Analysis:

                                       Natural Population
                Natural  -----------------------------------------------
    Atom  No    Charge         Core      Valence    Rydberg      Total
 -----------------------------------------------------------------------
      C    1   -0.28773      0.99968     2.28425    0.00381     3.28773
      C    2   -0.20427      0.99960     2.19688    0.00779     3.20427
      C    3    0.10401      0.99955     1.88318    0.01325     2.89599
      C    4   -0.09786      0.99944     2.09061    0.00781     3.09786
      C    5    0.05621      0.99940     1.92383    0.02056     2.94379
      N    6   -0.24460      0.99964     2.73485    0.01011     3.74460
      C    7    0.21949      0.99955     1.76345    0.01750     2.78051
      N    8   -0.15755      0.99964     2.64623    0.01167     3.65755
      C    9    0.40155      0.99972     1.57357    0.02516     2.59845
      O   10   -0.29169      0.99987     3.28446    0.00736     4.29169
      O   11   -0.33375      0.99988     3.32757    0.00630     4.33375
      S   12    1.01560      4.99925     1.88699    0.09816     6.98440
      O   13   -0.46489      0.99991     3.45871    0.00627     4.46489
      O   14   -0.46408      0.99991     3.45791    0.00626     4.46408
      C   15   -0.40264      0.99961     2.39588    0.00714     3.40264
      H   16    0.09605      0.00000     0.40290    0.00105     0.40395
      H   17    0.09458      0.00000     0.40458    0.00084     0.40542
      H   18    0.09588      0.00000     0.40306    0.00106     0.40412
      H   19    0.10422      0.00000     0.39450    0.00128     0.39578
      H   20    0.10414      0.00000     0.39458    0.00128     0.39586
      H   21    0.09547      0.00000     0.40328    0.00124     0.40453
      H   22    0.22445      0.00000     0.26966    0.00589     0.27555
      H   23    0.11247      0.00000     0.38625    0.00128     0.38753
      H   24    0.11199      0.00000     0.38673    0.00128     0.38801
      H   25    0.11293      0.00000     0.38547    0.00160     0.38707
 =======================================================================
   * Total *    0.00000     18.99464    40.73940    0.26596    60.00000

 Normal termination of Gaussian 16 at Mon Dec 14 16:56:15 2020.
