 Gaussian 16, Revision A.03,

 -----------------------------------------------------------
 # opt freq B3LYP/6-31G(d) empiricaldispersion=gd3bj scf=xqc
 -----------------------------------------------------------

 -----------------------------
 CID_130747059_JID_11_neutraal
 -----------------------------
 Symbolic Z-matrix:
 Charge =  0 Multiplicity = 1

 SCF Done:  E(RB3LYP) =  -427.841413288     A.U. after   15 cycles
 SCF Done:  E(RB3LYP) =  -427.843511539     A.U. after   13 cycles
 SCF Done:  E(RB3LYP) =  -427.843576005     A.U. after   13 cycles
 SCF Done:  E(RB3LYP) =  -427.843435352     A.U. after   12 cycles
 SCF Done:  E(RB3LYP) =  -427.844083087     A.U. after   12 cycles
 SCF Done:  E(RB3LYP) =  -427.844124487     A.U. after   11 cycles
 SCF Done:  E(RB3LYP) =  -427.844132896     A.U. after   10 cycles
 SCF Done:  E(RB3LYP) =  -427.844133592     A.U. after    9 cycles
 SCF Done:  E(RB3LYP) =  -427.844133630     A.U. after    7 cycles
 Optimization completed.
    -- Stationary point found.

 1\1\GINC-NODE371\FOpt\RB3LYP\6-31G(d)\C9H16O1\VSC10255\08-Dec-2020\0\\
 # opt freq B3LYP/6-31G(d) empiricaldispersion=gd3bj scf=xqc\\CID_13074
 7059_JID_11_neutraal\\0,1\C,0.9373213325,0.0355825479,0.1911403902\C,0
 .8779144016,-1.500764521,0.1042792382\C,1.3901801103,-2.1548467473,1.3
 640169952\C,0.521649451,-2.6843220013,2.2528048719\C,0.8834893471,-3.2
 839028118,3.5386190749\O,0.072225131,-3.7791733791,4.3040388246\C,2.89
 30110067,-2.1700166874,1.550690298\C,3.5429585892,-3.5479169235,1.2693
 662263\C,3.2300071368,-4.0606030454,-0.1402434596\C,5.054721533,-3.469

 Normal termination of Gaussian 16 at Tue Dec  8 10:14:55 2020.

 --------------------------------------------------------------------
 #N Geom=AllCheck Guess=TCheck SCRF=Check GenChk RB3LYP/6-31G(d) Freq
 --------------------------------------------------------------------

 Structure from the checkpoint file:  "JID_11.chk"
 -----------------------------
 CID_130747059_JID_11_neutraal
 -----------------------------
 Charge =  0 Multiplicity = 1

 SCF Done:  E(RB3LYP) =  -427.844133630     A.U. after    1 cycles

  Exact polarizability: 109.778 -11.567 113.748   6.292   1.467  77.414
 Approx polarizability: 154.663 -35.731 167.590  12.867  -1.476 111.318

                      1                      2                      3
                      A                      A                      A
 Frequencies --     56.4967                71.2210                76.7327
 Red. masses --      3.1201                 3.1821                 2.7441
 Frc consts  --      0.0059                 0.0095                 0.0095
 IR Inten    --      1.4173                 1.4871                 0.2794

                      4                      5                      6
                      A                      A                      A
 Frequencies --    115.6731               175.0898               194.8806
 Red. masses --      3.0741                 3.3216                 2.2575
 Frc consts  --      0.0242                 0.0600                 0.0505
 IR Inten    --      0.8397                 1.5356                 2.5447

                      7                      8                      9
                      A                      A                      A
 Frequencies --    213.5874               238.6322               251.0332
 Red. masses --      1.7232                 1.0561                 1.4843
 Frc consts  --      0.0463                 0.0354                 0.0551
 IR Inten    --      2.5117                 0.0583                 1.0381

                     10                     11                     12
                      A                      A                      A
 Frequencies --    282.3661               299.0812               322.1915
 Red. masses --      1.1674                 2.5484                 2.7180
 Frc consts  --      0.0548                 0.1343                 0.1662
 IR Inten    --      0.5932                 1.0156                 0.6925

                     13                     14                     15
                      A                      A                      A
 Frequencies --    368.7322               401.9712               425.5799
 Red. masses --      2.2744                 2.5647                 1.9962
 Frc consts  --      0.1822                 0.2442                 0.2130
 IR Inten    --      2.2692                 1.2813                 0.2769

                     16                     17                     18
                      A                      A                      A
 Frequencies --    478.8030               567.0377               659.8559
 Red. masses --      2.9176                 3.4444                 3.2677
 Frc consts  --      0.3941                 0.6525                 0.8383
 IR Inten    --      5.3912                 4.2906                 4.3874

                     19                     20                     21
                      A                      A                      A
 Frequencies --    812.7279               824.1973               854.3032
 Red. masses --      1.2476                 2.4770                 2.5055
 Frc consts  --      0.4855                 0.9914                 1.0774
 IR Inten    --      1.5225                 1.9049                 4.1830

                     22                     23                     24
                      A                      A                      A
 Frequencies --    898.4426               911.9226               944.0209
 Red. masses --      1.2870                 1.5090                 1.1907
 Frc consts  --      0.6121                 0.7393                 0.6252
 IR Inten    --      7.8511                 6.6127                 1.0273

                     25                     26                     27
                      A                      A                      A
 Frequencies --    966.3784               975.9882               987.5851
 Red. masses --      1.8813                 1.7577                 1.8248
 Frc consts  --      1.0351                 0.9865                 1.0486
 IR Inten    --      1.0373                 0.4667                 1.1304

                     28                     29                     30
                      A                      A                      A
 Frequencies --   1019.7856              1069.1723              1094.6346
 Red. masses --      1.8303                 1.9376                 1.5496
 Frc consts  --      1.1215                 1.3050                 1.0940
 IR Inten    --      2.7558                 8.5503                 0.8044

                     31                     32                     33
                      A                      A                      A
 Frequencies --   1117.1288              1153.8672              1166.2626
 Red. masses --      2.2301                 2.2137                 2.0331
 Frc consts  --      1.6397                 1.7365                 1.6293
 IR Inten    --     33.3587                 1.9425                26.3623

                     34                     35                     36
                      A                      A                      A
 Frequencies --   1205.3552              1219.3426              1279.9954
 Red. masses --      1.8058                 1.9417                 1.2635
 Frc consts  --      1.5458                 1.7010                 1.2196
 IR Inten    --     17.1138                22.6593                 1.0102

                     37                     38                     39
                      A                      A                      A
 Frequencies --   1291.0019              1322.8427              1364.0563
 Red. masses --      1.2694                 1.2570                 1.4216
 Frc consts  --      1.2466                 1.2960                 1.5584
 IR Inten    --      0.3385                 1.7763                 0.8771

                     40                     41                     42
                      A                      A                      A
 Frequencies --   1373.0119              1386.1871              1390.7561
 Red. masses --      1.5008                 1.3298                 1.5397
 Frc consts  --      1.6670                 1.5055                 1.7546
 IR Inten    --      2.2438                 9.7024                 7.7012

                     43                     44                     45
                      A                      A                      A
 Frequencies --   1430.8183              1436.4529              1448.8105
 Red. masses --      1.2786                 1.2144                 1.2544
 Frc consts  --      1.5423                 1.4763                 1.5513
 IR Inten    --      6.6338                 1.7337                 1.9059

                     46                     47                     48
                      A                      A                      A
 Frequencies --   1451.3262              1515.6650              1516.7618
 Red. masses --      1.2904                 1.0692                 1.0564
 Frc consts  --      1.6014                 1.4472                 1.4318
 IR Inten    --     13.1358                 1.8129                 1.5535

                     49                     50                     51
                      A                      A                      A
 Frequencies --   1521.9054              1527.7446              1532.9471
 Red. masses --      1.0477                 1.0411                 1.0799
 Frc consts  --      1.4297                 1.4317                 1.4951
 IR Inten    --      1.6857                 6.3063                 3.4462

                     52                     53                     54
                      A                      A                      A
 Frequencies --   1534.7073              1538.8801              1542.3415
 Red. masses --      1.0547                 1.0780                 1.0511
 Frc consts  --      1.4636                 1.5041                 1.4731
 IR Inten    --      1.5147                 3.2113                11.5913

                     55                     56                     57
                      A                      A                      A
 Frequencies --   1698.2242              1780.9063              2923.2621
 Red. masses --      6.7403                 8.7958                 1.0823
 Frc consts  --     11.4531                16.4365                 5.4492
 IR Inten    --     48.3191               307.5678                95.8066

                     58                     59                     60
                      A                      A                      A
 Frequencies --   3033.6401              3038.7208              3042.0056
 Red. masses --      1.0793                 1.0377                 1.0426
 Frc consts  --      5.8521                 5.6458                 5.6847
 IR Inten    --      1.0114                22.9070                10.2163

                     61                     62                     63
                      A                      A                      A
 Frequencies --   3046.3740              3051.6315              3055.2610
 Red. masses --      1.0607                 1.0566                 1.0367
 Frc consts  --      5.7996                 5.7975                 5.7017
 IR Inten    --     21.5942                26.1539                42.1827

                     64                     65                     66
                      A                      A                      A
 Frequencies --   3088.4614              3092.2601              3103.3573
 Red. masses --      1.1016                 1.1017                 1.1005
 Frc consts  --      6.1910                 6.2067                 6.2443
 IR Inten    --     13.1059                 9.3354                11.0843

                     67                     68                     69
                      A                      A                      A
 Frequencies --   3109.5523              3115.5256              3122.4691
 Red. masses --      1.1004                 1.1021                 1.1020
 Frc consts  --      6.2687                 6.3028                 6.3304
 IR Inten    --     55.5101                37.5120                42.6090

                     70                     71                     72
                      A                      A                      A
 Frequencies --   3124.5469              3131.1363              3176.2178
 Red. masses --      1.1023                 1.1039                 1.0897
 Frc consts  --      6.3406                 6.3765                 6.4773
 IR Inten    --     34.3926                30.6979                10.2201

 - Thermochemistry -
 -------------------
 Temperature   298.150 Kelvin.  Pressure   1.00000 Atm.
 Atom     1 has atomic number  6 and mass  12.00000

 Molecular mass:   140.12012 amu.
 Principal axes and moments of inertia in atomic units:
                           1         2         3
     Eigenvalues --  1528.808741867.416992890.45641
           X            0.97650   0.21550   0.00013
           Y           -0.21550   0.97650   0.00403
           Z            0.00074  -0.00396   0.99999
 This molecule is an asymmetric top.
 Rotational symmetry number  1.
 Warning -- assumption of classical behavior for rotation
           may cause significant error
 Rotational temperatures (Kelvin)      0.05665     0.04638     0.02997
 Rotational constants (GHZ):           1.18049     0.96644     0.62438
 Zero-point vibrational energy     613444.1 (Joules/Mol)
                                  146.61666 (Kcal/Mol)
 Warning -- explicit consideration of  17 degrees of freedom as
           vibrations may cause significant error
 Vibrational temperatures:     81.29   102.47   110.40   166.43   251.92
          (Kelvin)            280.39   307.30   343.34   361.18   406.26
                              430.31   463.56   530.52   578.35   612.31
                              688.89   815.84   949.39  1169.33  1185.84
                             1229.15  1292.66  1312.05  1358.24  1390.40
                             1404.23  1420.91  1467.24  1538.30  1574.94
                             1607.30  1660.16  1677.99  1734.24  1754.36
                             1841.63  1857.46  1903.28  1962.57  1975.46
                             1994.41  2000.99  2058.63  2066.74  2084.52
                             2088.13  2180.70  2182.28  2189.68  2198.08
                             2205.57  2208.10  2214.11  2219.09  2443.37
                             2562.33  4205.92  4364.73  4372.04  4376.77
                             4383.05  4390.62  4395.84  4443.61  4449.07
                             4465.04  4473.95  4482.55  4492.54  4495.53
                             4505.01  4569.87

 Zero-point correction=                           0.233649 (Hartree/Particle)
 Thermal correction to Energy=                    0.245811
 Thermal correction to Enthalpy=                  0.246756
 Thermal correction to Gibbs Free Energy=         0.195480
 Sum of electronic and zero-point Energies=           -427.610485
 Sum of electronic and thermal Energies=              -427.598322
 Sum of electronic and thermal Enthalpies=            -427.597378
 Sum of electronic and thermal Free Energies=         -427.648654

                     E (Thermal)             CV                S
                      KCal/Mol        Cal/Mol-Kelvin    Cal/Mol-Kelvin
 Total                  154.249             44.023            107.920
 Electronic               0.000              0.000              0.000
 Translational            0.889              2.981             40.724
 Rotational               0.889              2.981             30.491
 Vibrational            152.472             38.062             36.706
 Vibration     1          0.596              1.975              4.576
 Vibration     2          0.598              1.968              4.119
 Vibration     3          0.599              1.965              3.973
 Vibration     4          0.608              1.936              3.171
 Vibration     5          0.627              1.873              2.380
 Vibration     6          0.636              1.847              2.181
 Vibration     7          0.644              1.820              2.013
 Vibration     8          0.657              1.781              1.813
 Vibration     9          0.663              1.761              1.723
 Vibration    10          0.681              1.706              1.519
 Vibration    11          0.692              1.675              1.422
 Vibration    12          0.707              1.631              1.299
 Vibration    13          0.741              1.537              1.085
 Vibration    14          0.768              1.466              0.955
 Vibration    15          0.787              1.415              0.873
 Vibration    16          0.835              1.297              0.713
 Vibration    17          0.923              1.103              0.510

 Optimization completed.
    -- Stationary point found.

 1\1\GINC-NODE371\Freq\RB3LYP\6-31G(d)\C9H16O1\VSC10255\08-Dec-2020\0\\
 #N Geom=AllCheck Guess=TCheck SCRF=Check GenChk RB3LYP/6-31G(d) Freq\\
 CID_130747059_JID_11_neutraal\\0,1\C,0.9373213325,0.0355825479,0.19114
 03902\C,0.8779144016,-1.500764521,0.1042792382\C,1.3901801103,-2.15484
 67473,1.3640169952\C,0.521649451,-2.6843220013,2.2528048719\C,0.883489
 3471,-3.2839028118,3.5386190749\O,0.072225131,-3.7791733791,4.30403882
 46\C,2.8930110067,-2.1700166874,1.550690298\C,3.5429585892,-3.54791692
 35,1.2693662263\C,3.2300071368,-4.0606030454,-0.1402434596\C,5.0547215

 Normal termination of Gaussian 16 at Tue Dec  8 10:19:25 2020.

 ----------------------------------------------------------------------
 # B3LYP/6-311++G(d,p) empiricaldispersion=gd3bj scf=xqc pop=npa geom=c
 heck
 ----------------------------------------------------------------------

 -------------------------------------
 CID_130747059_JID_11_Energie_neutraal
 -------------------------------------
 Structure from the checkpoint file:  "JID_11.chk"
 Charge =  0 Multiplicity = 1

 SCF Done:  E(RB3LYP) =  -427.968742379     A.U. after   14 cycles
 Normal termination of Gaussian 16 at Tue Dec  8 10:22:13 2020.

 ----------------------------------------------------------------------
 # B3LYP/6-311++G(d,p) empiricaldispersion=gd3bj scf=xqc pop=npa geom=c
 heck
 ----------------------------------------------------------------------

 -----------------------------------
 CID_130747059_JID_11_Energie_kation
 -----------------------------------
 Structure from the checkpoint file:  "JID_11.chk"
 Charge =  1 Multiplicity = 2

 SCF Done:  E(UB3LYP) =  -427.632723051     A.U. after   33 cycles
 SCF Done:  E(UB3LYP) =  -427.633845790     a.u. after    8 cycles
 Normal termination of Gaussian 16 at Tue Dec  8 10:50:33 2020.
 Gaussian 16:  ES64L-G16RevA.03 25-Dec-2016

 ----------------------------------
 CID_130747059_JID_11_Energie_anion
 ----------------------------------
 Structure from the checkpoint file:  "JID_11.chk"
 Charge = -1 Multiplicity = 2

                         Standard orientation:
 ---------------------------------------------------------------------
 Center     Atomic      Atomic             Coordinates (Angstroms)
 Number     Number       Type             X           Y           Z
 ---------------------------------------------------------------------
      1          6           0        1.086449    2.923341   -0.615013
      2          6           0        0.721736    1.952927    0.523723
      3          6           0        0.613905    0.529132    0.035501
      4          6           0        1.604804   -0.351711    0.294090
      5          6           0        1.653572   -1.736631   -0.178521
      6          8           0        2.552930   -2.513103    0.099968
      7          6           0       -0.639209    0.176591   -0.738449
      8          6           0       -1.667782   -0.643911    0.079474
      9          6           0       -2.086055    0.069762    1.369243
     10          6           0       -2.885601   -0.970351   -0.791010
     11          1           0        2.062203    2.668217   -1.041028
     12          1           0        1.131155    3.952415   -0.243279
     13          1           0        0.347720    2.890392   -1.423337
     14          1           0        1.476952    2.021277    1.314413
     15          1           0       -0.236476    2.261446    0.961509
     16          1           0        2.463646   -0.045718    0.888757
     17          1           0        0.817719   -2.065301   -0.832025
     18          1           0       -1.126413    1.100710   -1.074924
     19          1           0       -0.389123   -0.385993   -1.644740
     20          1           0       -1.181449   -1.587809    0.361236
     21          1           0       -2.546452    1.041644    1.148527
     22          1           0       -2.820503   -0.527367    1.920875
     23          1           0       -1.230401    0.240690    2.030731
     24          1           0       -2.595220   -1.509466   -1.700214
     25          1           0       -3.603024   -1.592395   -0.244236
     26          1           0       -3.404685   -0.052808   -1.096237
 ---------------------------------------------------------------------

 SCF Done:  E(UB3LYP) =  -427.972299777     A.U. after   31 cycles

 The electronic state is 2-A.
 Alpha  occ. eigenvalues --  -18.91694 -10.05894 -10.05725 -10.05637 -10.04855
 Alpha  occ. eigenvalues --  -10.04028 -10.03658 -10.03580 -10.01542  -9.99744
 Alpha  occ. eigenvalues --   -0.85318  -0.70355  -0.66386  -0.60465  -0.57917
 Alpha  occ. eigenvalues --   -0.55706  -0.50776  -0.45494  -0.42475  -0.38468
 Alpha  occ. eigenvalues --   -0.35061  -0.33577  -0.33125  -0.31267  -0.30208
 Alpha  occ. eigenvalues --   -0.28315  -0.27897  -0.26706  -0.25389  -0.24704
 Alpha  occ. eigenvalues --   -0.23894  -0.23130  -0.22490  -0.21732  -0.21306
 Alpha  occ. eigenvalues --   -0.20494  -0.18712  -0.10648  -0.07659   0.05074
 Alpha virt. eigenvalues --    0.07447   0.08213   0.09479   0.10290   0.10907
 Alpha virt. eigenvalues --    0.11217   0.11700   0.12791   0.13282   0.13581
 Alpha virt. eigenvalues --    0.13979   0.14809   0.15138   0.15359   0.16580

  Beta  occ. eigenvalues --  -18.91162 -10.05844 -10.05725 -10.05389 -10.04854
  Beta  occ. eigenvalues --  -10.04060 -10.03693 -10.03505 -10.01051  -9.99742
  Beta  occ. eigenvalues --   -0.84367  -0.70122  -0.66035  -0.60204  -0.57904
  Beta  occ. eigenvalues --   -0.55515  -0.50417  -0.45387  -0.41788  -0.38162
  Beta  occ. eigenvalues --   -0.34945  -0.33422  -0.32948  -0.31085  -0.30137
  Beta  occ. eigenvalues --   -0.28298  -0.27713  -0.26512  -0.25056  -0.24332
  Beta  occ. eigenvalues --   -0.23795  -0.23004  -0.22041  -0.21233  -0.20488
  Beta  occ. eigenvalues --   -0.19510  -0.18492  -0.08691  -0.07203
  Beta virt. eigenvalues --    0.07390   0.08568   0.09331   0.10148   0.10910
  Beta virt. eigenvalues --    0.11000   0.11778   0.12473   0.12719   0.13164
  Beta virt. eigenvalues --    0.13671   0.14203   0.14769   0.15032   0.15440

 Mulliken charges and spin densities:
               1          2
     1  C    0.480633  -1.072268
     2  C   -0.856220   0.415426
     3  C    1.315033   0.228410
     4  C   -0.044959  -0.115370
     5  C   -0.282726   0.159993
     6  O   -0.392166   0.166361
     7  C   -1.040359  -0.106704
     8  C    0.428753   0.126006
     9  C   -0.596430  -0.189353
    10  C   -0.660456  -0.006635
    11  H    0.114158   0.015847
    12  H   -0.565082   0.698435
    13  H    0.030241   0.085000
    14  H   -0.059883   0.192587
    15  H   -0.089241   0.226580
    16  H    0.129790   0.011608
    17  H    0.047337  -0.009403
    18  H    0.113715  -0.009923
    19  H    0.126119   0.046361
    20  H    0.127184   0.030741
    21  H    0.084396   0.045973
    22  H    0.112908   0.004193
    23  H    0.126718   0.043027
    24  H    0.130584  -0.001159
    25  H    0.102440   0.010780
    26  H    0.117515   0.003488
 Sum of Mulliken charges =  -1.00000   1.00000

 Dipole moment (field-independent basis, Debye):
    X=             -6.7965    Y=              0.0455    Z=             -1.0465  Tot=              6.8768
 Quadrupole moment (field-independent basis, Debye-Ang):
   XX=            -96.9791   YY=           -116.9884   ZZ=            -77.0978
   XY=             10.6377   XZ=             -0.0571   YZ=             -0.7399

 Summary of Natural Population Analysis:

                                       Natural Population
                Natural  -----------------------------------------------
    Atom  No    Charge         Core      Valence    Rydberg      Total
 -----------------------------------------------------------------------
      C    1   -0.27561      0.99966     2.27095    0.00501     3.27561
      C    2   -0.20631      0.99960     2.19672    0.00999     3.20631
      C    3    0.10558      0.99950     1.88327    0.01165     2.89442
      C    4   -0.16664      0.99944     2.15548    0.01172     3.16664
      C    5    0.21848      0.99970     1.76151    0.02030     2.78152
      O    6   -0.25426      0.99988     3.24625    0.00813     4.25426
      C    7   -0.20895      0.99958     2.19967    0.00969     3.20895
      C    8   -0.10678      0.99962     2.09883    0.00833     3.10678
      C    9   -0.28575      0.99965     2.28131    0.00479     3.28575
      C   10   -0.28207      0.99966     2.27804    0.00437     3.28207
      H   11    0.09544      0.00000     0.40367    0.00088     0.40456
      H   12    0.09589      0.00000     0.40117    0.00295     0.40411
      H   13    0.09094      0.00000     0.40827    0.00078     0.40906
      H   14    0.09648      0.00000     0.40233    0.00119     0.40352
      H   15    0.09602      0.00000     0.40242    0.00156     0.40398
      H   16    0.09126      0.00000     0.40711    0.00163     0.40874
      H   17    0.02915      0.00000     0.46853    0.00232     0.47085
      H   18    0.09209      0.00000     0.40688    0.00104     0.40791
      H   19    0.10449      0.00000     0.39434    0.00116     0.39551
      H   20    0.09692      0.00000     0.40113    0.00195     0.40308
      H   21    0.09227      0.00000     0.40682    0.00091     0.40773
      H   22    0.09172      0.00000     0.40751    0.00077     0.40828
      H   23    0.10753      0.00000     0.39172    0.00075     0.39247
      H   24    0.09699      0.00000     0.40227    0.00073     0.40301
      H   25    0.09321      0.00000     0.40602    0.00077     0.40679
      H   26    0.09190      0.00000     0.40722    0.00088     0.40810
 =======================================================================
   * Total *   -0.00000      9.99629    28.88945    0.11426    39.00000

 Normal termination of Gaussian 16 at Tue Dec  8 10:56:06 2020.
