 Gaussian 16, Revision A.03,

 -----------------------------------------------------------
 # opt freq B3LYP/6-31G(d) empiricaldispersion=gd3bj scf=xqc
 -----------------------------------------------------------

 -------------------------------
 CID_123760303_JID_4322_neutraal
 -------------------------------
 Symbolic Z-matrix:
 Charge =  0 Multiplicity = 1

 SCF Done:  E(RB3LYP) =  -919.324497953     A.U. after   15 cycles
 SCF Done:  E(RB3LYP) =  -919.328496220     A.U. after   13 cycles
 SCF Done:  E(RB3LYP) =  -919.328826075     A.U. after   12 cycles
 SCF Done:  E(RB3LYP) =  -919.328875900     A.U. after   12 cycles
 SCF Done:  E(RB3LYP) =  -919.328930345     A.U. after   10 cycles
 SCF Done:  E(RB3LYP) =  -919.329007184     A.U. after   12 cycles
 SCF Done:  E(RB3LYP) =  -919.329043568     A.U. after   12 cycles
 SCF Done:  E(RB3LYP) =  -919.329080941     A.U. after   12 cycles
 SCF Done:  E(RB3LYP) =  -919.329070635     A.U. after   12 cycles
 SCF Done:  E(RB3LYP) =  -919.329106473     A.U. after   12 cycles
 SCF Done:  E(RB3LYP) =  -919.329112222     A.U. after   11 cycles
 SCF Done:  E(RB3LYP) =  -919.329112243     A.U. after    8 cycles
 SCF Done:  E(RB3LYP) =  -919.329112804     A.U. after    9 cycles
 SCF Done:  E(RB3LYP) =  -919.329112896     A.U. after    8 cycles
 SCF Done:  E(RB3LYP) =  -919.329112907     A.U. after    7 cycles
 Optimization completed.
    -- Stationary point found.
 Normal termination of Gaussian 16 at Thu Dec 10 09:28:21 2020.

 --------------------------------------------------------------------
 #N Geom=AllCheck Guess=TCheck SCRF=Check GenChk RB3LYP/6-31G(d) Freq
 --------------------------------------------------------------------

 Structure from the checkpoint file:  "JID_4322.chk"
 -------------------------------
 CID_123760303_JID_4322_neutraal
 -------------------------------
 Charge =  0 Multiplicity = 1

 SCF Done:  E(RB3LYP) =  -919.329112907     A.U. after    1 cycles

  Exact polarizability: 168.613  -3.740 142.878  15.856   3.016 128.455
 Approx polarizability: 248.232 -10.819 231.570  36.131   0.361 203.471

                      1                      2                      3
                      A                      A                      A
 Frequencies --     32.9749                50.9165                85.6246
 Red. masses --      5.6645                 2.9289                 3.9829
 Frc consts  --      0.0036                 0.0045                 0.0172
 IR Inten    --      1.5252                 0.3001                 1.0635

                      4                      5                      6
                      A                      A                      A
 Frequencies --     90.6035               138.8065               144.2934
 Red. masses --      2.9419                 4.1093                 2.3875
 Frc consts  --      0.0142                 0.0466                 0.0293
 IR Inten    --      2.1768                 0.5669                 0.4454

                      7                      8                      9
                      A                      A                      A
 Frequencies --    175.2619               212.7165               248.0485
 Red. masses --      2.4020                 2.2385                 2.5333
 Frc consts  --      0.0435                 0.0597                 0.0918
 IR Inten    --      0.7752                 1.6343                 1.9774

                     10                     11                     12
                      A                      A                      A
 Frequencies --    257.8334               318.4278               398.3558
 Red. masses --      1.5560                 2.9637                 3.1986
 Frc consts  --      0.0609                 0.1771                 0.2991
 IR Inten    --      1.0916                 3.7148                 0.1182

                     13                     14                     15
                      A                      A                      A
 Frequencies --    401.8372               451.2430               496.2447
 Red. masses --      3.7585                 3.9203                 3.7562
 Frc consts  --      0.3576                 0.4703                 0.5450
 IR Inten    --      0.5744                 4.7499                 7.7841

                     16                     17                     18
                      A                      A                      A
 Frequencies --    507.2794               531.3106               573.4412
 Red. masses --      3.1679                 4.4274                 2.9539
 Frc consts  --      0.4803                 0.7364                 0.5723
 IR Inten    --      3.5307                 4.2617                 2.3520

                     19                     20                     21
                      A                      A                      A
 Frequencies --    612.0264               656.4328               660.8831
 Red. masses --      6.1801                 2.5538                 2.0853
 Frc consts  --      1.3639                 0.6484                 0.5366
 IR Inten    --      0.9997                10.3465                17.4472

                     22                     23                     24
                      A                      A                      A
 Frequencies --    695.1771               735.0487               792.0128
 Red. masses --      1.9859                 2.7106                 1.4189
 Frc consts  --      0.5655                 0.8629                 0.5244
 IR Inten    --     45.4739                 2.4713                 9.7442

                     25                     26                     27
                      A                      A                      A
 Frequencies --    796.0503               821.2212               868.1476
 Red. masses --      1.3607                 2.6517                 2.5051
 Frc consts  --      0.5080                 1.0537                 1.1124
 IR Inten    --     35.3863                 3.0389                 2.9554

                     28                     29                     30
                      A                      A                      A
 Frequencies --    895.8122               907.6654               914.7872
 Red. masses --      1.9894                 1.9172                 1.6617
 Frc consts  --      0.9406                 0.9306                 0.8193
 IR Inten    --      0.7660                 4.0445                 3.4777

                     31                     32                     33
                      A                      A                      A
 Frequencies --    922.6459               932.1510               969.9660
 Red. masses --      2.3453                 2.0869                 1.2748
 Frc consts  --      1.1763                 1.0684                 0.7066
 IR Inten    --      6.2064                 1.0315                 0.6279

                     34                     35                     36
                      A                      A                      A
 Frequencies --   1018.1129              1053.1308              1070.8083
 Red. masses --      2.1850                 2.5038                 1.8874
 Frc consts  --      1.3344                 1.6361                 1.2751
 IR Inten    --      0.5337                 8.8117                11.0883

                     37                     38                     39
                      A                      A                      A
 Frequencies --   1079.7954              1093.6790              1127.1051
 Red. masses --      2.9426                 2.2576                 2.0214
 Frc consts  --      2.0215                 1.5910                 1.5130
 IR Inten    --     26.0887                 2.5099                 5.5584

                     40                     41                     42
                      A                      A                      A
 Frequencies --   1162.9729              1184.4065              1193.7078
 Red. masses --      1.2312                 2.3039                 1.3204
 Frc consts  --      0.9811                 1.9042                 1.1085
 IR Inten    --      1.4575                 0.8528                 0.0618

                     43                     44                     45
                      A                      A                      A
 Frequencies --   1209.0527              1224.7395              1252.3751
 Red. masses --      1.4761                 1.9430                 1.3209
 Frc consts  --      1.2713                 1.7172                 1.2207
 IR Inten    --      0.1588                32.1215                 4.9248

                     46                     47                     48
                      A                      A                      A
 Frequencies --   1263.3365              1277.8964              1320.2244
 Red. masses --      2.5234                 1.5778                 2.2761
 Frc consts  --      2.3729                 1.5181                 2.3374
 IR Inten    --     88.6368                 1.8957                 0.4227

                     49                     50                     51
                      A                      A                      A
 Frequencies --   1335.8536              1338.4716              1359.4970
 Red. masses --      1.3696                 1.2800                 1.3834
 Frc consts  --      1.4400                 1.3510                 1.5065
 IR Inten    --      2.6640                75.6119                 0.5953

                     52                     53                     54
                      A                      A                      A
 Frequencies --   1376.1020              1391.5353              1427.3031
 Red. masses --      3.1654                 1.7197                 1.7342
 Frc consts  --      3.5317                 1.9620                 2.0815
 IR Inten    --      9.0940                31.8394                31.4821

                     55                     56                     57
                      A                      A                      A
 Frequencies --   1438.8375              1482.4109              1511.6838
 Red. masses --      1.2559                 2.8769                 1.1176
 Frc consts  --      1.5319                 3.7249                 1.5047
 IR Inten    --      8.2464                11.9834                 1.5917

                     58                     59                     60
                      A                      A                      A
 Frequencies --   1513.2707              1516.6512              1520.2201
 Red. masses --      1.1047                 1.1263                 1.8499
 Frc consts  --      1.4904                 1.5264                 2.5189
 IR Inten    --     15.5865                 1.4638                 3.8945

                     61                     62                     63
                      A                      A                      A
 Frequencies --   1522.5411              1532.9731              1534.0337
 Red. masses --      1.1983                 1.0950                 1.1058
 Frc consts  --      1.6367                 1.5162                 1.5331
 IR Inten    --      8.1013                 7.2308                 1.6434

                     64                     65                     66
                      A                      A                      A
 Frequencies --   1555.9239              1642.6850              1653.3583
 Red. masses --      1.8115                 6.9775                 6.2134
 Frc consts  --      2.5838                11.0932                10.0072
 IR Inten    --    233.3469                 2.0193                 1.3220

                     67                     68                     69
                      A                      A                      A
 Frequencies --   3030.6418              3036.4097              3056.0269
 Red. masses --      1.0695                 1.0713                 1.0352
 Frc consts  --      5.7879                 5.8196                 5.6962
 IR Inten    --     31.3486                15.6389                22.2914

                     70                     71                     72
                      A                      A                      A
 Frequencies --   3057.3673              3081.6685              3089.9721
 Red. masses --      1.0667                 1.0675                 1.0932
 Frc consts  --      5.8745                 5.9727                 6.1498
 IR Inten    --     25.7223                27.4926                35.8939

                     73                     74                     75
                      A                      A                      A
 Frequencies --   3103.4898              3119.2623              3122.6332
 Red. masses --      1.0909                 1.1016                 1.1028
 Frc consts  --      6.1906                 6.3148                 6.3356
 IR Inten    --     25.9236                43.4202                12.4694

                     76                     77                     78
                      A                      A                      A
 Frequencies --   3135.4683              3152.2724              3184.5088
 Red. masses --      1.0994                 1.1021                 1.0871
 Frc consts  --      6.3680                 6.4521                 6.4951
 IR Inten    --     22.3260                28.4569                 5.5887

                     79                     80                     81
                      A                      A                      A
 Frequencies --   3199.5088              3214.0626              3563.0319
 Red. masses --      1.0910                 1.0953                 1.0760
 Frc consts  --      6.5805                 6.6663                 8.0481
 IR Inten    --     18.6150                14.4141                24.2681

 - Thermochemistry -
 -------------------
 Temperature   298.150 Kelvin.  Pressure   1.00000 Atm.
 Atom     1 has atomic number  6 and mass  12.00000

 Molecular mass:   205.09252 amu.
 Principal axes and moments of inertia in atomic units:
                           1         2         3
     Eigenvalues --  2251.761993935.674414114.14427
           X            0.99888   0.00920  -0.04645
           Y           -0.00525   0.99641   0.08444
           Z            0.04706  -0.08410   0.99535
 This molecule is an asymmetric top.
 Rotational symmetry number  1.
 Warning -- assumption of classical behavior for rotation
           may cause significant error
 Rotational temperatures (Kelvin)      0.03846     0.02201     0.02105
 Rotational constants (GHZ):           0.80148     0.45856     0.43867
 Zero-point vibrational energy     649729.4 (Joules/Mol)
                                  155.28904 (Kcal/Mol)
 Warning -- explicit consideration of  19 degrees of freedom as
           vibrations may cause significant error
 Vibrational temperatures:     47.44    73.26   123.19   130.36   199.71
          (Kelvin)            207.61   252.16   306.05   356.89   370.96
                              458.15   573.15   578.15   649.24   713.99
                              729.86   764.44   825.05   880.57   944.46
                              950.86  1000.20  1057.57  1139.53  1145.34
                             1181.55  1249.07  1288.87  1305.93  1316.17
                             1327.48  1341.16  1395.56  1464.84  1515.22
                             1540.65  1553.58  1573.56  1621.65  1673.26
                             1704.10  1717.48  1739.56  1762.13  1801.89
                             1817.66  1838.61  1899.51  1922.00  1925.76
                             1956.01  1979.90  2002.11  2053.57  2070.17
                             2132.86  2174.98  2177.26  2182.12  2187.26
                             2190.60  2205.61  2207.13  2238.63  2363.46
                             2378.81  4360.42  4368.72  4396.94  4398.87
                             4433.83  4445.78  4465.23  4487.92  4492.77
                             4511.24  4535.42  4581.80  4603.38  4624.32
                             5126.41

 Zero-point correction=                           0.247469 (Hartree/Particle)
 Thermal correction to Energy=                    0.260669
 Thermal correction to Enthalpy=                  0.261613
 Thermal correction to Gibbs Free Energy=         0.206627
 Sum of electronic and zero-point Energies=           -919.081644
 Sum of electronic and thermal Energies=              -919.068444
 Sum of electronic and thermal Enthalpies=            -919.067500
 Sum of electronic and thermal Free Energies=         -919.122486

                     E (Thermal)             CV                S
                      KCal/Mol        Cal/Mol-Kelvin    Cal/Mol-Kelvin
 Total                  163.572             50.316            115.729
 Electronic               0.000              0.000              0.000
 Translational            0.889              2.981             41.859
 Rotational               0.889              2.981             31.967
 Vibrational            161.795             44.354             41.903
 Vibration     1          0.594              1.983              5.642
 Vibration     2          0.595              1.977              4.781
 Vibration     3          0.601              1.959              3.758
 Vibration     4          0.602              1.956              3.647
 Vibration     5          0.614              1.915              2.820
 Vibration     6          0.616              1.909              2.746
 Vibration     7          0.627              1.873              2.378
 Vibration     8          0.644              1.822              2.020
 Vibration     9          0.662              1.766              1.744
 Vibration    10          0.667              1.750              1.676
 Vibration    11          0.705              1.638              1.318
 Vibration    12          0.765              1.474              0.969
 Vibration    13          0.767              1.466              0.956
 Vibration    14          0.810              1.358              0.792
 Vibration    15          0.852              1.258              0.668
 Vibration    16          0.862              1.234              0.640
 Vibration    17          0.886              1.181              0.584
 Vibration    18          0.930              1.089              0.498
 Vibration    19          0.971              1.006              0.429

                           ! Non-Optimized Parameters !
 Normal termination of Gaussian 16 at Thu Dec 10 09:38:18 2020.

 ----------------------------------------------------------------------
 # B3LYP/6-311++G(d,p) empiricaldispersion=gd3bj scf=xqc pop=npa geom=c
 heck
 ----------------------------------------------------------------------

 ---------------------------------------
 CID_123760303_JID_4322_Energie_neutraal
 ---------------------------------------
 Structure from the checkpoint file:  "JID_4322.chk"
 Charge =  0 Multiplicity = 1

 SCF Done:  E(RB3LYP) =  -919.490718488     A.U. after   16 cycles
 Normal termination of Gaussian 16 at Thu Dec 10 09:43:16 2020.

 ----------------------------------------------------------------------
 # B3LYP/6-311++G(d,p) empiricaldispersion=gd3bj scf=xqc pop=npa geom=c
 heck
 ----------------------------------------------------------------------

 -------------------------------------
 CID_123760303_JID_4322_Energie_kation
 -------------------------------------
 Structure from the checkpoint file:  "JID_4322.chk"
 Charge =  1 Multiplicity = 2

 SCF Done:  E(UB3LYP) =  -919.211243130     A.U. after   27 cycles
 Normal termination of Gaussian 16 at Thu Dec 10 09:55:08 2020.
 Gaussian 16:  ES64L-G16RevA.03 25-Dec-2016

 ----------------------------------------------------------------------
 # B3LYP/6-311++G(d,p) empiricaldispersion=gd3bj scf=xqc pop=npa geom=c
 heck
 ----------------------------------------------------------------------

 ------------------------------------
 CID_123760303_JID_4322_Energie_anion
 ------------------------------------
 Structure from the checkpoint file:  "JID_4322.chk"
 Charge = -1 Multiplicity = 2

                         Standard orientation:
 ---------------------------------------------------------------------
 Center     Atomic      Atomic             Coordinates (Angstroms)
 Number     Number       Type             X           Y           Z
 ---------------------------------------------------------------------
      1          6           0       -2.191199   -0.839941    2.488948
      2          6           0       -1.580980   -1.576361    1.294751
      3          7           0       -2.020276   -1.027975    0.010299
      4          6           0       -1.549047    0.083789   -0.593699
      5         16           0       -2.365313    0.824959   -1.845269
      6          6           0       -0.236994    0.599857   -0.106155
      7          6           0       -0.167738    1.835094    0.553956
      8          6           0        1.054131    2.327297    1.011926
      9          6           0        2.234323    1.607887    0.801107
     10          6           0        2.172117    0.389826    0.130175
     11          6           0        0.944803   -0.119034   -0.315136
     12          6           0        1.149524   -1.423148   -1.055923
     13          6           0        2.564406   -1.859122   -0.605023
     14          6           0        3.299715   -0.540401   -0.262606
     15          1           0       -1.870036    0.206206    2.491889
     16          1           0       -1.868154   -1.303405    3.427768
     17          1           0       -3.285614   -0.864878    2.451723
     18          1           0       -0.491645   -1.528065    1.338135
     19          1           0       -1.862464   -2.634332    1.304237
     20          1           0       -2.925654   -1.329762   -0.334815
     21          1           0       -1.079998    2.405407    0.697760
     22          1           0        1.085687    3.280675    1.531437
     23          1           0        3.185593    1.998491    1.153195
     24          1           0        1.115608   -1.238985   -2.139129
     25          1           0        0.382818   -2.174981   -0.845407
     26          1           0        2.480644   -2.470468    0.301661
     27          1           0        3.086498   -2.456154   -1.358062
     28          1           0        4.053040   -0.662952    0.523328
     29          1           0        3.822239   -0.144768   -1.145449
 ---------------------------------------------------------------------

 SCF Done:  E(UB3LYP) =  -919.487999052     A.U. after   33 cycles
 SCF Done:  E(UB3LYP) =  -919.487999052     a.u. after    1 cycles

 The electronic state is 2-A.
 Alpha  occ. eigenvalues --  -88.64489 -14.21043 -10.09600 -10.09117 -10.06897
 Alpha  occ. eigenvalues --  -10.06814 -10.06120 -10.05722 -10.05323 -10.05312
 Alpha  occ. eigenvalues --  -10.05266 -10.05231 -10.04812 -10.04708  -7.73239
 Alpha  occ. eigenvalues --   -5.69586  -5.69142  -5.68807  -0.82446  -0.75585
 Alpha  occ. eigenvalues --   -0.69875  -0.66510  -0.63921  -0.60261  -0.59428
 Alpha  occ. eigenvalues --   -0.57060  -0.51334  -0.50445  -0.48192  -0.45900
 Alpha  occ. eigenvalues --   -0.44084  -0.39072  -0.37317  -0.36890  -0.35032
 Alpha  occ. eigenvalues --   -0.34601  -0.31982  -0.31133  -0.30171  -0.29680
 Alpha  occ. eigenvalues --   -0.29482  -0.27224  -0.26274  -0.25013  -0.24539
 Alpha  occ. eigenvalues --   -0.24325  -0.23592  -0.22973  -0.22011  -0.20578
 Alpha  occ. eigenvalues --   -0.20163  -0.13108  -0.12283  -0.09037  -0.06686
 Alpha  occ. eigenvalues --    0.04649
 Alpha virt. eigenvalues --    0.06982   0.07278   0.08226   0.09196   0.09619
 Alpha virt. eigenvalues --    0.09685   0.10017   0.10918   0.11305   0.11518
 Alpha virt. eigenvalues --    0.11883   0.12609   0.13098   0.13517   0.13726

  Beta  occ. eigenvalues --  -88.64449 -14.20962 -10.09598 -10.08604 -10.06890
  Beta  occ. eigenvalues --  -10.06805 -10.06125 -10.05741 -10.05318 -10.05255
  Beta  occ. eigenvalues --  -10.05221 -10.05161 -10.04671 -10.04653  -7.73203
  Beta  occ. eigenvalues --   -5.69577  -5.69008  -5.68780  -0.82074  -0.75470
  Beta  occ. eigenvalues --   -0.69745  -0.66161  -0.63775  -0.60166  -0.59200
  Beta  occ. eigenvalues --   -0.56829  -0.51214  -0.50179  -0.48072  -0.45798
  Beta  occ. eigenvalues --   -0.43882  -0.38937  -0.37230  -0.36766  -0.34865
  Beta  occ. eigenvalues --   -0.34420  -0.31878  -0.30911  -0.30049  -0.29596
  Beta  occ. eigenvalues --   -0.29370  -0.27113  -0.26074  -0.24888  -0.24492
  Beta  occ. eigenvalues --   -0.24273  -0.23357  -0.22701  -0.21828  -0.20076
  Beta  occ. eigenvalues --   -0.19305  -0.12503  -0.12025  -0.08195  -0.06492
  Beta virt. eigenvalues --    0.06941   0.07669   0.08114   0.08818   0.09487
  Beta virt. eigenvalues --    0.09631   0.10115   0.10690   0.11015   0.11424
  Beta virt. eigenvalues --    0.11674   0.12661   0.12873   0.13053   0.13480

 Mulliken charges and spin densities:
               1          2
     1  C    0.525607  -1.028048
     2  C   -0.595780   0.397881
     3  N   -0.114791   0.051046
     4  C   -0.228149   0.240919
     5  S   -0.876750   0.158614
     6  C    1.359009  -0.061365
     7  C   -0.994689   0.269604
     8  C   -0.245605  -0.127135
     9  C   -0.321025   0.249809
    10  C    0.081570   0.163402
    11  C    0.556619  -0.332696
    12  C   -0.481930   0.183484
    13  C   -0.241926  -0.214597
    14  C   -0.209268  -0.430413
    15  H    0.023661   0.143105
    16  H   -0.434686   0.574018
    17  H   -0.069711   0.189907
    18  H    0.319345  -0.174227
    19  H   -0.013464   0.153893
    20  H    0.278340  -0.003254
    21  H    0.070434   0.067822
    22  H    0.050760   0.084279
    23  H    0.041942   0.072252
    24  H    0.151531   0.012472
    25  H    0.181501  -0.002939
    26  H    0.002794   0.128357
    27  H    0.015967   0.127422
    28  H    0.110016   0.022789
    29  H    0.058679   0.083597
 Sum of Mulliken charges =  -1.00000   1.00000

 Dipole moment (field-independent basis, Debye):
    X=              4.5329    Y=             -2.4347    Z=              0.8336  Tot=              5.2125
 Quadrupole moment (field-independent basis, Debye-Ang):
   XX=           -133.4128   YY=           -113.3366   ZZ=           -132.9542
   XY=              4.8031   XZ=             -2.8818   YZ=              8.7828

 Summary of Natural Population Analysis:

                                       Natural Population
                Natural  -----------------------------------------------
    Atom  No    Charge         Core      Valence    Rydberg      Total
 -----------------------------------------------------------------------
      C    1   -0.28948      0.99966     2.28501    0.00481     3.28948
      C    2   -0.08996      0.99963     2.07947    0.01087     3.08996
      N    3   -0.29469      0.99963     2.78266    0.01240     3.79469
      C    4    0.14630      0.99957     1.83341    0.02072     2.85370
      S    5   -0.12452      4.99956     3.11141    0.01355     8.12452
      C    6   -0.03343      0.99941     2.02197    0.01205     3.03343
      C    7   -0.08152      0.99952     2.07157    0.01043     3.08152
      C    8   -0.10615      0.99957     2.09727    0.00931     3.10615
      C    9   -0.08409      0.99951     2.07586    0.00871     3.08409
      C   10   -0.02163      0.99947     2.01396    0.00821     3.02163
      C   11   -0.00030      0.99943     1.99130    0.00957     3.00030
      C   12   -0.20123      0.99961     2.19205    0.00958     3.20123
      C   13   -0.18388      0.99965     2.17741    0.00681     3.18388
      C   14   -0.19402      0.99961     2.18739    0.00702     3.19402
      H   15    0.10491      0.00000     0.39388    0.00120     0.39509
      H   16    0.09778      0.00000     0.40018    0.00203     0.40222
      H   17    0.09485      0.00000     0.40403    0.00111     0.40515
      H   18    0.10231      0.00000     0.39618    0.00151     0.39769
      H   19    0.08928      0.00000     0.40975    0.00097     0.41072
      H   20    0.18915      0.00000     0.30846    0.00239     0.31085
      H   21    0.10390      0.00000     0.39520    0.00090     0.39610
      H   22    0.09490      0.00000     0.40431    0.00079     0.40510
      H   23    0.09174      0.00000     0.40694    0.00133     0.40826
      H   24    0.10338      0.00000     0.39567    0.00095     0.39662
      H   25    0.10456      0.00000     0.39414    0.00130     0.39544
      H   26    0.09315      0.00000     0.40555    0.00130     0.40685
      H   27    0.09438      0.00000     0.40444    0.00118     0.40562
      H   28    0.09736      0.00000     0.40130    0.00134     0.40264
      H   29    0.09695      0.00000     0.40137    0.00168     0.40305
 =======================================================================
   * Total *   -0.00000     17.99382    36.84216    0.16402    55.00000

 Normal termination of Gaussian 16 at Thu Dec 10 10:09:55 2020.
