 Gaussian 16, Revision A.03,

 -----------------------------------------------------------
 # opt freq B3LYP/6-31G(d) empiricaldispersion=gd3bj scf=xqc
 -----------------------------------------------------------

 -------------------------------
 CID_141281653_JID_9553_neutraal
 -------------------------------
 Symbolic Z-matrix:
 Charge =  0 Multiplicity = 1

 SCF Done:  E(RB3LYP) =  -914.115063503     A.U. after   16 cycles
 SCF Done:  E(RB3LYP) =  -914.120397627     A.U. after   15 cycles
 SCF Done:  E(RB3LYP) =  -914.122778532     A.U. after   15 cycles
 SCF Done:  E(RB3LYP) =  -914.121324502     A.U. after   17 cycles
 SCF Done:  E(RB3LYP) =  -914.126880560     A.U. after   15 cycles
 SCF Done:  E(RB3LYP) =  -914.128753002     A.U. after   15 cycles
 SCF Done:  E(RB3LYP) =  -914.129820386     A.U. after   17 cycles
 SCF Done:  E(RB3LYP) =  -914.130253301     A.U. after   14 cycles
 SCF Done:  E(RB3LYP) =  -914.130389654     A.U. after   14 cycles
 SCF Done:  E(RB3LYP) =  -914.130449560     A.U. after   13 cycles
 SCF Done:  E(RB3LYP) =  -914.130637488     A.U. after   11 cycles
 SCF Done:  E(RB3LYP) =  -914.130638235     A.U. after   10 cycles
 SCF Done:  E(RB3LYP) =  -914.130638976     A.U. after   10 cycles
 SCF Done:  E(RB3LYP) =  -914.130638992     A.U. after    9 cycles
 SCF Done:  E(RB3LYP) =  -914.130639060     A.U. after    8 cycles
 Optimization completed.
    -- Stationary point found.
 Normal termination of Gaussian 16 at Sun Dec 13 16:26:10 2020.

 --------------------------------------------------------------------
 #N Geom=AllCheck Guess=TCheck SCRF=Check GenChk RB3LYP/6-31G(d) Freq
 --------------------------------------------------------------------

 Structure from the checkpoint file:  "JID_9553.chk"
 -------------------------------
 CID_141281653_JID_9553_neutraal
 -------------------------------
 Charge =  0 Multiplicity = 1

 SCF Done:  E(RB3LYP) =  -914.130639060     A.U. after    1 cycles

  Exact polarizability: 265.657  10.641 185.865   9.309   5.681  82.989
 Approx polarizability: 414.648  43.103 301.797  28.941  22.788 129.319

                      1                      2                      3
                      A                      A                      A
 Frequencies --     24.6124                32.1144                37.2027
 Red. masses --      6.7135                 2.8853                 5.0645
 Frc consts  --      0.0024                 0.0018                 0.0041
 IR Inten    --      0.4783                 0.3562                 0.0944

                      4                      5                      6
                      A                      A                      A
 Frequencies --     51.1737                68.0284                74.3450
 Red. masses --      4.7949                 2.5285                 3.5826
 Frc consts  --      0.0074                 0.0069                 0.0117
 IR Inten    --      0.3679                 2.1523                 1.0725

                      7                      8                      9
                      A                      A                      A
 Frequencies --     97.6446               111.8146               130.7361
 Red. masses --      5.0655                 5.4729                 5.5720
 Frc consts  --      0.0285                 0.0403                 0.0561
 IR Inten    --      1.0975                 5.8571                 2.6978

                     10                     11                     12
                      A                      A                      A
 Frequencies --    147.8661               155.5784               194.9790
 Red. masses --      3.9219                 3.9745                 1.5994
 Frc consts  --      0.0505                 0.0567                 0.0358
 IR Inten    --      1.4836                 3.6607                 0.9291

                     13                     14                     15
                      A                      A                      A
 Frequencies --    220.4542               241.1252               250.1938
 Red. masses --      3.2216                 2.4172                 1.3505
 Frc consts  --      0.0922                 0.0828                 0.0498
 IR Inten    --      2.3226                 0.6747                 0.1089

                     16                     17                     18
                      A                      A                      A
 Frequencies --    255.3335               283.9909               317.0894
 Red. masses --      4.3098                 4.5477                 5.2787
 Frc consts  --      0.1655                 0.2161                 0.3127
 IR Inten    --      0.5562                 0.2202                 6.7328

                     19                     20                     21
                      A                      A                      A
 Frequencies --    324.3082               335.1518               389.0032
 Red. masses --      3.6283                 3.2386                 4.8413
 Frc consts  --      0.2248                 0.2143                 0.4316
 IR Inten    --      1.7082                 3.3390                 2.1185

                     22                     23                     24
                      A                      A                      A
 Frequencies --    421.2033               448.8429               489.8959
 Red. masses --      7.4371                 3.6766                 6.6236
 Frc consts  --      0.7774                 0.4364                 0.9366
 IR Inten    --      1.8882                 3.4760                 4.6176

                     25                     26                     27
                      A                      A                      A
 Frequencies --    522.4582               545.1665               561.1673
 Red. masses --      7.0163                 5.2811                 4.9287
 Frc consts  --      1.1284                 0.9248                 0.9145
 IR Inten    --      2.5546                 2.6979                 2.6548

                     28                     29                     30
                      A                      A                      A
 Frequencies --    594.7215               651.5659               671.8962
 Red. masses --      5.3702                 4.7566                 5.8595
 Frc consts  --      1.1191                 1.1898                 1.5585
 IR Inten    --      5.8450                 1.3018                 8.6733

                     31                     32                     33
                      A                      A                      A
 Frequencies --    701.9070               719.0278               727.6376
 Red. masses --      5.9579                 6.1586                 6.0725
 Frc consts  --      1.7294                 1.8759                 1.8943
 IR Inten    --      1.4900                16.8725                 8.5367

                     34                     35                     36
                      A                      A                      A
 Frequencies --    775.4614               801.2020               828.2312
 Red. masses --      9.4779                 5.1123                 1.2665
 Frc consts  --      3.3580                 1.9335                 0.5119
 IR Inten    --      8.0660                13.0369                10.3813

                     37                     38                     39
                      A                      A                      A
 Frequencies --    829.7253               832.8615               863.4399
 Red. masses --      1.3252                 1.1301                 2.9617
 Frc consts  --      0.5375                 0.4619                 1.3009
 IR Inten    --     15.2946                 4.5656                 9.4095

                     40                     41                     42
                      A                      A                      A
 Frequencies --    882.5902               903.7644               946.2074
 Red. masses --      1.9042                 2.7076                 1.3027
 Frc consts  --      0.8739                 1.3030                 0.6872
 IR Inten    --     19.2180                 6.2470                 0.1175

                     43                     44                     45
                      A                      A                      A
 Frequencies --    959.5813               998.2744              1044.5209
 Red. masses --      3.2315                 5.3908                 3.5101
 Frc consts  --      1.7531                 3.1652                 2.2564
 IR Inten    --     26.4149                36.3747                22.1757

                     46                     47                     48
                      A                      A                      A
 Frequencies --   1049.8851              1074.7914              1109.7760
 Red. masses --      1.1755                 4.4749                 2.5881
 Frc consts  --      0.7634                 3.0456                 1.8780
 IR Inten    --     19.7893               132.9157                32.7262

                     49                     50                     51
                      A                      A                      A
 Frequencies --   1135.1849              1147.2264              1192.2816
 Red. masses --      2.4557                 2.1172                 1.4819
 Frc consts  --      1.8645                 1.6418                 1.2411
 IR Inten    --    116.5556                20.0458                 9.2056

                     52                     53                     54
                      A                      A                      A
 Frequencies --   1201.6115              1225.5351              1262.9081
 Red. masses --      1.6985                 1.6980                 2.0235
 Frc consts  --      1.4449                 1.5026                 1.9015
 IR Inten    --      6.0078                 7.6284                86.5456

                     55                     56                     57
                      A                      A                      A
 Frequencies --   1280.8722              1303.7108              1309.3441
 Red. masses --      1.8885                 1.9841                 1.4168
 Frc consts  --      1.8255                 1.9869                 1.4311
 IR Inten    --      0.3586                83.9101                95.7106

                     58                     59                     60
                      A                      A                      A
 Frequencies --   1318.0966              1329.3585              1343.6359
 Red. masses --      1.5411                 2.0738                 1.5097
 Frc consts  --      1.5775                 2.1592                 1.6058
 IR Inten    --    151.8367                72.3623               285.1982

                     61                     62                     63
                      A                      A                      A
 Frequencies --   1365.1781              1392.1675              1416.3300
 Red. masses --      2.7312                 8.7210                 1.4125
 Frc consts  --      2.9991                 9.9587                 1.6694
 IR Inten    --      3.2359               317.7280                38.6198

                     64                     65                     66
                      A                      A                      A
 Frequencies --   1423.6526              1443.9843              1445.7342
 Red. masses --      1.3266                 1.4633                 1.3499
 Frc consts  --      1.5841                 1.7976                 1.6623
 IR Inten    --      2.1347                50.2291                34.7283

                     67                     68                     69
                      A                      A                      A
 Frequencies --   1472.6712              1513.5317              1516.9253
 Red. masses --      2.9467                 1.0410                 1.0421
 Frc consts  --      3.7653                 1.4050                 1.4129
 IR Inten    --     11.2976                 7.5811                 6.9975

                     70                     71                     72
                      A                      A                      A
 Frequencies --   1527.6034              1530.1918              1531.9912
 Red. masses --      2.7035                 1.0616                 1.1282
 Frc consts  --      3.7171                 1.4646                 1.5601
 IR Inten    --    125.1685                 5.9421                11.3825

                     73                     74                     75
                      A                      A                      A
 Frequencies --   1549.1788              1549.5079              1614.8921
 Red. masses --      1.1220                 1.1099                 5.7474
 Frc consts  --      1.5865                 1.5701                 8.8309
 IR Inten    --      8.7728                 2.2667                51.9834

                     76                     77                     78
                      A                      A                      A
 Frequencies --   1625.5733              1635.3900              1710.2656
 Red. masses --     12.1278                 6.3921                 5.7216
 Frc consts  --     18.8819                10.0725                 9.8603
 IR Inten    --    122.2035               134.7847                66.8090

                     79                     80                     81
                      A                      A                      A
 Frequencies --   2340.9464              3039.2745              3062.6209
 Red. masses --     12.6757                 1.0636                 1.0672
 Frc consts  --     40.9267                 5.7884                 5.8979
 IR Inten    --     41.1132                29.7937                36.8565

                     82                     83                     84
                      A                      A                      A
 Frequencies --   3064.4882              3064.7350              3099.1397
 Red. masses --      1.0352                 1.0357                 1.1012
 Frc consts  --      5.7281                 5.7315                 6.2314
 IR Inten    --     13.8800                12.1958                16.9119

                     85                     86                     87
                      A                      A                      A
 Frequencies --   3125.5254              3135.4528              3136.8939
 Red. masses --      1.0999                 1.1016                 1.1021
 Frc consts  --      6.3308                 6.3808                 6.3897
 IR Inten    --      2.5130                28.3891                22.7542

                     88                     89                     90
                      A                      A                      A
 Frequencies --   3144.9869              3148.6816              3220.9935
 Red. masses --      1.1046                 1.1034                 1.0899
 Frc consts  --      6.4371                 6.4455                 6.6623
 IR Inten    --     21.9160                42.2882                 1.9837

                     91                     92                     93
                      A                      A                      A
 Frequencies --   3231.0475              3243.2029              3309.8446
 Red. masses --      1.0866                 1.0927                 1.0955
 Frc consts  --      6.6834                 6.7718                 7.0709
 IR Inten    --      5.5044                 6.4135                 7.0822

 - Thermochemistry -
 -------------------
 Temperature   298.150 Kelvin.  Pressure   1.00000 Atm.
 Atom     1 has atomic number  6 and mass  12.00000

 Molecular mass:   262.09536 amu.
 Principal axes and moments of inertia in atomic units:
                           1         2         3
     Eigenvalues --  3317.012767621.96690**********
           X            0.99998   0.00079  -0.00569
           Y           -0.00083   0.99998  -0.00591
           Z            0.00568   0.00591   0.99997
 This molecule is an asymmetric top.
 Rotational symmetry number  1.
 Warning -- assumption of classical behavior for rotation
           may cause significant error
 Rotational temperatures (Kelvin)      0.02611     0.01136     0.00816
 Rotational constants (GHZ):           0.54409     0.23678     0.17008
 Zero-point vibrational energy     678168.5 (Joules/Mol)
                                  162.08616 (Kcal/Mol)
 Warning -- explicit consideration of  28 degrees of freedom as
           vibrations may cause significant error
 Vibrational temperatures:     35.41    46.21    53.53    73.63    97.88
          (Kelvin)            106.97   140.49   160.88   188.10   212.75
                              223.84   280.53   317.18   346.93   359.97
                              367.37   408.60   456.22   466.61   482.21
                              559.69   606.02   645.78   704.85   751.70
                              784.37   807.39   855.67   937.46   966.71
                             1009.89  1034.52  1046.91  1115.72  1152.75
                             1191.64  1193.79  1198.30  1242.30  1269.85
                             1300.32  1361.38  1380.62  1436.29  1502.83
                             1510.55  1546.39  1596.72  1633.28  1650.60
                             1715.43  1728.85  1763.27  1817.04  1842.89
                             1875.75  1883.85  1896.45  1912.65  1933.19
                             1964.19  2003.02  2037.78  2048.32  2077.57
                             2080.09  2118.85  2177.63  2182.52  2197.88
                             2201.60  2204.19  2228.92  2229.40  2323.47
                             2338.84  2352.96  2460.69  3368.10  4372.84
                             4406.43  4409.12  4409.47  4458.97  4496.93
                             4511.22  4513.29  4524.93  4530.25  4634.29
                             4648.76  4666.25  4762.13

 Zero-point correction=                           0.258301 (Hartree/Particle)
 Thermal correction to Energy=                    0.277225
 Thermal correction to Enthalpy=                  0.278169
 Thermal correction to Gibbs Free Energy=         0.208650
 Sum of electronic and zero-point Energies=           -913.872338
 Sum of electronic and thermal Energies=              -913.853414
 Sum of electronic and thermal Enthalpies=            -913.852470
 Sum of electronic and thermal Free Energies=         -913.921989

                     E (Thermal)             CV                S
                      KCal/Mol        Cal/Mol-Kelvin    Cal/Mol-Kelvin
 Total                  173.961             67.880            146.314
 Electronic               0.000              0.000              0.000
 Translational            0.889              2.981             42.590
 Rotational               0.889              2.981             33.950
 Vibrational            172.184             61.919             69.774
 Vibration     1          0.593              1.985              6.222
 Vibration     2          0.594              1.983              5.694
 Vibration     3          0.594              1.982              5.403
 Vibration     4          0.595              1.977              4.772
 Vibration     5          0.598              1.969              4.210
 Vibration     6          0.599              1.966              4.035
 Vibration     7          0.603              1.951              3.501
 Vibration     8          0.607              1.940              3.237
 Vibration     9          0.612              1.923              2.935
 Vibration    10          0.617              1.905              2.700
 Vibration    11          0.620              1.896              2.603
 Vibration    12          0.636              1.847              2.180
 Vibration    13          0.647              1.810              1.955
 Vibration    14          0.658              1.777              1.795
 Vibration    15          0.663              1.762              1.729
 Vibration    16          0.666              1.754              1.693
 Vibration    17          0.682              1.703              1.510
 Vibration    18          0.704              1.641              1.325
 Vibration    19          0.709              1.627              1.288
 Vibration    20          0.716              1.605              1.235
 Vibration    21          0.757              1.494              1.004
 Vibration    22          0.784              1.424              0.888
 Vibration    23          0.808              1.363              0.799
 Vibration    24          0.846              1.272              0.684
 Vibration    25          0.877              1.200              0.604
 Vibration    26          0.900              1.150              0.554
 Vibration    27          0.917              1.115              0.522
 Vibration    28          0.952              1.043              0.459

 Optimization completed.
    -- Stationary point found.
 Normal termination of Gaussian 16 at Sun Dec 13 16:41:53 2020.

 ----------------------------------------------------------------------
 # B3LYP/6-311++G(d,p) empiricaldispersion=gd3bj scf=xqc pop=npa geom=c
 heck
 ----------------------------------------------------------------------

 ---------------------------------------
 CID_141281653_JID_9553_Energie_neutraal
 ---------------------------------------
 Structure from the checkpoint file:  "JID_9553.chk"
 Charge =  0 Multiplicity = 1

 SCF Done:  E(RB3LYP) =  -914.386179868     A.U. after   16 cycles
 Normal termination of Gaussian 16 at Sun Dec 13 16:49:08 2020.

 ----------------------------------------------------------------------
 # B3LYP/6-311++G(d,p) empiricaldispersion=gd3bj scf=xqc pop=npa geom=c
 heck
 ----------------------------------------------------------------------

 -------------------------------------
 CID_141281653_JID_9553_Energie_kation
 -------------------------------------
 Structure from the checkpoint file:  "JID_9553.chk"
 Charge =  1 Multiplicity = 2

 SCF Done:  E(UB3LYP) =  -914.066341133     A.U. after   33 cycles
 SCF Done:  E(UB3LYP) =  -914.066341133     a.u. after    1 cycles
 Normal termination of Gaussian 16 at Sun Dec 13 17:10:08 2020.
 Gaussian 16:  ES64L-G16RevA.03 25-Dec-2016

 ----------------------------------------------------------------------
 # B3LYP/6-311++G(d,p) empiricaldispersion=gd3bj scf=xqc pop=npa geom=c
 heck
 ----------------------------------------------------------------------

 ------------------------------------
 CID_141281653_JID_9553_Energie_anion
 ------------------------------------
 Structure from the checkpoint file:  "JID_9553.chk"
 Charge = -1 Multiplicity = 2

                         Standard orientation:
 ---------------------------------------------------------------------
 Center     Atomic      Atomic             Coordinates (Angstroms)
 Number     Number       Type             X           Y           Z
 ---------------------------------------------------------------------
      1          6           0       -4.868436    0.278063    0.959985
      2          6           0       -4.381003    0.045295   -0.463472
      3          8           0       -3.037417   -0.457553   -0.499845
      4          6           0       -1.999068    0.391669   -0.323785
      5          6           0       -0.720974   -0.215112   -0.324235
      6          6           0        0.453121    0.545103   -0.168729
      7          6           0        0.319179    1.955015   -0.026135
      8          6           0       -0.947659    2.543267   -0.025715
      9          6           0       -2.100373    1.776130   -0.168813
     10          6           0        1.445077    2.820923    0.118472
     11          7           0        2.340912    3.553635    0.242849
     12          6           0        1.707911   -0.197862   -0.176631
     13          6           0        2.950597    0.228147    0.082110
     14          7           0        4.047560   -0.731020    0.030659
     15          8           0        5.165437   -0.272974    0.276407
     16          8           0        3.813058   -1.910908   -0.240722
     17          8           0       -0.628178   -1.560103   -0.528040
     18          6           0       -0.957951   -2.390414    0.608402
     19          6           0       -0.763431   -3.831379    0.184765
     20          1           0       -4.801529   -0.648615    1.538217
     21          1           0       -5.914677    0.602343    0.947471
     22          1           0       -4.279153    1.044126    1.472506
     23          1           0       -4.967584   -0.737146   -0.950090
     24          1           0       -4.457151    0.949155   -1.079504
     25          1           0       -1.028159    3.618858    0.086038
     26          1           0       -3.064918    2.267270   -0.163426
     27          1           0        1.608032   -1.250869   -0.415914
     28          1           0        3.294412    1.217056    0.340148
     29          1           0       -0.293638   -2.123914    1.441293
     30          1           0       -1.992601   -2.194068    0.907927
     31          1           0        0.273113   -4.008623   -0.118165
     32          1           0       -1.002189   -4.501856    1.017073
     33          1           0       -1.418414   -4.072808   -0.657832
 ---------------------------------------------------------------------

 SCF Done:  E(UB3LYP) =  -914.445216243     A.U. after   22 cycles

 The electronic state is 2-A.
 Alpha  occ. eigenvalues --  -19.06741 -19.03356 -18.97190 -18.97186 -14.35803
 Alpha  occ. eigenvalues --  -14.18814 -10.15894 -10.13467 -10.12669 -10.11682
 Alpha  occ. eigenvalues --  -10.10270 -10.09029 -10.08719 -10.08401 -10.07664
 Alpha  occ. eigenvalues --  -10.07566 -10.07181 -10.05648 -10.03676  -1.04875
 Alpha  occ. eigenvalues --   -0.98881  -0.94951  -0.87779  -0.79089  -0.75698
 Alpha  occ. eigenvalues --   -0.70632  -0.68876  -0.67696  -0.65112  -0.63280
 Alpha  occ. eigenvalues --   -0.58631  -0.55478  -0.53456  -0.51595  -0.49091
 Alpha  occ. eigenvalues --   -0.45298  -0.44206  -0.42088  -0.41328  -0.38942
 Alpha  occ. eigenvalues --   -0.38456  -0.37692  -0.37383  -0.36459  -0.36434
 Alpha  occ. eigenvalues --   -0.34231  -0.34019  -0.33283  -0.32623  -0.31441
 Alpha  occ. eigenvalues --   -0.31067  -0.30152  -0.29124  -0.28688  -0.27315
 Alpha  occ. eigenvalues --   -0.26527  -0.26204  -0.25324  -0.24781  -0.23799
 Alpha  occ. eigenvalues --   -0.21487  -0.20823  -0.19055  -0.17612  -0.15431
 Alpha  occ. eigenvalues --   -0.14261  -0.12688  -0.12418  -0.12135  -0.00069
 Alpha virt. eigenvalues --    0.05016   0.06961   0.07256   0.07399   0.07928
 Alpha virt. eigenvalues --    0.09233   0.09493   0.10159   0.10871   0.11145
 Alpha virt. eigenvalues --    0.12002   0.12471   0.12861   0.13354   0.13905

  Beta  occ. eigenvalues --  -19.06720 -19.03355 -18.96947 -18.96770 -14.35541
  Beta  occ. eigenvalues --  -14.18684 -10.15895 -10.13409 -10.12663 -10.11597
  Beta  occ. eigenvalues --  -10.10264 -10.09058 -10.08563 -10.08463 -10.07565
  Beta  occ. eigenvalues --  -10.07557 -10.07037 -10.05449 -10.03463  -1.04289
  Beta  occ. eigenvalues --   -0.98822  -0.94917  -0.87166  -0.78893  -0.75474
  Beta  occ. eigenvalues --   -0.70540  -0.68532  -0.67477  -0.64715  -0.63010
  Beta  occ. eigenvalues --   -0.58424  -0.54965  -0.53376  -0.51502  -0.48823
  Beta  occ. eigenvalues --   -0.45160  -0.44101  -0.41941  -0.40993  -0.38787
  Beta  occ. eigenvalues --   -0.38375  -0.37612  -0.37178  -0.36267  -0.34694
  Beta  occ. eigenvalues --   -0.33988  -0.33790  -0.33198  -0.32422  -0.31356
  Beta  occ. eigenvalues --   -0.30991  -0.30102  -0.28822  -0.28537  -0.27211
  Beta  occ. eigenvalues --   -0.26124  -0.26100  -0.25220  -0.24596  -0.23710
  Beta  occ. eigenvalues --   -0.20963  -0.20712  -0.17992  -0.17378  -0.13909
  Beta  occ. eigenvalues --   -0.13154  -0.12076  -0.11945  -0.10737
  Beta virt. eigenvalues --    0.04901   0.05526   0.06949   0.07391   0.07754
  Beta virt. eigenvalues --    0.08073   0.09219   0.09918   0.10834   0.11087
  Beta virt. eigenvalues --    0.11627   0.12090   0.12460   0.12863   0.13374

 Mulliken charges and spin densities:
               1          2
     1  C   -0.397805  -0.014298
     2  C   -0.190504   0.010970
     3  O   -0.124034   0.004890
     4  C   -0.107648   0.020596
     5  C   -0.444922   0.033927
     6  C    1.468557   0.121932
     7  C    1.397841   0.134121
     8  C   -0.938568  -0.062010
     9  C    0.148206   0.131104
    10  C   -1.794553  -0.056400
    11  N   -0.205398   0.065994
    12  C   -0.569962   0.138396
    13  C   -0.167913   0.127782
    14  N   -0.181058   0.100546
    15  O   -0.089050   0.145500
    16  O   -0.207210   0.093106
    17  O   -0.113019   0.007018
    18  C   -0.144315   0.008327
    19  C   -0.506543   0.001037
    20  H    0.148644   0.001257
    21  H    0.110062   0.006171
    22  H    0.142150   0.002932
    23  H    0.183794   0.001141
    24  H    0.128095  -0.001742
    25  H    0.163829   0.003793
    26  H    0.151401  -0.009404
    27  H    0.271846  -0.008538
    28  H    0.184910  -0.011559
    29  H    0.142863   0.000496
    30  H    0.117584   0.001515
    31  H    0.166271   0.001917
    32  H    0.116889  -0.000385
    33  H    0.139561  -0.000134
 Sum of Mulliken charges =  -1.00000   1.00000

 Dipole moment (field-independent basis, Debye):
    X=            -16.7441    Y=             -1.3966    Z=              1.0082  Tot=             16.8325
 Quadrupole moment (field-independent basis, Debye-Ang):
   XX=           -182.4922   YY=           -142.4291   ZZ=           -118.7820
   XY=             -1.3347   XZ=             -2.4451   YZ=             -4.7815

 Summary of Natural Population Analysis:

                                       Natural Population
                Natural  -----------------------------------------------
    Atom  No    Charge         Core      Valence    Rydberg      Total
 -----------------------------------------------------------------------
      C    1   -0.30172      0.99967     2.29783    0.00422     3.30172
      C    2   -0.01108      0.99960     2.00138    0.01011     3.01108
      O    3   -0.27462      0.99985     3.26319    0.01157     4.27462
      C    4    0.15582      0.99936     1.83184    0.01298     2.84418
      C    5    0.14065      0.99939     1.83862    0.02134     2.85935
      C    6    0.04482      0.99951     1.93772    0.01795     2.95518
      C    7   -0.02593      0.99944     2.01119    0.01531     3.02593
      C    8   -0.10676      0.99961     2.09188    0.01527     3.10676
      C    9   -0.12809      0.99954     2.12022    0.00834     3.12809
      C   10    0.13142      0.99971     1.84753    0.02135     2.86858
      N   11   -0.17194      0.99979     2.66128    0.01087     3.67194
      C   12   -0.08760      0.99958     2.06801    0.02002     3.08760
      C   13   -0.00851      0.99946     1.99011    0.01894     3.00851
      N   14    0.30949      0.99977     2.16373    0.02700     3.19051
      O   15   -0.19617      0.99991     3.17797    0.01830     4.19617
      O   16   -0.23263      0.99991     3.21403    0.01869     4.23263
      O   17   -0.30034      0.99986     3.28360    0.01688     4.30034
      C   18    0.03402      0.99959     1.95693    0.00946     2.96598
      C   19   -0.31067      0.99970     2.29929    0.01169     3.31067
      H   20    0.10047      0.00000     0.39835    0.00118     0.39953
      H   21    0.09707      0.00000     0.40205    0.00088     0.40293
      H   22    0.10517      0.00000     0.39372    0.00111     0.39483
      H   23    0.08857      0.00000     0.41025    0.00118     0.41143
      H   24    0.08298      0.00000     0.41551    0.00151     0.41702
      H   25    0.10025      0.00000     0.39830    0.00145     0.39975
      H   26    0.09576      0.00000     0.40279    0.00146     0.40424
      H   27    0.11766      0.00000     0.37986    0.00249     0.38234
      H   28    0.11151      0.00000     0.38757    0.00092     0.38849
      H   29    0.07777      0.00000     0.41953    0.00270     0.42223
      H   30    0.07805      0.00000     0.41975    0.00220     0.42195
      H   31    0.10659      0.00000     0.39208    0.00132     0.39341
      H   32    0.09471      0.00000     0.40414    0.00116     0.40529
      H   33    0.09796      0.00000     0.40071    0.00134     0.40204
 =======================================================================
   * Total *    0.01467     18.99323    49.68093    0.31117    68.98533

 Normal termination of Gaussian 16 at Sun Dec 13 17:23:48 2020.
