 Gaussian 16, Revision A.03,

 -----------------------------------------------------------
 # opt freq B3LYP/6-31G(d) empiricaldispersion=gd3bj scf=xqc
 -----------------------------------------------------------

 ------------------------------
 CID_80594013_JID_9288_neutraal
 ------------------------------
 Symbolic Z-matrix:
 Charge =  0 Multiplicity = 1

 SCF Done:  E(RB3LYP) =  -1222.45092089     A.U. after   14 cycles
 SCF Done:  E(RB3LYP) =  -1222.44879972     A.U. after   13 cycles
 SCF Done:  E(RB3LYP) =  -1222.45581756     A.U. after   13 cycles
 SCF Done:  E(RB3LYP) =  -1222.45641685     A.U. after   13 cycles
 SCF Done:  E(RB3LYP) =  -1222.45772865     A.U. after   12 cycles
 SCF Done:  E(RB3LYP) =  -1222.45790129     A.U. after   12 cycles
 SCF Done:  E(RB3LYP) =  -1222.45813936     A.U. after   12 cycles
 SCF Done:  E(RB3LYP) =  -1222.45833158     A.U. after   12 cycles
 SCF Done:  E(RB3LYP) =  -1222.45856171     A.U. after   13 cycles
 SCF Done:  E(RB3LYP) =  -1222.45890987     A.U. after   13 cycles
 SCF Done:  E(RB3LYP) =  -1222.46491247     A.U. after    8 cycles
 SCF Done:  E(RB3LYP) =  -1222.46491317     A.U. after    8 cycles
 SCF Done:  E(RB3LYP) =  -1222.46491372     A.U. after    9 cycles
 SCF Done:  E(RB3LYP) =  -1222.46491411     A.U. after    8 cycles
 SCF Done:  E(RB3LYP) =  -1222.46491461     A.U. after    8 cycles
 SCF Done:  E(RB3LYP) =  -1222.46491481     A.U. after    8 cycles
 Optimization completed.
    -- Stationary point found.
 Normal termination of Gaussian 16 at Sat Dec 12 09:55:46 2020.

 --------------------------------------------------------------------
 #N Geom=AllCheck Guess=TCheck SCRF=Check GenChk RB3LYP/6-31G(d) Freq
 --------------------------------------------------------------------

 Structure from the checkpoint file:  "JID_9288.chk"
 ------------------------------
 CID_80594013_JID_9288_neutraal
 ------------------------------
 Charge =  0 Multiplicity = 1

 SCF Done:  E(RB3LYP) =  -1222.46491481     A.U. after    1 cycles

  Exact polarizability: 194.429   4.064 184.777  30.418   1.707 136.272
 Approx polarizability: 269.650   4.895 293.420  71.431   7.045 246.507

                      1                      2                      3
                      A                      A                      A
 Frequencies --     20.6626                38.4325                57.6742
 Red. masses --      5.9457                 5.2087                 5.2754
 Frc consts  --      0.0015                 0.0045                 0.0103
 IR Inten    --      0.3531                 0.0830                 0.6643

                      4                      5                      6
                      A                      A                      A
 Frequencies --     64.8571                84.9278               101.7005
 Red. masses --      6.3028                 7.1404                 2.6380
 Frc consts  --      0.0156                 0.0303                 0.0161
 IR Inten    --      0.4855                 1.9339                 1.3517

                      7                      8                      9
                      A                      A                      A
 Frequencies --    115.0611               133.4460               168.4859
 Red. masses --      2.6889                 1.7341                 4.4078
 Frc consts  --      0.0210                 0.0182                 0.0737
 IR Inten    --      1.1573                 0.3000                 1.7883

                     10                     11                     12
                      A                      A                      A
 Frequencies --    201.5647               219.8269               233.9993
 Red. masses --      3.9417                 4.1699                 3.4299
 Frc consts  --      0.0944                 0.1187                 0.1107
 IR Inten    --      0.8753                 0.8296                 0.7115

                     13                     14                     15
                      A                      A                      A
 Frequencies --    261.9547               281.6335               332.2303
 Red. masses --      3.0871                 3.5793                 3.5764
 Frc consts  --      0.1248                 0.1673                 0.2326
 IR Inten    --      0.3692                10.5177                 1.0094

                     16                     17                     18
                      A                      A                      A
 Frequencies --    345.5511               354.6326               366.0577
 Red. masses --      2.1508                 4.7042                 4.9022
 Frc consts  --      0.1513                 0.3486                 0.3870
 IR Inten    --      0.9849                 2.1545                 3.6860

                     19                     20                     21
                      A                      A                      A
 Frequencies --    380.5592               400.2687               451.6118
 Red. masses --      5.3890                 4.1994                 5.3184
 Frc consts  --      0.4598                 0.3964                 0.6391
 IR Inten    --      5.2081                 3.3634                10.5184

                     22                     23                     24
                      A                      A                      A
 Frequencies --    479.5131               493.0532               516.9730
 Red. masses --      3.1106                 2.2968                 3.9966
 Frc consts  --      0.4214                 0.3290                 0.6293
 IR Inten    --     10.5552                 2.5930                 2.1140

                     25                     26                     27
                      A                      A                      A
 Frequencies --    531.5951               558.5791               606.0930
 Red. masses --      2.5632                 2.9720                 5.3422
 Frc consts  --      0.4268                 0.5463                 1.1562
 IR Inten    --     18.1295                13.2767                10.9495

                     28                     29                     30
                      A                      A                      A
 Frequencies --    618.7703               649.1036               661.1480
 Red. masses --      1.3407                 4.4782                 4.0727
 Frc consts  --      0.3024                 1.1117                 1.0489
 IR Inten    --     80.8576                28.7459                28.3195

                     31                     32                     33
                      A                      A                      A
 Frequencies --    676.6805               684.9705               723.8549
 Red. masses --      3.1193                 2.8979                 4.0966
 Frc consts  --      0.8415                 0.8011                 1.2647
 IR Inten    --     17.5573                88.5249                 6.3644

                     34                     35                     36
                      A                      A                      A
 Frequencies --    750.1925               778.0913               789.5525
 Red. masses --      4.3543                 2.1088                 2.3530
 Frc consts  --      1.4438                 0.7522                 0.8643
 IR Inten    --     61.5559                56.2051                10.5260

                     37                     38                     39
                      A                      A                      A
 Frequencies --    803.3438               824.9985               826.9563
 Red. masses --      3.4906                 2.5628                 2.5872
 Frc consts  --      1.3273                 1.0277                 1.0424
 IR Inten    --     33.2106                 4.2614                 0.4143

                     40                     41                     42
                      A                      A                      A
 Frequencies --    855.1038               907.0887               921.1424
 Red. masses --      2.0087                 3.4584                 2.3824
 Frc consts  --      0.8654                 1.6766                 1.1910
 IR Inten    --      5.9410                 8.5970                 1.2319

                     43                     44                     45
                      A                      A                      A
 Frequencies --    935.5694               939.8032               951.8292
 Red. masses --      1.4054                 2.0136                 2.8062
 Frc consts  --      0.7248                 1.0479                 1.4979
 IR Inten    --      0.1424                 7.2723                 1.2992

                     46                     47                     48
                      A                      A                      A
 Frequencies --    983.6562               991.9582              1030.9567
 Red. masses --      1.3031                 2.3023                 1.6604
 Frc consts  --      0.7429                 1.3348                 1.0398
 IR Inten    --      0.5963                 2.4641                 6.4213

                     49                     50                     51
                      A                      A                      A
 Frequencies --   1051.0699              1081.6735              1095.9538
 Red. masses --      1.9720                 1.5035                 1.5402
 Frc consts  --      1.2836                 1.0365                 1.0900
 IR Inten    --      1.3713                 5.0207                 4.0388

                     52                     53                     54
                      A                      A                      A
 Frequencies --   1118.5240              1129.3829              1161.4659
 Red. masses --      2.0618                 1.8002                 1.2931
 Frc consts  --      1.5198                 1.3528                 1.0277
 IR Inten    --      6.1816                11.3745                30.2272

                     55                     56                     57
                      A                      A                      A
 Frequencies --   1171.1467              1189.8562              1207.2938
 Red. masses --      3.0385                 1.1470                 1.2936
 Frc consts  --      2.4555                 0.9568                 1.1109
 IR Inten    --    213.0987                 3.6643                40.5145

                     58                     59                     60
                      A                      A                      A
 Frequencies --   1234.3719              1245.2333              1260.6827
 Red. masses --      1.9621                 2.5423                 1.4106
 Frc consts  --      1.7614                 2.3226                 1.3209
 IR Inten    --     99.7123                87.7658                 6.3770

                     61                     62                     63
                      A                      A                      A
 Frequencies --   1278.1258              1299.0600              1305.3643
 Red. masses --      1.6695                 1.4667                 1.7758
 Frc consts  --      1.6069                 1.4583                 1.7828
 IR Inten    --     36.7331                18.7254                54.4032

                     64                     65                     66
                      A                      A                      A
 Frequencies --   1314.8541              1345.8587              1351.0325
 Red. masses --      1.4439                 6.1795                 1.1974
 Frc consts  --      1.4708                 6.5948                 1.2877
 IR Inten    --     26.1258                 9.1867                 4.3834

                     67                     68                     69
                      A                      A                      A
 Frequencies --   1386.9844              1393.9475              1401.8734
 Red. masses --      1.9583                 1.3730                 2.5698
 Frc consts  --      2.2196                 1.5718                 2.9755
 IR Inten    --    126.2754                 3.7078                89.0917

                     70                     71                     72
                      A                      A                      A
 Frequencies --   1412.4499              1429.2498              1447.9246
 Red. masses --      1.4614                 1.5617                 1.2561
 Frc consts  --      1.7178                 1.8796                 1.5516
 IR Inten    --      8.6472                36.1184                 7.8699

                     73                     74                     75
                      A                      A                      A
 Frequencies --   1470.1613              1494.8746              1501.6672
 Red. masses --      1.8174                 1.0898                 2.1968
 Frc consts  --      2.3144                 1.4349                 2.9187
 IR Inten    --     23.2929                 3.3425                66.3644

                     76                     77                     78
                      A                      A                      A
 Frequencies --   1503.6875              1510.7087              1511.2929
 Red. masses --      1.1005                 1.0800                 1.0906
 Frc consts  --      1.4661                 1.4522                 1.4677
 IR Inten    --      5.5479                10.6447                 4.8428

                     79                     80                     81
                      A                      A                      A
 Frequencies --   1520.7487              1525.8370              1537.8990
 Red. masses --      1.7399                 1.1076                 1.3795
 Frc consts  --      2.3707                 1.5193                 1.9223
 IR Inten    --      2.9400                12.0652                31.0153

                     82                     83                     84
                      A                      A                      A
 Frequencies --   1647.8283              1649.5943              1775.4313
 Red. masses --      5.9706                 5.4403                 8.3017
 Frc consts  --      9.5520                 8.7222                15.4179
 IR Inten    --     16.8827                17.1469               411.3353

                     85                     86                     87
                      A                      A                      A
 Frequencies --   1802.2999              3033.0062              3035.5533
 Red. masses --      9.1251                 1.0607                 1.0606
 Frc consts  --     17.4640                 5.7491                 5.7582
 IR Inten    --    201.1767                27.0329                30.6498

                     88                     89                     90
                      A                      A                      A
 Frequencies --   3048.2718              3058.0166              3068.0589
 Red. masses --      1.0442                 1.0685                 1.0915
 Frc consts  --      5.7164                 5.8873                 6.0534
 IR Inten    --     21.1944                72.5324                14.7431

                     91                     92                     93
                      A                      A                      A
 Frequencies --   3075.5551              3080.3014              3108.4007
 Red. masses --      1.1031                 1.0702                 1.0911
 Frc consts  --      6.1478                 5.9829                 6.2115
 IR Inten    --     17.0629                32.0413                22.5300

                     94                     95                     96
                      A                      A                      A
 Frequencies --   3129.4120              3136.5448              3145.6169
 Red. masses --      1.1074                 1.0951                 1.1029
 Frc consts  --      6.3898                 6.3475                 6.4297
 IR Inten    --      6.2006                15.2555                 7.2096

                     97                     98                     99
                      A                      A                      A
 Frequencies --   3147.5836              3187.0894              3209.6209
 Red. masses --      1.0837                 1.0882                 1.0927
 Frc consts  --      6.3259                 6.5126                 6.6321
 IR Inten    --      7.3551                 8.9815                17.1115

                    100                    101                    102
                      A                      A                      A
 Frequencies --   3239.2985              3541.6703              3696.5302
 Red. masses --      1.0931                 1.0740                 1.0641
 Frc consts  --      6.7581                 7.9371                 8.5667
 IR Inten    --      3.7727                93.0588                77.4026

 - Thermochemistry -
 -------------------
 Temperature   298.150 Kelvin.  Pressure   1.00000 Atm.
 Atom     1 has atomic number  6 and mass  12.00000

 Molecular mass:   279.09292 amu.
 Principal axes and moments of inertia in atomic units:
                           1         2         3
     Eigenvalues --  3397.399886492.926357806.17266
           X            0.99994   0.01087   0.00024
           Y           -0.01087   0.99993  -0.00497
           Z           -0.00030   0.00497   0.99999
 This molecule is an asymmetric top.
 Rotational symmetry number  1.
 Warning -- assumption of classical behavior for rotation
           may cause significant error
 Rotational temperatures (Kelvin)      0.02549     0.01334     0.01110
 Rotational constants (GHZ):           0.53121     0.27795     0.23119
 Zero-point vibrational energy     776446.1 (Joules/Mol)
                                  185.57508 (Kcal/Mol)
 Warning -- explicit consideration of  28 degrees of freedom as
           vibrations may cause significant error
 Vibrational temperatures:     29.73    55.30    82.98    93.31   122.19
          (Kelvin)            146.32   165.55   192.00   242.41   290.01
                              316.28   336.67   376.89   405.21   478.01
                              497.17   510.24   526.68   547.54   575.90
                              649.77   689.91   709.39   743.81   764.85
                              803.67   872.03   890.27   933.92   951.24
                              973.59   985.52  1041.47  1079.36  1119.50
                             1135.99  1155.83  1186.99  1189.81  1230.30
                             1305.10  1325.32  1346.08  1352.17  1369.47
                             1415.26  1427.21  1483.32  1512.26  1556.29
                             1576.83  1609.31  1624.93  1671.09  1685.02
                             1711.94  1737.03  1775.99  1791.61  1813.84
                             1838.94  1869.06  1878.13  1891.78  1936.39
                             1943.83  1995.56  2005.58  2016.98  2032.20
                             2056.37  2083.24  2115.23  2150.79  2160.56
                             2163.47  2173.57  2174.41  2188.02  2195.34
                             2212.69  2370.86  2373.40  2554.45  2593.11
                             4363.82  4367.48  4385.78  4399.80  4414.25
                             4425.04  4431.87  4472.30  4502.53  4512.79
                             4525.84  4528.67  4585.51  4617.93  4660.63
                             5095.67  5318.48

 Zero-point correction=                           0.295733 (Hartree/Particle)
 Thermal correction to Energy=                    0.313566
 Thermal correction to Enthalpy=                  0.314510
 Thermal correction to Gibbs Free Energy=         0.248809
 Sum of electronic and zero-point Energies=          -1222.169182
 Sum of electronic and thermal Energies=             -1222.151349
 Sum of electronic and thermal Enthalpies=           -1222.150405
 Sum of electronic and thermal Free Energies=        -1222.216106

                     E (Thermal)             CV                S
                      KCal/Mol        Cal/Mol-Kelvin    Cal/Mol-Kelvin
 Total                  196.766             68.505            138.280
 Electronic               0.000              0.000              0.000
 Translational            0.889              2.981             42.777
 Rotational               0.889              2.981             33.509
 Vibrational            194.988             62.543             61.993
 Vibration     1          0.593              1.986              6.569
 Vibration     2          0.594              1.982              5.338
 Vibration     3          0.596              1.974              4.535
 Vibration     4          0.597              1.971              4.304
 Vibration     5          0.601              1.960              3.774
 Vibration     6          0.604              1.948              3.421
 Vibration     7          0.608              1.937              3.182
 Vibration     8          0.613              1.920              2.896
 Vibration     9          0.625              1.881              2.452
 Vibration    10          0.638              1.838              2.119
 Vibration    11          0.647              1.811              1.961
 Vibration    12          0.654              1.789              1.848
 Vibration    13          0.669              1.742              1.649
 Vibration    14          0.681              1.708              1.524
 Vibration    15          0.714              1.611              1.249
 Vibration    16          0.724              1.584              1.186
 Vibration    17          0.730              1.566              1.146
 Vibration    18          0.739              1.542              1.096
 Vibration    19          0.750              1.512              1.037
 Vibration    20          0.766              1.470              0.962
 Vibration    21          0.810              1.357              0.791
 Vibration    22          0.836              1.295              0.711
 Vibration    23          0.849              1.265              0.676
 Vibration    24          0.872              1.212              0.617
 Vibration    25          0.887              1.180              0.584
 Vibration    26          0.914              1.121              0.527
 Vibration    27          0.965              1.019              0.439
 Vibration    28          0.979              0.992              0.418

 Optimization completed.
    -- Stationary point found.
 Normal termination of Gaussian 16 at Sat Dec 12 10:15:34 2020.

 ----------------------------------------------------------------------
 # B3LYP/6-311++G(d,p) empiricaldispersion=gd3bj scf=xqc pop=npa geom=c
 heck
 ----------------------------------------------------------------------

 --------------------------------------
 CID_80594013_JID_9288_Energie_neutraal
 --------------------------------------
 Structure from the checkpoint file:  "JID_9288.chk"
 Charge =  0 Multiplicity = 1

 SCF Done:  E(RB3LYP) =  -1222.72753776     A.U. after   15 cycles
 Normal termination of Gaussian 16 at Sat Dec 12 10:24:05 2020.

 ----------------------------------------------------------------------
 # B3LYP/6-311++G(d,p) empiricaldispersion=gd3bj scf=xqc pop=npa geom=c
 heck
 ----------------------------------------------------------------------

 ------------------------------------
 CID_80594013_JID_9288_Energie_kation
 ------------------------------------
 Structure from the checkpoint file:  "JID_9288.chk"
 Charge =  1 Multiplicity = 2

 SCF Done:  E(UB3LYP) =  -1222.43597544     A.U. after   26 cycles
 Normal termination of Gaussian 16 at Sat Dec 12 10:45:16 2020.
 Gaussian 16:  ES64L-G16RevA.03 25-Dec-2016

 ----------------------------------------------------------------------
 # B3LYP/6-311++G(d,p) empiricaldispersion=gd3bj scf=xqc pop=npa geom=c
 heck
 ----------------------------------------------------------------------

 -----------------------------------
 CID_80594013_JID_9288_Energie_anion
 -----------------------------------
 Structure from the checkpoint file:  "JID_9288.chk"
 Charge = -1 Multiplicity = 2

                         Standard orientation:
 ---------------------------------------------------------------------
 Center     Atomic      Atomic             Coordinates (Angstroms)
 Number     Number       Type             X           Y           Z
 ---------------------------------------------------------------------
      1          6           0       -1.110343   -3.054028    0.624563
      2          6           0       -1.813108   -1.837524    0.074675
      3          6           0       -1.478507   -0.542958    0.516510
      4          6           0       -2.200558    0.575269    0.041838
      5          6           0       -3.220884    0.397440   -0.900234
      6          6           0       -3.532014   -0.875896   -1.362181
      7          6           0       -2.834838   -1.977584   -0.870260
      8          6           0       -1.899576    1.933438    0.557075
      9          8           0       -1.318167    2.189463    1.597452
     10          8           0       -2.371273    2.916324   -0.245843
     11          7           0       -0.428367   -0.381612    1.453395
     12          6           0        0.928456   -0.439290    1.156377
     13          8           0        1.751602   -0.144048    2.011778
     14          6           0        1.321316   -0.781376   -0.275706
     15          6           0        2.666843   -1.505710   -0.413549
     16          6           0        3.911603   -0.689085   -0.032121
     17          6           0        4.028183    0.639909   -0.789348
     18          6           0        2.819840    1.550191   -0.568391
     19         16           0        1.274674    0.807988   -1.226546
     20          1           0       -0.165651   -3.260117    0.105087
     21          1           0       -0.868455   -2.918287    1.682272
     22          1           0       -1.739513   -3.942086    0.514886
     23          1           0       -3.761286    1.264375   -1.260858
     24          1           0       -4.324387   -1.012759   -2.091440
     25          1           0       -3.097686   -2.976101   -1.209891
     26          1           0       -2.139122    3.751483    0.200876
     27          1           0       -0.610121    0.308193    2.177421
     28          1           0        0.543009   -1.375106   -0.754096
     29          1           0        2.750066   -1.829679   -1.458435
     30          1           0        2.628961   -2.413771    0.203064
     31          1           0        3.889938   -0.491858    1.042116
     32          1           0        4.799337   -1.300014   -0.238017
     33          1           0        4.930361    1.168159   -0.452514
     34          1           0        4.144882    0.455335   -1.865351
     35          1           0        2.678902    1.765563    0.495198
     36          1           0        2.928773    2.499458   -1.101938
 ---------------------------------------------------------------------

 SCF Done:  E(UB3LYP) =  -1222.73950061     A.U. after   29 cycles

 The electronic state is 2-A.
 Alpha  occ. eigenvalues --  -88.72853 -19.01637 -18.96843 -18.94269 -14.19775
 Alpha  occ. eigenvalues --  -10.15044 -10.12514 -10.09745 -10.09141 -10.07666
 Alpha  occ. eigenvalues --  -10.07530 -10.06707 -10.06002 -10.04955 -10.04228
 Alpha  occ. eigenvalues --  -10.02699 -10.02328 -10.02051 -10.01688  -7.81457
 Alpha  occ. eigenvalues --   -5.77846  -5.77508  -5.76798  -0.95400  -0.91993
 Alpha  occ. eigenvalues --   -0.85877  -0.79649  -0.73525  -0.70698  -0.66356
 Alpha  occ. eigenvalues --   -0.64990  -0.64300  -0.60613  -0.56111  -0.53923
 Alpha  occ. eigenvalues --   -0.52023  -0.51214  -0.47888  -0.46057  -0.44745
 Alpha  occ. eigenvalues --   -0.41811  -0.38771  -0.38315  -0.36360  -0.35603
 Alpha  occ. eigenvalues --   -0.34958  -0.34325  -0.33830  -0.32682  -0.31503
 Alpha  occ. eigenvalues --   -0.30627  -0.30289  -0.29791  -0.29540  -0.28903
 Alpha  occ. eigenvalues --   -0.28320  -0.26579  -0.26304  -0.26126  -0.25411
 Alpha  occ. eigenvalues --   -0.24963  -0.23547  -0.22301  -0.21740  -0.21483
 Alpha  occ. eigenvalues --   -0.21103  -0.19659  -0.17845  -0.15486  -0.14625
 Alpha  occ. eigenvalues --   -0.12806  -0.11404  -0.10974  -0.09859   0.04669
 Alpha virt. eigenvalues --    0.06987   0.08328   0.08895   0.09552   0.09696
 Alpha virt. eigenvalues --    0.09756   0.10317   0.11052   0.11510   0.11877
 Alpha virt. eigenvalues --    0.12484   0.12749   0.13195   0.13352   0.13392

  Beta  occ. eigenvalues --  -88.72848 -19.01557 -18.96808 -18.93923 -14.19812
  Beta  occ. eigenvalues --  -10.14982 -10.12202 -10.09745 -10.09140 -10.07666
  Beta  occ. eigenvalues --  -10.07529 -10.06706 -10.05751 -10.04950 -10.04320
  Beta  occ. eigenvalues --  -10.02719 -10.02196 -10.01828 -10.01313  -7.81452
  Beta  occ. eigenvalues --   -5.77839  -5.77503  -5.76792  -0.95049  -0.91915
  Beta  occ. eigenvalues --   -0.85364  -0.79480  -0.73515  -0.70373  -0.66341
  Beta  occ. eigenvalues --   -0.64979  -0.64060  -0.60068  -0.55818  -0.53874
  Beta  occ. eigenvalues --   -0.52007  -0.50466  -0.47818  -0.45952  -0.44459
  Beta  occ. eigenvalues --   -0.41694  -0.38719  -0.38160  -0.36286  -0.35366
  Beta  occ. eigenvalues --   -0.34941  -0.34175  -0.33545  -0.32415  -0.31308
  Beta  occ. eigenvalues --   -0.30584  -0.30187  -0.29495  -0.28935  -0.28438
  Beta  occ. eigenvalues --   -0.28175  -0.26523  -0.26164  -0.25999  -0.25395
  Beta  occ. eigenvalues --   -0.24708  -0.23531  -0.21896  -0.21533  -0.21113
  Beta  occ. eigenvalues --   -0.20761  -0.19620  -0.16526  -0.15000  -0.14574
  Beta  occ. eigenvalues --   -0.12315  -0.10951  -0.09873  -0.08901
  Beta virt. eigenvalues --    0.06949   0.08260   0.08848   0.09457   0.09660
  Beta virt. eigenvalues --    0.09701   0.10376   0.10775   0.11048   0.11485
  Beta virt. eigenvalues --    0.12094   0.12501   0.12938   0.13266   0.13318

 Mulliken charges and spin densities:
               1          2
     1  C   -0.469871  -0.016400
     2  C    0.387784  -0.028857
     3  C   -0.100417   0.140992
     4  C    0.432549   0.130369
     5  C   -0.315139   0.159135
     6  C   -0.481072  -0.025789
     7  C   -0.445204   0.289810
     8  C   -0.270350   0.182515
     9  O   -0.379410   0.113630
    10  O   -0.155216   0.014928
    11  N   -0.062747  -0.018787
    12  C   -0.858154   0.030172
    13  O   -0.290076   0.016785
    14  C    0.616030   0.019670
    15  C   -0.339658  -0.040614
    16  C   -0.308680   0.009165
    17  C   -0.307754  -0.008407
    18  C   -0.530288  -0.000976
    19  S   -0.094580   0.000995
    20  H    0.111076   0.020539
    21  H    0.176429  -0.000094
    22  H    0.142185  -0.004795
    23  H    0.150496  -0.001882
    24  H    0.107318   0.003054
    25  H    0.093588  -0.017640
    26  H    0.239034   0.000502
    27  H    0.300606   0.008998
    28  H    0.378124  -0.000804
    29  H    0.129605   0.017225
    30  H    0.148353  -0.000690
    31  H    0.203218   0.000730
    32  H    0.136123   0.001073
    33  H    0.136045  -0.000124
    34  H    0.097250   0.001818
    35  H    0.226793   0.003511
    36  H    0.196011   0.000241
 Sum of Mulliken charges =  -1.00000   1.00000

 Dipole moment (field-independent basis, Debye):
    X=              5.1933    Y=             -1.2647    Z=             -2.2855  Tot=              5.8132
 Quadrupole moment (field-independent basis, Debye-Ang):
   XX=           -153.8183   YY=           -133.8109   ZZ=           -144.9696
   XY=              0.6927   XZ=             -5.6646   YZ=             -4.1986

 Summary of Natural Population Analysis:

                                       Natural Population
                Natural  -----------------------------------------------
    Atom  No    Charge         Core      Valence    Rydberg      Total
 -----------------------------------------------------------------------
      C    1   -0.29074      0.99964     2.28637    0.00473     3.29074
      C    2   -0.05602      0.99948     2.04682    0.00972     3.05602
      C    3    0.12312      0.99941     1.86445    0.01303     2.87688
      C    4   -0.04333      0.99942     2.03482    0.00909     3.04333
      C    5   -0.05808      0.99955     2.05030    0.00824     3.05808
      C    6   -0.11974      0.99957     2.11108    0.00909     3.11974
      C    7   -0.02878      0.99952     2.02094    0.00831     3.02878
      C    8    0.44001      0.99966     1.53688    0.02344     2.55999
      O    9   -0.30964      0.99987     3.30244    0.00734     4.30964
      O   10   -0.35211      0.99988     3.34418    0.00805     4.35211
      N   11   -0.32737      0.99964     2.81584    0.01189     3.82737
      C   12    0.34952      0.99962     1.62627    0.02459     2.65048
      O   13   -0.33048      0.99987     3.32426    0.00635     4.33048
      C   14   -0.21089      0.99951     2.19484    0.01654     3.21089
      C   15   -0.18959      0.99961     2.18122    0.00876     3.18959
      C   16   -0.19420      0.99962     2.18714    0.00744     3.19420
      C   17   -0.19333      0.99963     2.18658    0.00712     3.19333
      C   18   -0.25547      0.99960     2.24673    0.00914     3.25547
      S   19    0.11050      4.99964     2.87091    0.01895     7.88950
      H   20    0.09240      0.00000     0.40604    0.00157     0.40760
      H   21    0.10548      0.00000     0.39351    0.00102     0.39452
      H   22    0.09693      0.00000     0.40223    0.00084     0.40307
      H   23    0.09994      0.00000     0.39900    0.00107     0.40006
      H   24    0.08905      0.00000     0.40932    0.00163     0.41095
      H   25    0.08399      0.00000     0.41467    0.00134     0.41601
      H   26    0.23072      0.00000     0.26623    0.00306     0.26928
      H   27    0.21575      0.00000     0.28255    0.00170     0.28425
      H   28    0.12390      0.00000     0.37404    0.00206     0.37610
      H   29    0.09638      0.00000     0.40187    0.00176     0.40362
      H   30    0.10118      0.00000     0.39769    0.00113     0.39882
      H   31    0.11278      0.00000     0.38611    0.00112     0.38722
      H   32    0.09001      0.00000     0.40882    0.00117     0.40999
      H   33    0.09336      0.00000     0.40537    0.00126     0.40664
      H   34    0.09298      0.00000     0.40573    0.00129     0.40702
      H   35    0.11074      0.00000     0.38786    0.00141     0.38926
      H   36    0.10103      0.00000     0.39782    0.00116     0.39897
 =======================================================================
   * Total *   -0.00000     22.99273    50.77090    0.23638    74.00000

 Normal termination of Gaussian 16 at Sat Dec 12 11:07:25 2020.
