 Gaussian 16, Revision A.03,

 -----------------------------------------------------------
 # opt freq B3LYP/6-31G(d) empiricaldispersion=gd3bj scf=xqc
 -----------------------------------------------------------

 ------------------------------
 CID_97211428_JID_5388_neutraal
 ------------------------------
 Symbolic Z-matrix:
 Charge =  0 Multiplicity = 1

 SCF Done:  E(RB3LYP) =  -711.097639060     A.U. after   15 cycles
 SCF Done:  E(RB3LYP) =  -711.099631530     A.U. after   13 cycles
 SCF Done:  E(RB3LYP) =  -711.093739305     A.U. after   14 cycles
 SCF Done:  E(RB3LYP) =  -711.099774071     A.U. after   12 cycles
 SCF Done:  E(RB3LYP) =  -711.101114714     A.U. after   13 cycles
 SCF Done:  E(RB3LYP) =  -711.103558376     A.U. after   13 cycles
 SCF Done:  E(RB3LYP) =  -711.104144887     A.U. after   12 cycles
 SCF Done:  E(RB3LYP) =  -711.104708373     A.U. after   12 cycles
 SCF Done:  E(RB3LYP) =  -711.105144153     A.U. after   13 cycles
 SCF Done:  E(RB3LYP) =  -711.105456811     A.U. after   12 cycles
 SCF Done:  E(RB3LYP) =  -711.106582135     A.U. after    9 cycles
 SCF Done:  E(RB3LYP) =  -711.106582671     A.U. after    8 cycles
 SCF Done:  E(RB3LYP) =  -711.106582773     A.U. after    7 cycles
 SCF Done:  E(RB3LYP) =  -711.106582792     A.U. after    6 cycles
 Optimization completed.
    -- Stationary point found.
 Normal termination of Gaussian 16 at Thu Dec 10 16:41:05 2020.

 --------------------------------------------------------------------
 #N Geom=AllCheck Guess=TCheck SCRF=Check GenChk RB3LYP/6-31G(d) Freq
 --------------------------------------------------------------------

 Structure from the checkpoint file:  "JID_5388.chk"
 ------------------------------
 CID_97211428_JID_5388_neutraal
 ------------------------------
 Charge =  0 Multiplicity = 1

 SCF Done:  E(RB3LYP) =  -711.106582792     A.U. after    1 cycles

  Exact polarizability: 166.074  10.327 130.886  -6.801   5.753 102.130
 Approx polarizability: 212.561  11.763 188.669 -16.496  13.418 161.644

                      1                      2                      3
                      A                      A                      A
 Frequencies --     12.9879                44.1594                50.7575
 Red. masses --      3.4129                 4.5644                 4.2149
 Frc consts  --      0.0003                 0.0052                 0.0064
 IR Inten    --      0.3160                 2.2211                 0.7115

                      4                      5                      6
                      A                      A                      A
 Frequencies --     79.1189                87.1600                94.6753
 Red. masses --      2.4588                 2.5782                 2.4439
 Frc consts  --      0.0091                 0.0115                 0.0129
 IR Inten    --      0.7165                 0.4639                 0.4812

                      7                      8                      9
                      A                      A                      A
 Frequencies --    104.5526               137.2760               154.4181
 Red. masses --      1.4502                 1.4526                 1.6471
 Frc consts  --      0.0093                 0.0161                 0.0231
 IR Inten    --      0.1357                 0.4798                 0.6741

                     10                     11                     12
                      A                      A                      A
 Frequencies --    167.1896               182.2865               214.9050
 Red. masses --      1.6807                 1.8896                 1.8458
 Frc consts  --      0.0277                 0.0370                 0.0502
 IR Inten    --      0.1296                 0.6403                 1.4697

                     13                     14                     15
                      A                      A                      A
 Frequencies --    223.2249               227.1682               247.2424
 Red. masses --      2.8249                 1.8379                 1.9640
 Frc consts  --      0.0829                 0.0559                 0.0707
 IR Inten    --      0.7659                 1.0296                 6.3137

                     16                     17                     18
                      A                      A                      A
 Frequencies --    268.8878               301.3533               335.6754
 Red. masses --      2.2522                 1.6811                 3.2352
 Frc consts  --      0.0959                 0.0900                 0.2148
 IR Inten    --      0.4020                 1.2443                11.9430

                     19                     20                     21
                      A                      A                      A
 Frequencies --    348.0943               367.9443               384.6252
 Red. masses --      2.7677                 5.1647                 4.9203
 Frc consts  --      0.1976                 0.4120                 0.4289
 IR Inten    --      4.0206                 4.4168                 7.1440

                     22                     23                     24
                      A                      A                      A
 Frequencies --    402.2554               413.1174               465.6533
 Red. masses --      3.2677                 2.9765                 2.2751
 Frc consts  --      0.3115                 0.2993                 0.2907
 IR Inten    --      1.2791                 3.2913                 2.9520

                     25                     26                     27
                      A                      A                      A
 Frequencies --    469.5020               527.7024               580.9240
 Red. masses --      3.2354                 1.4700                 3.4730
 Frc consts  --      0.4202                 0.2412                 0.6906
 IR Inten    --      6.5601                48.9074                 3.6924

                     28                     29                     30
                      A                      A                      A
 Frequencies --    612.7298               682.1693               734.6419
 Red. masses --      3.1185                 3.9066                 3.3406
 Frc consts  --      0.6898                 1.0711                 1.0622
 IR Inten    --     25.4202                20.6207                14.0225

                     31                     32                     33
                      A                      A                      A
 Frequencies --    762.2416               820.6466               828.2225
 Red. masses --      3.2873                 1.3544                 4.7667
 Frc consts  --      1.1253                 0.5374                 1.9265
 IR Inten    --      7.0251                 3.1232                 5.8312

                     34                     35                     36
                      A                      A                      A
 Frequencies --    858.3769               874.7950               911.3596
 Red. masses --      3.8163                 1.5680                 2.4472
 Frc consts  --      1.6567                 0.7070                 1.1975
 IR Inten    --      1.9285                25.4297                 7.3418

                     37                     38                     39
                      A                      A                      A
 Frequencies --    931.6427               976.5630              1002.3846
 Red. masses --      2.5973                 1.4634                 2.1483
 Frc consts  --      1.3282                 0.8223                 1.2718
 IR Inten    --      0.2140                 0.4409                 7.2408

                     40                     41                     42
                      A                      A                      A
 Frequencies --   1016.4904              1020.7162              1030.7639
 Red. masses --      3.1653                 1.4071                 1.8456
 Frc consts  --      1.9270                 0.8637                 1.1554
 IR Inten    --     14.3002                 0.2285                11.9615

                     43                     44                     45
                      A                      A                      A
 Frequencies --   1064.4325              1092.9175              1122.0208
 Red. masses --      1.7659                 1.9309                 1.6718
 Frc consts  --      1.1788                 1.3589                 1.2401
 IR Inten    --     18.2915                22.3088                 1.6087

                     46                     47                     48
                      A                      A                      A
 Frequencies --   1124.3525              1177.4921              1186.6257
 Red. masses --      1.6162                 2.1459                 1.3624
 Frc consts  --      1.2038                 1.7530                 1.1303
 IR Inten    --      8.1327                18.1936                21.4805

                     49                     50                     51
                      A                      A                      A
 Frequencies --   1191.6924              1219.7562              1228.7019
 Red. masses --      2.2596                 2.0468                 1.9499
 Frc consts  --      1.8907                 1.7942                 1.7344
 IR Inten    --     99.0639                68.6914                53.8487

                     52                     53                     54
                      A                      A                      A
 Frequencies --   1237.2106              1283.8771              1333.3467
 Red. masses --      3.6075                 3.0415                 3.2307
 Frc consts  --      3.2535                 2.9539                 3.3841
 IR Inten    --     49.8971               102.9658               261.7162

                     55                     56                     57
                      A                      A                      A
 Frequencies --   1349.6151              1385.2574              1421.8341
 Red. masses --      1.3977                 1.4680                 1.2949
 Frc consts  --      1.5000                 1.6597                 1.5424
 IR Inten    --     17.9442                 4.1268                57.2450

                     58                     59                     60
                      A                      A                      A
 Frequencies --   1440.0018              1441.5786              1449.0624
 Red. masses --      1.3079                 1.2488                 1.2335
 Frc consts  --      1.5979                 1.5290                 1.5261
 IR Inten    --     20.3474                 2.4076                11.6577

                     61                     62                     63
                      A                      A                      A
 Frequencies --   1455.2031              1473.8755              1489.6367
 Red. masses --      1.5573                 1.4845                 1.2066
 Frc consts  --      1.9429                 1.9000                 1.5775
 IR Inten    --     13.4745                43.3242                 5.5574

                     64                     65                     66
                      A                      A                      A
 Frequencies --   1497.1296              1504.0276              1511.9996
 Red. masses --      1.0661                 1.0519                 1.0479
 Frc consts  --      1.4079                 1.4020                 1.4115
 IR Inten    --      9.0455                10.1590                 4.7788

                     67                     68                     69
                      A                      A                      A
 Frequencies --   1514.9338              1520.7593              1522.6803
 Red. masses --      1.0684                 1.0910                 1.0592
 Frc consts  --      1.4447                 1.4866                 1.4469
 IR Inten    --      1.8026                20.2635                16.8597

                     70                     71                     72
                      A                      A                      A
 Frequencies --   1524.3436              1529.5682              1529.8473
 Red. masses --      1.0697                 1.0461                 1.0481
 Frc consts  --      1.4644                 1.4420                 1.4453
 IR Inten    --     12.8251                 7.8853                12.7838

                     73                     74                     75
                      A                      A                      A
 Frequencies --   1532.9077              1540.7927              1716.5200
 Red. masses --      1.0751                 1.0476                 6.1589
 Frc consts  --      1.4884                 1.4654                10.6919
 IR Inten    --      9.2832                 3.5729               128.8199

                     76                     77                     78
                      A                      A                      A
 Frequencies --   1761.9913              1826.6980              3030.4695
 Red. masses --      6.9579                11.5888                 1.0398
 Frc consts  --     12.7273                22.7836                 5.6262
 IR Inten    --    326.3738               145.9016                 7.5709

                     79                     80                     81
                      A                      A                      A
 Frequencies --   3036.9847              3047.4013              3060.0892
 Red. masses --      1.0414                 1.0630                 1.0360
 Frc consts  --      5.6594                 5.8165                 5.7159
 IR Inten    --     53.5824                18.6978                21.3349

                     82                     83                     84
                      A                      A                      A
 Frequencies --   3075.3132              3075.9645              3078.3957
 Red. masses --      1.0384                 1.0987                 1.0292
 Frc consts  --      5.7863                 6.1248                 5.7465
 IR Inten    --     15.2888                 5.5584                25.0284

                     85                     86                     87
                      A                      A                      A
 Frequencies --   3082.2712              3099.7060              3125.3194
 Red. masses --      1.0988                 1.1004                 1.1020
 Frc consts  --      6.1506                 6.2293                 6.3421
 IR Inten    --     34.7780                 3.3561                33.5873

                     88                     89                     90
                      A                      A                      A
 Frequencies --   3126.3305              3134.5192              3146.5902
 Red. masses --      1.1009                 1.1026                 1.0997
 Frc consts  --      6.3394                 6.3830                 6.4149
 IR Inten    --     23.5514                33.6446                19.4831

                     91                     92                     93
                      A                      A                      A
 Frequencies --   3155.2687              3163.9805              3186.5121
 Red. masses --      1.1076                 1.1024                 1.1076
 Frc consts  --      6.4967                 6.5021                 6.6261
 IR Inten    --     16.8168                28.4110                14.7035

                     94                     95                     96
                      A                      A                      A
 Frequencies --   3202.4872              3208.3151              3590.4199
 Red. masses --      1.0955                 1.0868                 1.0759
 Frc consts  --      6.6196                 6.5913                 8.1719
 IR Inten    --      1.9003                 9.4590                27.5516

 - Thermochemistry -
 -------------------
 Temperature   298.150 Kelvin.  Pressure   1.00000 Atm.
 Atom     1 has atomic number  6 and mass  12.00000

 Molecular mass:   213.13649 amu.
 Principal axes and moments of inertia in atomic units:
                           1         2         3
     Eigenvalues --  2100.994054200.039665303.60602
           X            0.99947   0.03221  -0.00443
           Y           -0.03220   0.99948   0.00350
           Z            0.00454  -0.00336   0.99998
 This molecule is an asymmetric top.
 Rotational symmetry number  1.
 Warning -- assumption of classical behavior for rotation
           may cause significant error
 Rotational temperatures (Kelvin)      0.04123     0.02062     0.01633
 Rotational constants (GHZ):           0.85899     0.42970     0.34029
 Zero-point vibrational energy     770309.1 (Joules/Mol)
                                  184.10830 (Kcal/Mol)
 Warning -- explicit consideration of  28 degrees of freedom as
           vibrations may cause significant error
 Vibrational temperatures:     18.69    63.54    73.03   113.83   125.40
          (Kelvin)            136.22   150.43   197.51   222.17   240.55
                              262.27   309.20   321.17   326.84   355.73
                              386.87   433.58   482.96   500.83   529.39
                              553.39   578.76   594.38   669.97   675.51
                              759.25   835.82   881.58   981.49  1056.99
                             1096.70  1180.73  1191.63  1235.01  1258.63
                             1311.24  1340.43  1405.06  1442.21  1462.50
                             1468.58  1483.04  1531.48  1572.46  1614.34
                             1617.69  1694.15  1707.29  1714.58  1754.96
                             1767.83  1780.07  1847.21  1918.39  1941.80
                             1993.08  2045.70  2071.84  2074.11  2084.88
                             2093.71  2120.58  2143.25  2154.04  2163.96
                             2175.43  2179.65  2188.03  2190.80  2193.19
                             2200.71  2201.11  2205.51  2216.86  2469.69
                             2535.11  2628.21  4360.17  4369.54  4384.53
                             4402.79  4424.69  4425.63  4429.12  4434.70
                             4459.79  4496.64  4498.09  4509.87  4527.24
                             4539.73  4552.26  4584.68  4607.66  4616.05
                             5165.81

 Zero-point correction=                           0.293395 (Hartree/Particle)
 Thermal correction to Energy=                    0.311509
 Thermal correction to Enthalpy=                  0.312453
 Thermal correction to Gibbs Free Energy=         0.246239
 Sum of electronic and zero-point Energies=           -710.813188
 Sum of electronic and thermal Energies=              -710.795074
 Sum of electronic and thermal Enthalpies=            -710.794129
 Sum of electronic and thermal Free Energies=         -710.860344

                     E (Thermal)             CV                S
                      KCal/Mol        Cal/Mol-Kelvin    Cal/Mol-Kelvin
 Total                  195.475             64.685            139.361
 Electronic               0.000              0.000              0.000
 Translational            0.889              2.981             41.974
 Rotational               0.889              2.981             32.215
 Vibrational            193.698             58.724             65.172
 Vibration     1          0.593              1.987              7.492
 Vibration     2          0.595              1.980              5.063
 Vibration     3          0.595              1.977              4.788
 Vibration     4          0.600              1.963              3.913
 Vibration     5          0.601              1.958              3.723
 Vibration     6          0.603              1.953              3.561
 Vibration     7          0.605              1.946              3.368
 Vibration     8          0.614              1.916              2.841
 Vibration     9          0.620              1.898              2.617
 Vibration    10          0.624              1.883              2.467
 Vibration    11          0.630              1.864              2.305
 Vibration    12          0.645              1.818              2.002
 Vibration    13          0.649              1.806              1.933
 Vibration    14          0.651              1.800              1.901
 Vibration    15          0.661              1.767              1.750
 Vibration    16          0.673              1.730              1.603
 Vibration    17          0.693              1.671              1.409
 Vibration    18          0.717              1.604              1.233
 Vibration    19          0.726              1.579              1.175
 Vibration    20          0.741              1.538              1.088
 Vibration    21          0.754              1.503              1.021
 Vibration    22          0.768              1.465              0.954
 Vibration    23          0.777              1.442              0.916
 Vibration    24          0.823              1.326              0.750
 Vibration    25          0.827              1.318              0.739
 Vibration    26          0.883              1.189              0.592
 Vibration    27          0.938              1.073              0.484
 Vibration    28          0.972              1.005              0.428

                           ! Non-Optimized Parameters !
 Normal termination of Gaussian 16 at Thu Dec 10 16:53:56 2020.

 ----------------------------------------------------------------------
 # B3LYP/6-311++G(d,p) empiricaldispersion=gd3bj scf=xqc pop=npa geom=c
 heck
 ----------------------------------------------------------------------

 --------------------------------------
 CID_97211428_JID_5388_Energie_neutraal
 --------------------------------------
 Structure from the checkpoint file:  "JID_5388.chk"
 Charge =  0 Multiplicity = 1

 SCF Done:  E(RB3LYP) =  -711.316794670     A.U. after   16 cycles
 Normal termination of Gaussian 16 at Thu Dec 10 17:04:48 2020.

 ----------------------------------------------------------------------
 # B3LYP/6-311++G(d,p) empiricaldispersion=gd3bj scf=xqc pop=npa geom=c
 heck
 ----------------------------------------------------------------------

 ------------------------------------
 CID_97211428_JID_5388_Energie_kation
 ------------------------------------
 Structure from the checkpoint file:  "JID_5388.chk"
 Charge =  1 Multiplicity = 2

 SCF Done:  E(UB3LYP) =  -710.993887417     A.U. after   33 cycles
 SCF Done:  E(UB3LYP) =  -710.997264377     a.u. after   12 cycles
 Normal termination of Gaussian 16 at Thu Dec 10 18:45:42 2020.
 Gaussian 16:  ES64L-G16RevA.03 25-Dec-2016

 ----------------------------------------------------------------------
 # B3LYP/6-311++G(d,p) empiricaldispersion=gd3bj scf=xqc pop=npa geom=c
 heck
 ----------------------------------------------------------------------

 -----------------------------------
 CID_97211428_JID_5388_Energie_anion
 -----------------------------------
 Structure from the checkpoint file:  "JID_5388.chk"
 Charge = -1 Multiplicity = 2

                         Standard orientation:
 ---------------------------------------------------------------------
 Center     Atomic      Atomic             Coordinates (Angstroms)
 Number     Number       Type             X           Y           Z
 ---------------------------------------------------------------------
      1          6           0       -3.918055   -0.257457   -0.187855
      2          6           0       -2.702304   -1.178261   -0.297603
      3          6           0       -1.398531   -0.622905    0.334032
      4          6           0       -1.580012   -0.382231    1.840365
      5          6           0       -1.054215    0.649663   -0.468912
      6          8           0       -0.813496    0.650855   -1.654316
      7          8           0       -1.089861    1.767778    0.285768
      8          6           0       -0.752077    2.977839   -0.413210
      9          7           0       -0.367027   -1.636079    0.091597
     10          6           0        1.006035   -1.505568    0.003493
     11          8           0        1.663343   -2.450843   -0.431024
     12          6           0        1.584885   -0.223564    0.474467
     13          6           0        2.821656    0.234904    0.201780
     14          6           0        3.252411    1.574719    0.740722
     15          6           0        3.852200   -0.478527   -0.627516
     16          1           0       -4.203184   -0.075296    0.852728
     17          1           0       -4.776782   -0.710687   -0.693192
     18          1           0       -3.730912    0.711821   -0.663049
     19          1           0       -2.917895   -2.138681    0.188453
     20          1           0       -2.487941   -1.379257   -1.352747
     21          1           0       -0.643162   -0.082662    2.314565
     22          1           0       -2.320710    0.394436    2.040487
     23          1           0       -1.907227   -1.317297    2.305897
     24          1           0        0.265419    2.910501   -0.806718
     25          1           0       -1.444096    3.147127   -1.241600
     26          1           0       -0.830305    3.774250    0.326739
     27          1           0       -0.678964   -2.500380   -0.334324
     28          1           0        0.944270    0.412911    1.074888
     29          1           0        4.160243    1.472607    1.350321
     30          1           0        3.507760    2.256136   -0.082063
     31          1           0        2.476999    2.045612    1.352516
     32          1           0        3.452767   -1.381241   -1.084474
     33          1           0        4.245870    0.198018   -1.397639
     34          1           0        4.705191   -0.759368    0.006037
 ---------------------------------------------------------------------

 SCF Done:  E(UB3LYP) =  -711.308192835     A.U. after   33 cycles
 SCF Done:  E(UB3LYP) =  -711.308192835     a.u. after    1 cycles

 The electronic state is 2-A.
 Alpha  occ. eigenvalues --  -19.07405 -19.01366 -18.96292 -14.21992 -10.20252
 Alpha  occ. eigenvalues --  -10.14987 -10.13745 -10.12349 -10.08535 -10.07447
 Alpha  occ. eigenvalues --  -10.06865 -10.06614 -10.06512 -10.05268 -10.04943
 Alpha  occ. eigenvalues --   -1.01356  -0.92554  -0.91605  -0.81759  -0.70862
 Alpha  occ. eigenvalues --   -0.70359  -0.64958  -0.62051  -0.60332  -0.58906
 Alpha  occ. eigenvalues --   -0.56641  -0.52040  -0.48965  -0.46541  -0.43402
 Alpha  occ. eigenvalues --   -0.40300  -0.39624  -0.38341  -0.37591  -0.37272
 Alpha  occ. eigenvalues --   -0.35431  -0.33915  -0.33453  -0.32735  -0.32049
 Alpha  occ. eigenvalues --   -0.31332  -0.29863  -0.29553  -0.29191  -0.28467
 Alpha  occ. eigenvalues --   -0.27877  -0.27761  -0.27091  -0.26801  -0.25804
 Alpha  occ. eigenvalues --   -0.25029  -0.24571  -0.24093  -0.21277  -0.18371
 Alpha  occ. eigenvalues --   -0.14788  -0.14711  -0.13655   0.04276
 Alpha virt. eigenvalues --    0.06152   0.06522   0.07643   0.08174   0.08738
 Alpha virt. eigenvalues --    0.09352   0.09497   0.09932   0.10442   0.10883
 Alpha virt. eigenvalues --    0.11360   0.12193   0.12600   0.12851   0.13093

  Beta  occ. eigenvalues --  -19.07397 -19.01358 -18.96193 -14.21980 -10.20250
  Beta  occ. eigenvalues --  -10.14884 -10.13743 -10.12305 -10.08524 -10.07202
  Beta  occ. eigenvalues --  -10.06829 -10.06595 -10.06515 -10.05283 -10.04938
  Beta  occ. eigenvalues --   -1.01341  -0.92531  -0.91433  -0.81691  -0.70655
  Beta  occ. eigenvalues --   -0.70201  -0.64915  -0.61989  -0.60187  -0.58858
  Beta  occ. eigenvalues --   -0.56589  -0.51979  -0.48769  -0.46482  -0.43325
  Beta  occ. eigenvalues --   -0.40237  -0.39460  -0.38312  -0.37556  -0.37180
  Beta  occ. eigenvalues --   -0.35395  -0.33805  -0.33183  -0.32618  -0.31974
  Beta  occ. eigenvalues --   -0.31245  -0.29810  -0.29462  -0.29161  -0.28377
  Beta  occ. eigenvalues --   -0.27771  -0.27548  -0.26956  -0.26721  -0.25749
  Beta  occ. eigenvalues --   -0.24975  -0.24491  -0.24022  -0.21253  -0.18344
  Beta  occ. eigenvalues --   -0.14455  -0.14227  -0.13385
  Beta virt. eigenvalues --    0.06587   0.07179   0.07697   0.08203   0.08611
  Beta virt. eigenvalues --    0.09060   0.09474   0.09685   0.10363   0.10917
  Beta virt. eigenvalues --    0.11046   0.11642   0.12493   0.12716   0.13095

 Mulliken charges and spin densities:
               1          2
     1  C    1.321995  -1.936928
     2  C   -2.113366   1.766266
     3  C    0.276172  -0.431875
     4  C    0.550515  -0.840119
     5  C   -0.621479  -0.091796
     6  O   -0.116916   0.012762
     7  O    0.079802   0.066681
     8  C    0.812097  -1.002945
     9  N   -0.069326   0.023809
    10  C   -0.551424   0.406343
    11  O   -0.357500   0.033767
    12  C    0.592167  -0.182308
    13  C    0.093026   0.351120
    14  C   -0.079449  -0.621545
    15  C   -0.532772  -0.062003
    16  H   -0.257664   0.401229
    17  H   -0.407459   0.561882
    18  H   -0.159020   0.340406
    19  H    0.027456   0.121536
    20  H    0.153356   0.041331
    21  H    0.004236   0.144425
    22  H   -0.005164   0.197913
    23  H    0.044043   0.119665
    24  H   -0.002329   0.201316
    25  H   -0.180935   0.348446
    26  H   -0.506375   0.662834
    27  H    0.240616   0.073727
    28  H    0.453000  -0.274402
    29  H    0.108443   0.013784
    30  H   -0.131249   0.278115
    31  H   -0.049128   0.198674
    32  H    0.200887   0.007331
    33  H    0.058453   0.073983
    34  H    0.125288  -0.003423
 Sum of Mulliken charges =  -1.00000   1.00000

 Dipole moment (field-independent basis, Debye):
    X=              2.2205    Y=             -2.0763    Z=              1.1057  Tot=              3.2349
 Quadrupole moment (field-independent basis, Debye-Ang):
   XX=           -155.2014   YY=           -142.4572   ZZ=           -120.4152
   XY=              8.4887   XZ=              4.3308   YZ=             -1.7831

 Summary of Natural Population Analysis:

                                       Natural Population
                Natural  -----------------------------------------------
    Atom  No    Charge         Core      Valence    Rydberg      Total
 -----------------------------------------------------------------------
      C    1   -0.28833      0.99966     2.28303    0.00564     3.28833
      C    2   -0.18652      0.99960     2.17682    0.01009     3.18652
      C    3    0.02269      0.99952     1.96348    0.01431     2.97731
      C    4   -0.28796      0.99962     2.28096    0.00737     3.28796
      C    5    0.41551      0.99961     1.55655    0.02833     2.58449
      O    6   -0.30225      0.99987     3.29671    0.00567     4.30225
      O    7   -0.28014      0.99986     3.26987    0.01042     4.28014
      C    8   -0.10408      0.99959     2.09529    0.00920     3.10408
      N    9   -0.32311      0.99966     2.81266    0.01079     3.82311
      C   10    0.35040      0.99965     1.62916    0.02079     2.64960
      O   11   -0.32631      0.99988     3.32119    0.00524     4.32631
      C   12   -0.17849      0.99940     2.17050    0.00859     3.17849
      C   13    0.08046      0.99953     1.91225    0.00775     2.91954
      C   14   -0.29981      0.99963     2.29452    0.00566     3.29981
      C   15   -0.31106      0.99962     2.30577    0.00567     3.31106
      H   16    0.10013      0.00000     0.39840    0.00146     0.39987
      H   17    0.10242      0.00000     0.39652    0.00106     0.39758
      H   18    0.10123      0.00000     0.39753    0.00125     0.39877
      H   19    0.09700      0.00000     0.40183    0.00117     0.40300
      H   20    0.10655      0.00000     0.39210    0.00134     0.39345
      H   21    0.10508      0.00000     0.39390    0.00102     0.39492
      H   22    0.10714      0.00000     0.39146    0.00140     0.39286
      H   23    0.10017      0.00000     0.39881    0.00102     0.39983
      H   24    0.09431      0.00000     0.40431    0.00138     0.40569
      H   25    0.09210      0.00000     0.40662    0.00128     0.40790
      H   26    0.09421      0.00000     0.40401    0.00178     0.40579
      H   27    0.19139      0.00000     0.30605    0.00256     0.30861
      H   28    0.09721      0.00000     0.40066    0.00212     0.40279
      H   29    0.09876      0.00000     0.40037    0.00087     0.40124
      H   30    0.10540      0.00000     0.39321    0.00139     0.39460
      H   31    0.10183      0.00000     0.39742    0.00075     0.39817
      H   32    0.12431      0.00000     0.37484    0.00085     0.37569
      H   33    0.09928      0.00000     0.39992    0.00081     0.40072
      H   34    0.10047      0.00000     0.39871    0.00083     0.39953
 =======================================================================
   * Total *    0.00000     14.99468    42.82543    0.17989    58.00000

 Normal termination of Gaussian 16 at Thu Dec 10 18:58:17 2020.
