 Gaussian 16, Revision A.03,

 -----------------------------------------------------------
 # opt freq B3LYP/6-31G(d) empiricaldispersion=gd3bj scf=xqc
 -----------------------------------------------------------

 ------------------------------
 CID_14737198_JID_1500_neutraal
 ------------------------------
 Symbolic Z-matrix:
 Charge =  0 Multiplicity = 1

 SCF Done:  E(RB3LYP) =  -574.923334388     A.U. after   14 cycles
 SCF Done:  E(RB3LYP) =  -574.903953722     A.U. after   15 cycles
 SCF Done:  E(RB3LYP) =  -574.924445445     A.U. after   13 cycles
 SCF Done:  E(RB3LYP) =  -574.926111680     A.U. after   10 cycles
 SCF Done:  E(RB3LYP) =  -574.928004168     A.U. after   13 cycles
 SCF Done:  E(RB3LYP) =  -574.928694895     A.U. after   12 cycles
 SCF Done:  E(RB3LYP) =  -574.928558189     A.U. after   12 cycles
 SCF Done:  E(RB3LYP) =  -574.929176471     A.U. after   12 cycles
 SCF Done:  E(RB3LYP) =  -574.929282031     A.U. after   11 cycles
 SCF Done:  E(RB3LYP) =  -574.929306715     A.U. after   12 cycles
 SCF Done:  E(RB3LYP) =  -574.929968889     A.U. after   11 cycles
 SCF Done:  E(RB3LYP) =  -574.930040322     A.U. after   11 cycles
 SCF Done:  E(RB3LYP) =  -574.930046521     A.U. after   10 cycles
 SCF Done:  E(RB3LYP) =  -574.930046904     A.U. after    8 cycles
 SCF Done:  E(RB3LYP) =  -574.930047064     A.U. after    7 cycles
 SCF Done:  E(RB3LYP) =  -574.930047027     A.U. after    6 cycles
 Optimization completed.
    -- Stationary point found.

 1\1\GINC-NODE310\FOpt\RB3LYP\6-31G(d)\C7H12O4\VSC10255\08-Dec-2020\0\\
 # opt freq B3LYP/6-31G(d) empiricaldispersion=gd3bj scf=xqc\\CID_14737
 198_JID_1500_neutraal\\0,1\C,0.9979560246,-0.0672805139,0.1091007908\C
 ,0.3533999494,1.3007585428,-0.0996662238\C,0.7975027414,2.0457057369,-
 1.3644080849\C,0.3622687494,1.462399599,-2.722550714\C,-0.9853400577,2
 .0258442573,-3.1764668246\O,-1.1684476028,3.2106863816,-3.3243329126\O
 ,-1.973711185,1.1398058013,-3.442954576\O,-1.1065487581,1.2935356338,0
 .0390112165\C,-1.8811997939,0.3808635126,-0.557709173\O,-1.4776964629,

 Normal termination of Gaussian 16 at Tue Dec  8 20:18:21 2020.

 --------------------------------------------------------------------
 #N Geom=AllCheck Guess=TCheck SCRF=Check GenChk RB3LYP/6-31G(d) Freq
 --------------------------------------------------------------------

 Structure from the checkpoint file:  "JID_1500.chk"
 ------------------------------
 CID_14737198_JID_1500_neutraal
 ------------------------------
 Charge =  0 Multiplicity = 1

 SCF Done:  E(RB3LYP) =  -574.930047027     A.U. after    1 cycles

  Exact polarizability:  79.289  -1.557  90.365  -2.490  -2.171  74.512
 Approx polarizability: 105.349  -1.228 117.599  -6.514  -8.446 128.602

                      1                      2                      3
                      A                      A                      A
 Frequencies --     51.5084                81.8554               100.8444
 Red. masses --      6.4443                 4.5770                 1.7889
 Frc consts  --      0.0101                 0.0181                 0.0107
 IR Inten    --      9.1475                 1.6872                 1.5155

                      4                      5                      6
                      A                      A                      A
 Frequencies --    104.6373               121.4269               180.0621
 Red. masses --      1.5296                 4.9553                 4.0574
 Frc consts  --      0.0099                 0.0430                 0.0775
 IR Inten    --      0.5158                 3.0222                 5.5241

                      7                      8                      9
                      A                      A                      A
 Frequencies --    212.4005               218.9075               255.5464
 Red. masses --      2.8323                 2.7476                 2.1363
 Frc consts  --      0.0753                 0.0776                 0.0822
 IR Inten    --      2.0084                 4.3155                13.7846

                     10                     11                     12
                      A                      A                      A
 Frequencies --    276.3637               336.3812               404.7233
 Red. masses --      2.5945                 2.3364                 2.8027
 Frc consts  --      0.1168                 0.1558                 0.2705
 IR Inten    --      6.0098                 4.3410                 1.7395

                     13                     14                     15
                      A                      A                      A
 Frequencies --    426.1286               453.0951               562.9790
 Red. masses --      2.5037                 2.8621                 3.9207
 Frc consts  --      0.2679                 0.3462                 0.7322
 IR Inten    --      4.9273                 1.4939                35.7940

                     16                     17                     18
                      A                      A                      A
 Frequencies --    575.6071               613.2519               681.7811
 Red. masses --      3.3768                 2.7825                 1.5066
 Frc consts  --      0.6592                 0.6165                 0.4126
 IR Inten    --      7.6503                21.9566               118.7035

                     19                     20                     21
                      A                      A                      A
 Frequencies --    695.7979               706.9085               769.4253
 Red. masses --      2.4249                 2.5087                 4.3262
 Frc consts  --      0.6917                 0.7386                 1.5090
 IR Inten    --     47.5000                28.4708                 4.9503

                     22                     23                     24
                      A                      A                      A
 Frequencies --    829.0581               874.9743               935.7764
 Red. masses --      3.2576                 3.1169                 2.2920
 Frc consts  --      1.3192                 1.4059                 1.1825
 IR Inten    --     12.6641                 9.5164                 6.0040

                     25                     26                     27
                      A                      A                      A
 Frequencies --    958.9923               974.8621              1011.0545
 Red. masses --      3.0480                 1.9332                 1.9245
 Frc consts  --      1.6516                 1.0825                 1.1591
 IR Inten    --      6.8125                 2.9619                 6.9052

                     28                     29                     30
                      A                      A                      A
 Frequencies --   1053.6375              1082.8611              1093.8421
 Red. masses --      1.6267                 1.7663                 2.0874
 Frc consts  --      1.0640                 1.2203                 1.4715
 IR Inten    --     17.3175                13.3890                39.7931

                     31                     32                     33
                      A                      A                      A
 Frequencies --   1128.5584              1177.9415              1191.8853
 Red. masses --      1.6804                 1.9797                 2.2827
 Frc consts  --      1.2610                 1.6185                 1.9106
 IR Inten    --      2.4727                67.9084                 2.2667

                     34                     35                     36
                      A                      A                      A
 Frequencies --   1273.9912              1286.3824              1300.5355
 Red. masses --      1.6288                 1.2476                 2.3376
 Frc consts  --      1.5576                 1.2164                 2.3295
 IR Inten    --      8.7104                 1.1769               199.3713

                     37                     38                     39
                      A                      A                      A
 Frequencies --   1354.9564              1384.2223              1400.1185
 Red. masses --      1.3194                 1.5504                 1.5912
 Frc consts  --      1.4272                 1.7503                 1.8378
 IR Inten    --    236.9492                57.3993               165.4528

                     40                     41                     42
                      A                      A                      A
 Frequencies --   1418.8392              1421.7330              1441.1745
 Red. masses --      1.3437                 1.3073                 1.3652
 Frc consts  --      1.5937                 1.5569                 1.6706
 IR Inten    --     47.3851                 8.1981                46.1463

                     43                     44                     45
                      A                      A                      A
 Frequencies --   1444.8613              1501.7517              1504.4414
 Red. masses --      1.3098                 1.0553                 1.0953
 Frc consts  --      1.6110                 1.4023                 1.4606
 IR Inten    --     17.7342                13.0804                10.0488

                     46                     47                     48
                      A                      A                      A
 Frequencies --   1507.5423              1512.1594              1520.5109
 Red. masses --      1.0723                 1.0738                 1.0752
 Frc consts  --      1.4358                 1.4467                 1.4645
 IR Inten    --      5.0462                17.8219                11.5190

                     49                     50                     51
                      A                      A                      A
 Frequencies --   1535.5642              1774.8420              1866.7541
 Red. masses --      1.0512                10.0298                 9.1825
 Frc consts  --      1.4605                18.6149                18.8532
 IR Inten    --      9.4884               174.3869               251.5793

                     52                     53                     54
                      A                      A                      A
 Frequencies --   3058.5506              3066.9316              3072.1030
 Red. masses --      1.0642                 1.0446                 1.0398
 Frc consts  --      5.8658                 5.7890                 5.7819
 IR Inten    --     11.4114                16.4703                 0.3162

                     55                     56                     57
                      A                      A                      A
 Frequencies --   3077.9436              3089.1382              3110.2451
 Red. masses --      1.0663                 1.0835                 1.0997
 Frc consts  --      5.9521                 6.0919                 6.2676
 IR Inten    --     12.4392                30.9815                 7.3059

                     58                     59                     60
                      A                      A                      A
 Frequencies --   3128.2417              3142.9461              3146.7060
 Red. masses --      1.1011                 1.0979                 1.0943
 Frc consts  --      6.3486                 6.3898                 6.3843
 IR Inten    --     22.5726                12.4745                 4.8308

                     61                     62                     63
                      A                      A                      A
 Frequencies --   3183.6743              3189.1147              3636.0412
 Red. masses --      1.1066                 1.0977                 1.0664
 Frc consts  --      6.6085                 6.5778                 8.3063
 IR Inten    --      5.0837                11.1100               143.8727

 - Thermochemistry -
 -------------------
 Temperature   298.150 Kelvin.  Pressure   1.00000 Atm.
 Atom     1 has atomic number  6 and mass  12.00000

 Molecular mass:   160.07356 amu.
 Principal axes and moments of inertia in atomic units:
                           1         2         3
     Eigenvalues --  1367.093461737.765002431.05890
           X            0.99978  -0.01990   0.00616
           Y            0.01971   0.99935   0.03029
           Z           -0.00676  -0.03016   0.99952
 This molecule is an asymmetric top.
 Rotational symmetry number  1.
 Warning -- assumption of classical behavior for rotation
           may cause significant error
 Rotational temperatures (Kelvin)      0.06336     0.04984     0.03563
 Rotational constants (GHZ):           1.32013     1.03854     0.74237
 Zero-point vibrational energy     505392.9 (Joules/Mol)
                                  120.79180 (Kcal/Mol)
 Warning -- explicit consideration of  17 degrees of freedom as
           vibrations may cause significant error
 Vibrational temperatures:     74.11   117.77   145.09   150.55   174.71
          (Kelvin)            259.07   305.60   314.96   367.67   397.63
                              483.98   582.31   613.10   651.90   810.00
                              828.17   882.33   980.93  1001.10  1017.08
                             1107.03  1192.83  1258.89  1346.37  1379.78
                             1402.61  1454.68  1515.95  1558.00  1573.79
                             1623.74  1694.80  1714.86  1832.99  1850.82
                             1871.18  1949.48  1991.59  2014.46  2041.39
                             2045.56  2073.53  2078.83  2160.69  2164.56
                             2169.02  2175.66  2187.68  2209.33  2553.60
                             2685.84  4400.57  4412.63  4420.07  4428.47
                             4444.58  4474.95  4500.84  4522.00  4527.41
                             4580.60  4588.42  5231.45

 Zero-point correction=                           0.192494 (Hartree/Particle)
 Thermal correction to Energy=                    0.204397
 Thermal correction to Enthalpy=                  0.205341
 Thermal correction to Gibbs Free Energy=         0.154432
 Sum of electronic and zero-point Energies=           -574.737553
 Sum of electronic and thermal Energies=              -574.725650
 Sum of electronic and thermal Enthalpies=            -574.724706
 Sum of electronic and thermal Free Energies=         -574.775615

                     E (Thermal)             CV                S
                      KCal/Mol        Cal/Mol-Kelvin    Cal/Mol-Kelvin
 Total                  128.261             42.985            107.146
 Electronic               0.000              0.000              0.000
 Translational            0.889              2.981             41.120
 Rotational               0.889              2.981             30.136
 Vibrational            126.483             37.024             35.890
 Vibration     1          0.596              1.977              4.759
 Vibration     2          0.600              1.962              3.846
 Vibration     3          0.604              1.948              3.438
 Vibration     4          0.605              1.946              3.366
 Vibration     5          0.609              1.931              3.078
 Vibration     6          0.629              1.867              2.328
 Vibration     7          0.643              1.822              2.023
 Vibration     8          0.647              1.812              1.968
 Vibration     9          0.666              1.753              1.692
 Vibration    10          0.678              1.717              1.556
 Vibration    11          0.717              1.603              1.229
 Vibration    12          0.770              1.460              0.945
 Vibration    13          0.788              1.413              0.871
 Vibration    14          0.812              1.354              0.786
 Vibration    15          0.919              1.111              0.518
 Vibration    16          0.932              1.084              0.494
 Vibration    17          0.973              1.004              0.427

 Optimization completed.
    -- Stationary point found.

 1\1\GINC-NODE310\Freq\RB3LYP\6-31G(d)\C7H12O4\VSC10255\08-Dec-2020\0\\
 #N Geom=AllCheck Guess=TCheck SCRF=Check GenChk RB3LYP/6-31G(d) Freq\\
 CID_14737198_JID_1500_neutraal\\0,1\C,0.9979560246,-0.0672805139,0.109
 1007908\C,0.3533999494,1.3007585428,-0.0996662238\C,0.7975027414,2.045
 7057369,-1.3644080849\C,0.3622687494,1.462399599,-2.722550714\C,-0.985
 3400577,2.0258442573,-3.1764668246\O,-1.1684476028,3.2106863816,-3.324
 3329126\O,-1.973711185,1.1398058013,-3.442954576\O,-1.1065487581,1.293
 5356338,0.0390112165\C,-1.8811997939,0.3808635126,-0.557709173\O,-1.47

 Normal termination of Gaussian 16 at Tue Dec  8 20:23:01 2020.

 ----------------------------------------------------------------------
 # B3LYP/6-311++G(d,p) empiricaldispersion=gd3bj scf=xqc pop=npa geom=c
 heck
 ----------------------------------------------------------------------

 --------------------------------------
 CID_14737198_JID_1500_Energie_neutraal
 --------------------------------------
 Structure from the checkpoint file:  "JID_1500.chk"
 Charge =  0 Multiplicity = 1

 SCF Done:  E(RB3LYP) =  -575.110700303     A.U. after   13 cycles
 Normal termination of Gaussian 16 at Tue Dec  8 20:24:41 2020.

 ----------------------------------------------------------------------
 # B3LYP/6-311++G(d,p) empiricaldispersion=gd3bj scf=xqc pop=npa geom=c
 heck
 ----------------------------------------------------------------------

 ------------------------------------
 CID_14737198_JID_1500_Energie_kation
 ------------------------------------
 Structure from the checkpoint file:  "JID_1500.chk"
 Charge =  1 Multiplicity = 2

 SCF Done:  E(UB3LYP) =  -574.751251934     A.U. after   25 cycles
 Normal termination of Gaussian 16 at Tue Dec  8 20:30:52 2020.
 Gaussian 16:  ES64L-G16RevA.03 25-Dec-2016

 -----------------------------------
 CID_14737198_JID_1500_Energie_anion
 -----------------------------------
 Structure from the checkpoint file:  "JID_1500.chk"
 Charge = -1 Multiplicity = 2

                         Standard orientation:
 ---------------------------------------------------------------------
 Center     Atomic      Atomic             Coordinates (Angstroms)
 Number     Number       Type             X           Y           Z
 ---------------------------------------------------------------------
      1          6           0       -2.165579    1.493326    0.595030
      2          6           0       -1.242266    1.179246   -0.579455
      3          6           0        0.155345    1.805033   -0.496882
      4          6           0        1.107786    1.275740    0.592582
      5          6           0        1.946912    0.099715    0.090195
      6          8           0        2.669513    0.192381   -0.873394
      7          8           0        1.878885   -1.058104    0.788611
      8          8           0       -1.177133   -0.246897   -0.915027
      9          6           0       -0.999406   -1.196151    0.010424
     10          8           0       -0.854145   -0.991854    1.206634
     11          6           0       -0.924031   -2.563906   -0.617203
     12          1           0       -1.731650    1.230857    1.558764
     13          1           0       -3.112875    0.955705    0.487981
     14          1           0       -2.384426    2.566922    0.581296
     15          1           0       -1.709616    1.576351   -1.485277
     16          1           0        0.657971    1.700035   -1.463869
     17          1           0       -0.008080    2.878439   -0.342113
     18          1           0        1.835494    2.062247    0.820913
     19          1           0        0.573607    1.042354    1.515272
     20          1           0        1.105568   -1.037794    1.385603
     21          1           0       -1.451351   -2.604018   -1.571437
     22          1           0        0.135414   -2.788129   -0.789708
     23          1           0       -1.319584   -3.305191    0.079836
 ---------------------------------------------------------------------

 SCF Done:  E(UB3LYP) =  -575.099401311     A.U. after   31 cycles

 The electronic state is 2-A.
 Alpha  occ. eigenvalues --  -19.07389 -19.06392 -19.02116 -19.00593 -10.21862
 Alpha  occ. eigenvalues --  -10.20157 -10.13710 -10.08489 -10.08483 -10.07679
 Alpha  occ. eigenvalues --  -10.05745  -1.01495  -1.00018  -0.93175  -0.91907
 Alpha  occ. eigenvalues --   -0.71816  -0.66816  -0.64051  -0.57710  -0.53981
 Alpha  occ. eigenvalues --   -0.51193  -0.43382  -0.41858  -0.41111  -0.39986
 Alpha  occ. eigenvalues --   -0.38918  -0.36303  -0.35176  -0.34699  -0.32797
 Alpha  occ. eigenvalues --   -0.32438  -0.31345  -0.30312  -0.29459  -0.28972
 Alpha  occ. eigenvalues --   -0.26318  -0.25877  -0.24998  -0.23426  -0.22571
 Alpha  occ. eigenvalues --   -0.20602  -0.18734  -0.17691   0.04514
 Alpha virt. eigenvalues --    0.06863   0.07725   0.08046   0.08814   0.09854
 Alpha virt. eigenvalues --    0.10071   0.10469   0.11006   0.11855   0.12187
 Alpha virt. eigenvalues --    0.13078   0.13675   0.14548   0.15424   0.16183

  Beta  occ. eigenvalues --  -19.07379 -19.06379 -19.02104 -19.00576 -10.21858
  Beta  occ. eigenvalues --  -10.20142 -10.13689 -10.08466 -10.08447 -10.07648
  Beta  occ. eigenvalues --  -10.05698  -1.01473  -0.99988  -0.93154  -0.91877
  Beta  occ. eigenvalues --   -0.71761  -0.66767  -0.63991  -0.57632  -0.53927
  Beta  occ. eigenvalues --   -0.51160  -0.43325  -0.41791  -0.41046  -0.39950
  Beta  occ. eigenvalues --   -0.38879  -0.36255  -0.35136  -0.34644  -0.32749
  Beta  occ. eigenvalues --   -0.32387  -0.31302  -0.30267  -0.29423  -0.28919
  Beta  occ. eigenvalues --   -0.26276  -0.25836  -0.24950  -0.23376  -0.22521
  Beta  occ. eigenvalues --   -0.20559  -0.18710  -0.17669
  Beta virt. eigenvalues --    0.06965   0.07916   0.08018   0.08830   0.09358
  Beta virt. eigenvalues --    0.10285   0.10844   0.11042   0.11566   0.12124
  Beta virt. eigenvalues --    0.12523   0.13668   0.14269   0.14724   0.15632

 Mulliken charges and spin densities:
               1          2
     1  C    1.415465  -1.939998
     2  C   -0.710126   0.934427
     3  C    0.677043  -1.184834
     4  C    0.195772  -0.335114
     5  C    0.022167  -0.177891
     6  O   -0.263908   0.018952
     7  O   -0.100250   0.007472
     8  O    0.061895   0.014432
     9  C   -1.056220   0.919103
    10  O   -0.284218   0.031881
    11  C    1.783516  -2.285884
    12  H   -0.054752   0.224873
    13  H   -0.219578   0.372300
    14  H   -0.760035   0.935672
    15  H   -0.917905   1.153346
    16  H    0.217816  -0.004579
    17  H   -0.594105   0.770840
    18  H   -0.335138   0.543293
    19  H    0.064094   0.084648
    20  H    0.172410   0.077281
    21  H   -0.167490   0.337205
    22  H    0.004601   0.178262
    23  H   -0.151056   0.324316
 Sum of Mulliken charges =  -1.00000   1.00000

 Dipole moment (field-independent basis, Debye):
    X=              2.1826    Y=             -4.8217    Z=              1.7564  Tot=              5.5766
 Quadrupole moment (field-independent basis, Debye-Ang):
   XX=           -118.9978   YY=           -121.0620   ZZ=            -95.4077
   XY=              7.6008   XZ=              0.1904   YZ=              0.2492

 Summary of Natural Population Analysis:

                                       Natural Population
                Natural  -----------------------------------------------
    Atom  No    Charge         Core      Valence    Rydberg      Total
 -----------------------------------------------------------------------
      C    1   -0.30124      0.99964     2.29521    0.00639     3.30124
      C    2    0.06623      0.99951     1.91967    0.01459     2.93377
      C    3   -0.19953      0.99959     2.18984    0.01010     3.19953
      C    4   -0.25077      0.99957     2.24172    0.00948     3.25077
      C    5    0.40507      0.99971     1.56991    0.02530     2.59493
      O    6   -0.30133      0.99986     3.29517    0.00630     4.30133
      O    7   -0.35110      0.99987     3.34454    0.00669     4.35110
      O    8   -0.28024      0.99985     3.26913    0.01126     4.28024
      C    9    0.41723      0.99969     1.55629    0.02679     2.58277
      O   10   -0.33637      0.99986     3.33016    0.00635     4.33637
      C   11   -0.33296      0.99961     2.32726    0.00610     3.33296
      H   12    0.10692      0.00000     0.39187    0.00122     0.39308
      H   13    0.10503      0.00000     0.39341    0.00156     0.39497
      H   14    0.10941      0.00000     0.38723    0.00336     0.39059
      H   15    0.10018      0.00000     0.39667    0.00315     0.39982
      H   16    0.10966      0.00000     0.38870    0.00164     0.39034
      H   17    0.11223      0.00000     0.38394    0.00383     0.38777
      H   18    0.11940      0.00000     0.37898    0.00163     0.38060
      H   19    0.10837      0.00000     0.39012    0.00151     0.39163
      H   20    0.25026      0.00000     0.24621    0.00353     0.24974
      H   21    0.11295      0.00000     0.38591    0.00114     0.38705
      H   22    0.12012      0.00000     0.37876    0.00112     0.37988
      H   23    0.11049      0.00000     0.38854    0.00097     0.38951
 =======================================================================
   * Total *   -0.00000     10.99676    31.84925    0.15399    43.00000

 Normal termination of Gaussian 16 at Tue Dec  8 20:37:20 2020.
