 Gaussian 16, Revision A.03,

 -----------------------------------------------------------
 # opt freq B3LYP/6-31G(d) empiricaldispersion=gd3bj scf=xqc
 -----------------------------------------------------------

 -----------------------------
 CID_5952254_JID_5394_neutraal
 -----------------------------
 Symbolic Z-matrix:
 Charge =  0 Multiplicity = 1

 SCF Done:  E(RB3LYP) =  -649.246248444     A.U. after   16 cycles
 SCF Done:  E(RB3LYP) =  -649.250228735     A.U. after   14 cycles
 SCF Done:  E(RB3LYP) =  -649.250835623     A.U. after   13 cycles
 SCF Done:  E(RB3LYP) =  -649.251706508     A.U. after   13 cycles
 SCF Done:  E(RB3LYP) =  -649.251829691     A.U. after   13 cycles
 SCF Done:  E(RB3LYP) =  -649.252231969     A.U. after   13 cycles
 SCF Done:  E(RB3LYP) =  -649.252575066     A.U. after   12 cycles
 SCF Done:  E(RB3LYP) =  -649.252786364     A.U. after   13 cycles
 SCF Done:  E(RB3LYP) =  -649.252748989     A.U. after   13 cycles
 SCF Done:  E(RB3LYP) =  -649.252909344     A.U. after   11 cycles
 SCF Done:  E(RB3LYP) =  -649.252980777     A.U. after   11 cycles
 SCF Done:  E(RB3LYP) =  -649.252993689     A.U. after   11 cycles
 SCF Done:  E(RB3LYP) =  -649.252998294     A.U. after   11 cycles
 SCF Done:  E(RB3LYP) =  -649.252998930     A.U. after    9 cycles
 SCF Done:  E(RB3LYP) =  -649.252998986     A.U. after    9 cycles
 SCF Done:  E(RB3LYP) =  -649.252999023     A.U. after    8 cycles
 Optimization completed.
    -- Stationary point found.
 Normal termination of Gaussian 16 at Thu Dec 10 16:03:50 2020.

 --------------------------------------------------------------------
 #N Geom=AllCheck Guess=TCheck SCRF=Check GenChk RB3LYP/6-31G(d) Freq
 --------------------------------------------------------------------

 Structure from the checkpoint file:  "JID_5394.chk"
 -----------------------------
 CID_5952254_JID_5394_neutraal
 -----------------------------
 Charge =  0 Multiplicity = 1

 SCF Done:  E(RB3LYP) =  -649.252999023     A.U. after    1 cycles

  Exact polarizability: 264.958  -4.237 132.680  -9.905  -3.217  72.072
 Approx polarizability: 373.446 -14.902 229.246 -28.411  -9.605 113.074

                      1                      2                      3
                      A                      A                      A
 Frequencies --     26.1732                36.0859                56.8336
 Red. masses --      6.4238                 4.7272                 3.8555
 Frc consts  --      0.0026                 0.0036                 0.0073
 IR Inten    --      3.6310                 2.8668                 2.1749

                      4                      5                      6
                      A                      A                      A
 Frequencies --    108.3895               138.4655               144.5523
 Red. masses --      4.6095                 5.7847                 5.4542
 Frc consts  --      0.0319                 0.0653                 0.0671
 IR Inten    --      3.9246                 3.1082                 3.0802

                      7                      8                      9
                      A                      A                      A
 Frequencies --    171.0837               186.7505               205.9512
 Red. masses --      1.9849                 1.9858                 3.0149
 Frc consts  --      0.0342                 0.0408                 0.0753
 IR Inten    --      1.6860                 5.8754                 3.6403

                     10                     11                     12
                      A                      A                      A
 Frequencies --    238.4249               256.1069               301.6609
 Red. masses --      1.1544                 4.4849                 2.9862
 Frc consts  --      0.0387                 0.1733                 0.1601
 IR Inten    --      1.1385                 0.8436                 0.5990

                     13                     14                     15
                      A                      A                      A
 Frequencies --    359.5630               384.1651               400.2374
 Red. masses --      3.5080                 4.5223                 4.7732
 Frc consts  --      0.2672                 0.3932                 0.4505
 IR Inten    --      3.2456                 2.1664                 3.1203

                     16                     17                     18
                      A                      A                      A
 Frequencies --    466.4961               470.9923               482.2166
 Red. masses --      3.5185                 1.5724                 3.6383
 Frc consts  --      0.4511                 0.2055                 0.4985
 IR Inten    --     34.4065               111.1833                 4.9511

                     19                     20                     21
                      A                      A                      A
 Frequencies --    531.9104               545.0016               570.4793
 Red. masses --      3.6058                 2.6009                 6.5595
 Frc consts  --      0.6011                 0.4552                 1.2578
 IR Inten    --     38.5928                 7.4936                 0.6549

                     22                     23                     24
                      A                      A                      A
 Frequencies --    577.1519               612.4878               621.7151
 Red. masses --      2.5163                 4.5424                 4.9869
 Frc consts  --      0.4938                 1.0040                 1.1357
 IR Inten    --      3.8101                 1.7770                 3.7533

                     25                     26                     27
                      A                      A                      A
 Frequencies --    685.0712               708.3941               762.2078
 Red. masses --      3.8121                 2.6670                 4.8879
 Frc consts  --      1.0541                 0.7885                 1.6731
 IR Inten    --      5.3371                 9.5423                 0.3845

                     28                     29                     30
                      A                      A                      A
 Frequencies --    800.9955               812.9706               871.2988
 Red. masses --      1.8073                 2.6353                 1.8004
 Frc consts  --      0.6832                 1.0262                 0.8053
 IR Inten    --     29.3695                 9.5578                18.9718

                     31                     32                     33
                      A                      A                      A
 Frequencies --    885.3237               897.4076               911.9053
 Red. masses --      1.8558                 1.6806                 1.3779
 Frc consts  --      0.8570                 0.7974                 0.6751
 IR Inten    --     20.6196                 8.3162                 0.1915

                     34                     35                     36
                      A                      A                      A
 Frequencies --    971.5559               982.8440              1017.9192
 Red. masses --      2.7107                 1.2838                 5.6849
 Frc consts  --      1.5076                 0.7307                 3.4705
 IR Inten    --     51.0103                 0.7490                 4.7580

                     37                     38                     39
                      A                      A                      A
 Frequencies --   1036.2194              1048.1833              1059.0289
 Red. masses --      1.7035                 1.7464                 1.6026
 Frc consts  --      1.0777                 1.1305                 1.0590
 IR Inten    --     23.8102                 4.9272                18.2025

                     40                     41                     42
                      A                      A                      A
 Frequencies --   1070.1878              1129.7920              1191.9858
 Red. masses --      1.5157                 1.6510                 1.7617
 Frc consts  --      1.0228                 1.2417                 1.4748
 IR Inten    --      1.9612                 2.3765                11.1983

                     43                     44                     45
                      A                      A                      A
 Frequencies --   1211.0547              1268.1366              1297.3218
 Red. masses --      1.1463                 2.5473                 2.0906
 Frc consts  --      0.9906                 2.4135                 2.0731
 IR Inten    --      0.3788                10.9647               417.5863

                     46                     47                     48
                      A                      A                      A
 Frequencies --   1305.6285              1362.6977              1372.5657
 Red. masses --      2.4897                 1.6136                 4.4518
 Frc consts  --      2.5006                 1.7654                 4.9414
 IR Inten    --    138.7725                17.2949                11.1495

                     49                     50                     51
                      A                      A                      A
 Frequencies --   1395.5475              1414.1659              1442.1825
 Red. masses --      2.2973                 1.4631                 1.3499
 Frc consts  --      2.6361                 1.7239                 1.6542
 IR Inten    --    235.0961                14.7527                13.6377

                     52                     53                     54
                      A                      A                      A
 Frequencies --   1458.5038              1492.6126              1505.3605
 Red. masses --      2.0657                 1.0752                 1.0568
 Frc consts  --      2.5890                 1.4113                 1.4110
 IR Inten    --     83.1772                 8.9631                 6.7179

                     55                     56                     57
                      A                      A                      A
 Frequencies --   1524.1901              1535.9863              1540.5585
 Red. masses --      1.0637                 1.3938                 1.6692
 Frc consts  --      1.4559                 1.9374                 2.3341
 IR Inten    --     12.9757                23.9317                87.8667

                     58                     59                     60
                      A                      A                      A
 Frequencies --   1552.9196              1636.9288              1660.8742
 Red. masses --      1.9846                 5.4239                 5.2596
 Frc consts  --      2.8198                 8.5629                 8.5482
 IR Inten    --     14.3685               118.1137               279.6025

                     61                     62                     63
                      A                      A                      A
 Frequencies --   1677.4206              1738.3573              2354.8274
 Red. masses --      5.0918                 9.2131                12.6803
 Frc consts  --      8.4411                16.4034                41.4284
 IR Inten    --    411.3262               246.7934                27.8306

                     64                     65                     66
                      A                      A                      A
 Frequencies --   3054.1401              3075.6577              3119.9658
 Red. masses --      1.0397                 1.0449                 1.0974
 Frc consts  --      5.7138                 5.8240                 6.2937
 IR Inten    --      5.7508                 6.3656                13.7727

                     67                     68                     69
                      A                      A                      A
 Frequencies --   3147.5178              3161.2862              3165.8774
 Red. masses --      1.0923                 1.0881                 1.1018
 Frc consts  --      6.3758                 6.4067                 6.5066
 IR Inten    --      7.7589                14.7959                17.1629

                     70                     71                     72
                      A                      A                      A
 Frequencies --   3176.6322              3205.4475              3211.5583
 Red. masses --      1.1016                 1.0884                 1.0916
 Frc consts  --      6.5493                 6.5891                 6.6338
 IR Inten    --      6.7144                 8.4970                 1.9679

                     73                     74                     75
                      A                      A                      A
 Frequencies --   3231.1148              3236.3827              3597.2188
 Red. masses --      1.0922                 1.0945                 1.0756
 Frc consts  --      6.7183                 6.7541                 8.2002
 IR Inten    --      3.2308                 5.3122                18.9742

 - Thermochemistry -
 -------------------
 Temperature   298.150 Kelvin.  Pressure   1.00000 Atm.
 Atom     1 has atomic number  6 and mass  12.00000

 Molecular mass:   200.09496 amu.
 Principal axes and moments of inertia in atomic units:
                           1         2         3
     Eigenvalues --  1028.108087973.697648644.70533
           X            0.99996   0.00288   0.00820
           Y           -0.00301   0.99985   0.01684
           Z           -0.00815  -0.01686   0.99982
 This molecule is an asymmetric top.
 Rotational symmetry number  1.
 Warning -- assumption of classical behavior for rotation
           may cause significant error
 Rotational temperatures (Kelvin)      0.08425     0.01086     0.01002
 Rotational constants (GHZ):           1.75540     0.22634     0.20877
 Zero-point vibrational energy     567429.6 (Joules/Mol)
                                  135.61894 (Kcal/Mol)
 Warning -- explicit consideration of  23 degrees of freedom as
           vibrations may cause significant error
 Vibrational temperatures:     37.66    51.92    81.77   155.95   199.22
          (Kelvin)            207.98   246.15   268.69   296.32   343.04
                              368.48   434.02   517.33   552.73   575.85
                              671.18   677.65   693.80   765.30   784.14
                              820.79   830.39   881.23   894.51   985.66
                             1019.22  1096.65  1152.45  1169.68  1253.60
                             1273.78  1291.17  1312.03  1397.85  1414.09
                             1464.56  1490.89  1508.10  1523.71  1539.76
                             1625.52  1715.00  1742.44  1824.57  1866.56
                             1878.51  1960.62  1974.82  2007.88  2034.67
                             2074.98  2098.46  2147.54  2165.88  2192.97
                             2209.94  2216.52  2234.30  2355.18  2389.63
                             2413.43  2501.11  3388.07  4394.23  4425.19
                             4488.93  4528.58  4548.39  4554.99  4570.47
                             4611.92  4620.72  4648.85  4656.43  5175.60

 Zero-point correction=                           0.216123 (Hartree/Particle)
 Thermal correction to Energy=                    0.230565
 Thermal correction to Enthalpy=                  0.231510
 Thermal correction to Gibbs Free Energy=         0.173449
 Sum of electronic and zero-point Energies=           -649.036876
 Sum of electronic and thermal Energies=              -649.022434
 Sum of electronic and thermal Enthalpies=            -649.021489
 Sum of electronic and thermal Free Energies=         -649.079550

                     E (Thermal)             CV                S
                      KCal/Mol        Cal/Mol-Kelvin    Cal/Mol-Kelvin
 Total                  144.682             53.885            122.199
 Electronic               0.000              0.000              0.000
 Translational            0.889              2.981             41.786
 Rotational               0.889              2.981             32.627
 Vibrational            142.904             47.923             47.787
 Vibration     1          0.593              1.985              6.100
 Vibration     2          0.594              1.982              5.463
 Vibration     3          0.596              1.975              4.564
 Vibration     4          0.606              1.943              3.298
 Vibration     5          0.614              1.915              2.825
 Vibration     6          0.616              1.909              2.743
 Vibration     7          0.626              1.878              2.424
 Vibration     8          0.632              1.858              2.260
 Vibration     9          0.640              1.831              2.079
 Vibration    10          0.656              1.782              1.815
 Vibration    11          0.666              1.752              1.688
 Vibration    12          0.694              1.671              1.408
 Vibration    13          0.734              1.556              1.124
 Vibration    14          0.753              1.504              1.023
 Vibration    15          0.766              1.470              0.962
 Vibration    16          0.824              1.324              0.747
 Vibration    17          0.828              1.314              0.735
 Vibration    18          0.838              1.289              0.704
 Vibration    19          0.887              1.179              0.583
 Vibration    20          0.900              1.151              0.555
 Vibration    21          0.927              1.095              0.503
 Vibration    22          0.934              1.081              0.491
 Vibration    23          0.972              1.005              0.429

 Optimization completed.
    -- Stationary point found.
 Normal termination of Gaussian 16 at Thu Dec 10 16:11:45 2020.

 ----------------------------------------------------------------------
 # B3LYP/6-311++G(d,p) empiricaldispersion=gd3bj scf=xqc pop=npa geom=c
 heck
 ----------------------------------------------------------------------

 -------------------------------------
 CID_5952254_JID_5394_Energie_neutraal
 -------------------------------------
 Structure from the checkpoint file:  "JID_5394.chk"
 Charge =  0 Multiplicity = 1

 SCF Done:  E(RB3LYP) =  -649.433020495     A.U. after   16 cycles
 Normal termination of Gaussian 16 at Thu Dec 10 16:15:40 2020.

 ----------------------------------------------------------------------
 # B3LYP/6-311++G(d,p) empiricaldispersion=gd3bj scf=xqc pop=npa geom=c
 heck
 ----------------------------------------------------------------------

 -----------------------------------
 CID_5952254_JID_5394_Energie_kation
 -----------------------------------
 Structure from the checkpoint file:  "JID_5394.chk"
 Charge =  1 Multiplicity = 2

 SCF Done:  E(UB3LYP) =  -649.139029872     A.U. after   26 cycles
 Normal termination of Gaussian 16 at Thu Dec 10 16:24:24 2020.
 Gaussian 16:  ES64L-G16RevA.03 25-Dec-2016

 ----------------------------------------------------------------------
 # B3LYP/6-311++G(d,p) empiricaldispersion=gd3bj scf=xqc pop=npa geom=c
 heck
 ----------------------------------------------------------------------

 ----------------------------------
 CID_5952254_JID_5394_Energie_anion
 ----------------------------------
 Structure from the checkpoint file:  "JID_5394.chk"
 Charge = -1 Multiplicity = 2

                         Standard orientation:
 ---------------------------------------------------------------------
 Center     Atomic      Atomic             Coordinates (Angstroms)
 Number     Number       Type             X           Y           Z
 ---------------------------------------------------------------------
      1          6           0        1.617996    1.161827    0.985694
      2          6           0        1.600210   -0.089838    0.139513
      3          6           0        2.689382   -0.766123   -0.317521
      4          6           0        4.126632   -0.514933   -0.165462
      5          8           0        4.918156   -1.311376   -0.664074
      6          6           0        4.666922    0.704842    0.568921
      7          7           0        0.349184   -0.646293   -0.105591
      8          6           0       -0.898782   -0.014408   -0.175136
      9          6           0       -1.048651    1.331562   -0.548672
     10          6           0       -2.315301    1.909405   -0.607088
     11          6           0       -3.456735    1.161804   -0.334053
     12          6           0       -3.313040   -0.192331    0.008173
     13          6           0       -2.043735   -0.774367    0.098432
     14          6           0       -4.473414   -0.987272    0.285530
     15          7           0       -5.415639   -1.630862    0.509398
     16          1           0        2.373064    1.075392    1.767326
     17          1           0        0.652492    1.321616    1.468006
     18          1           0        1.856731    2.055309    0.399323
     19          1           0        2.507574   -1.660419   -0.911736
     20          1           0        4.217364    1.637007    0.212246
     21          1           0        4.473557    0.633879    1.646246
     22          1           0        5.746478    0.737924    0.411909
     23          1           0        0.363487   -1.606257   -0.424987
     24          1           0       -0.176876    1.915002   -0.819212
     25          1           0       -2.410745    2.952021   -0.894102
     26          1           0       -4.444955    1.603518   -0.390449
     27          1           0       -1.947139   -1.814898    0.391393
 ---------------------------------------------------------------------

 SCF Done:  E(UB3LYP) =  -649.456928436     A.U. after   26 cycles

 The electronic state is 2-A.
 Alpha  occ. eigenvalues --  -18.95764 -14.23347 -14.17728 -10.11650 -10.10579
 Alpha  occ. eigenvalues --  -10.09652 -10.07890 -10.07433 -10.07083 -10.06649
 Alpha  occ. eigenvalues --  -10.06163 -10.06149 -10.04897 -10.04259 -10.03398
 Alpha  occ. eigenvalues --   -0.89546  -0.84471  -0.78040  -0.73964  -0.68150
 Alpha  occ. eigenvalues --   -0.64824  -0.63063  -0.61928  -0.59086  -0.52795
 Alpha  occ. eigenvalues --   -0.50842  -0.48159  -0.43905  -0.41666  -0.38414
 Alpha  occ. eigenvalues --   -0.37840  -0.35818  -0.34882  -0.33902  -0.33155
 Alpha  occ. eigenvalues --   -0.32013  -0.31373  -0.30450  -0.29748  -0.28131
 Alpha  occ. eigenvalues --   -0.26812  -0.25713  -0.25417  -0.24952  -0.24727
 Alpha  occ. eigenvalues --   -0.23784  -0.23356  -0.20976  -0.20765  -0.15160
 Alpha  occ. eigenvalues --   -0.14273  -0.12016  -0.09236   0.02962
 Alpha virt. eigenvalues --    0.06553   0.07262   0.08459   0.09089   0.09868
 Alpha virt. eigenvalues --    0.09980   0.10541   0.11329   0.11986   0.12383
 Alpha virt. eigenvalues --    0.12712   0.13832   0.13918   0.14581   0.14889

  Beta  occ. eigenvalues --  -18.95511 -14.23432 -14.17521 -10.11522 -10.10298
  Beta  occ. eigenvalues --  -10.09562 -10.07890 -10.07226 -10.07101 -10.06678
  Beta  occ. eigenvalues --  -10.06242 -10.06172 -10.04635 -10.03887 -10.03388
  Beta  occ. eigenvalues --   -0.89101  -0.84363  -0.77719  -0.73607  -0.67828
  Beta  occ. eigenvalues --   -0.64349  -0.62835  -0.61786  -0.58932  -0.52201
  Beta  occ. eigenvalues --   -0.50630  -0.47866  -0.43796  -0.41389  -0.38254
  Beta  occ. eigenvalues --   -0.37564  -0.35598  -0.34659  -0.33714  -0.33001
  Beta  occ. eigenvalues --   -0.31960  -0.31142  -0.30338  -0.29544  -0.27383
  Beta  occ. eigenvalues --   -0.26652  -0.25439  -0.25168  -0.24818  -0.24213
  Beta  occ. eigenvalues --   -0.23213  -0.22616  -0.20712  -0.20105  -0.14223
  Beta  occ. eigenvalues --   -0.12794  -0.11784  -0.08416
  Beta virt. eigenvalues --    0.07230   0.07835   0.08139   0.08441   0.09223
  Beta virt. eigenvalues --    0.09934   0.09987   0.11066   0.11498   0.11982
  Beta virt. eigenvalues --    0.12410   0.12698   0.13848   0.13926   0.14591

 Mulliken charges and spin densities:
               1          2
     1  C   -0.709338  -0.010082
     2  C   -0.200856   0.152698
     3  C    0.252819  -0.034364
     4  C   -0.108682   0.106738
     5  O   -0.368357   0.082095
     6  C   -0.469949  -0.005470
     7  N    0.064080  -0.011216
     8  C   -0.578532  -0.015045
     9  C    0.751494   0.265480
    10  C   -0.273644  -0.010994
    11  C   -0.417550   0.232205
    12  C    1.499915   0.138917
    13  C   -0.498990   0.038266
    14  C   -1.437264  -0.069377
    15  N   -0.294454   0.111071
    16  H    0.129203   0.004306
    17  H    0.176773   0.000278
    18  H    0.158543   0.016376
    19  H    0.157440   0.001013
    20  H    0.118933   0.000926
    21  H    0.122710   0.003103
    22  H    0.164436   0.000402
    23  H    0.227599   0.016344
    24  H    0.126650  -0.021723
    25  H    0.128134   0.006018
    26  H    0.130608  -0.013449
    27  H    0.148277   0.015484
 Sum of Mulliken charges =  -1.00000   1.00000

 Dipole moment (field-independent basis, Debye):
    X=              2.6362    Y=              4.5272    Z=              1.0354  Tot=              5.3401
 Quadrupole moment (field-independent basis, Debye-Ang):
   XX=           -207.0363   YY=           -102.1748   ZZ=            -98.9121
   XY=              0.2651   XZ=             13.5564   YZ=              0.1174

 Summary of Natural Population Analysis:

                                       Natural Population
                Natural  -----------------------------------------------
    Atom  No    Charge         Core      Valence    Rydberg      Total
 -----------------------------------------------------------------------
      C    1   -0.31207      0.99963     2.30803    0.00441     3.31207
      C    2    0.16971      0.99952     1.82091    0.00987     2.83029
      C    3   -0.19428      0.99947     2.18492    0.00990     3.19428
      C    4    0.26704      0.99966     1.71324    0.02006     2.73296
      O    5   -0.29286      0.99988     3.28522    0.00776     4.29286
      C    6   -0.32859      0.99964     2.32483    0.00413     3.32859
      N    7   -0.30409      0.99964     2.79474    0.00971     3.80409
      C    8    0.08544      0.99948     1.90531    0.00977     2.91456
      C    9   -0.04576      0.99954     2.03810    0.00813     3.04576
      C   10   -0.11805      0.99958     2.10937    0.00910     3.11805
      C   11   -0.04363      0.99955     2.03573    0.00835     3.04363
      C   12   -0.06334      0.99943     2.05368    0.01023     3.06334
      C   13   -0.09723      0.99951     2.09046    0.00726     3.09723
      C   14    0.15201      0.99964     1.82998    0.01836     2.84799
      N   15   -0.17539      0.99979     2.66459    0.01100     3.67539
      H   16    0.10611      0.00000     0.39297    0.00091     0.39389
      H   17    0.11239      0.00000     0.38683    0.00078     0.38761
      H   18    0.10539      0.00000     0.39370    0.00091     0.39461
      H   19    0.09677      0.00000     0.40142    0.00181     0.40323
      H   20    0.10046      0.00000     0.39851    0.00104     0.39954
      H   21    0.10053      0.00000     0.39847    0.00101     0.39947
      H   22    0.10447      0.00000     0.39393    0.00160     0.39553
      H   23    0.19074      0.00000     0.30751    0.00175     0.30926
      H   24    0.09485      0.00000     0.40388    0.00127     0.40515
      H   25    0.09417      0.00000     0.40482    0.00101     0.40583
      H   26    0.09571      0.00000     0.40342    0.00087     0.40429
      H   27    0.09953      0.00000     0.39948    0.00099     0.40047
 =======================================================================
   * Total *   -0.00000     14.99394    37.84405    0.16201    53.00000

 Normal termination of Gaussian 16 at Thu Dec 10 16:33:34 2020.
