 Gaussian 16, Revision A.03,

 -----------------------------------------------------------
 # opt freq B3LYP/6-31G(d) empiricaldispersion=gd3bj scf=xqc
 -----------------------------------------------------------

 -----------------------------
 CID_4684708_JID_4265_neutraal
 -----------------------------
 Symbolic Z-matrix:
 Charge =  0 Multiplicity = 1

 SCF Done:  E(RB3LYP) =  -918.111266309     A.U. after   15 cycles
 SCF Done:  E(RB3LYP) =  -918.114080619     A.U. after   12 cycles
 SCF Done:  E(RB3LYP) =  -918.114538960     A.U. after   12 cycles
 SCF Done:  E(RB3LYP) =  -918.114633882     A.U. after   12 cycles
 SCF Done:  E(RB3LYP) =  -918.114781653     A.U. after   10 cycles
 SCF Done:  E(RB3LYP) =  -918.114857827     A.U. after   11 cycles
 SCF Done:  E(RB3LYP) =  -918.114871549     A.U. after    9 cycles
 SCF Done:  E(RB3LYP) =  -918.114880134     A.U. after    9 cycles
 SCF Done:  E(RB3LYP) =  -918.114883092     A.U. after    9 cycles
 SCF Done:  E(RB3LYP) =  -918.114883626     A.U. after    8 cycles
 SCF Done:  E(RB3LYP) =  -918.114883799     A.U. after    8 cycles
 SCF Done:  E(RB3LYP) =  -918.114883839     A.U. after    7 cycles
 Optimization completed.
    -- Stationary point found.
 Normal termination of Gaussian 16 at Thu Dec 10 09:20:44 2020.

 --------------------------------------------------------------------
 #N Geom=AllCheck Guess=TCheck SCRF=Check GenChk RB3LYP/6-31G(d) Freq
 --------------------------------------------------------------------

 Structure from the checkpoint file:  "JID_4265.chk"
 -----------------------------
 CID_4684708_JID_4265_neutraal
 -----------------------------
 Charge =  0 Multiplicity = 1

 SCF Done:  E(RB3LYP) =  -918.114883839     A.U. after    1 cycles

  Exact polarizability: 220.289  -2.231 148.484   0.081   6.353  78.717
 Approx polarizability: 312.415 -13.381 254.194  -2.492  22.560 131.113

                      1                      2                      3
                      A                      A                      A
 Frequencies --     50.7755                65.9833               102.8022
 Red. masses --      5.0800                 4.1330                 4.3855
 Frc consts  --      0.0077                 0.0106                 0.0273
 IR Inten    --      0.5697                 0.4699                 0.3155

                      4                      5                      6
                      A                      A                      A
 Frequencies --    127.8222               138.3336               154.8832
 Red. masses --      2.3014                 1.0460                 1.1351
 Frc consts  --      0.0222                 0.0118                 0.0160
 IR Inten    --      1.7851                 0.1029                 0.3964

                      7                      8                      9
                      A                      A                      A
 Frequencies --    167.5961               210.0854               265.0254
 Red. masses --      1.2338                 2.6132                 4.6895
 Frc consts  --      0.0204                 0.0680                 0.1941
 IR Inten    --      0.0456                 0.2031                 0.5679

                     10                     11                     12
                      A                      A                      A
 Frequencies --    284.4213               296.7353               320.6167
 Red. masses --      3.6694                 2.6033                 4.1285
 Frc consts  --      0.1749                 0.1351                 0.2500
 IR Inten    --      0.5106                 0.3264                 0.7503

                     13                     14                     15
                      A                      A                      A
 Frequencies --    334.0839               391.5458               465.5397
 Red. masses --      3.3812                 4.2181                 3.1902
 Frc consts  --      0.2223                 0.3810                 0.4074
 IR Inten    --      0.4492                 0.8514                 2.2054

                     16                     17                     18
                      A                      A                      A
 Frequencies --    477.2745               495.9149               543.1396
 Red. masses --      4.6458                 4.1391                 3.4339
 Frc consts  --      0.6235                 0.5997                 0.5968
 IR Inten    --      0.7675                 0.8596                 1.4767

                     19                     20                     21
                      A                      A                      A
 Frequencies --    592.4382               615.6662               641.5990
 Red. masses --      5.5658                 4.2148                 7.5807
 Frc consts  --      1.1510                 0.9413                 1.8386
 IR Inten    --      2.3271                 0.4110                 2.7849

                     22                     23                     24
                      A                      A                      A
 Frequencies --    704.6185               729.2654               745.0833
 Red. masses --      4.4262                 1.3223                 5.4526
 Frc consts  --      1.2948                 0.4143                 1.7835
 IR Inten    --      0.3232                 5.3254                 2.6093

                     25                     26                     27
                      A                      A                      A
 Frequencies --    752.1856               786.5167               812.7073
 Red. masses --      3.0897                 5.0108                 2.8915
 Frc consts  --      1.0300                 1.8263                 1.1252
 IR Inten    --      0.1068                 3.8151                 9.7501

                     28                     29                     30
                      A                      A                      A
 Frequencies --    824.6453               884.6752               893.5159
 Red. masses --      1.5694                 2.8082                 1.4843
 Frc consts  --      0.6288                 1.2949                 0.6982
 IR Inten    --     34.7854                49.9117                 7.4372

                     31                     32                     33
                      A                      A                      A
 Frequencies --    909.6575               911.7003              1014.7035
 Red. masses --      5.0554                 1.4318                 1.9926
 Frc consts  --      2.4647                 0.7012                 1.2088
 IR Inten    --     18.8903                 2.5335                 8.2763

                     34                     35                     36
                      A                      A                      A
 Frequencies --   1023.4528              1038.6676              1059.5339
 Red. masses --      1.5245                 1.9577                 1.4270
 Frc consts  --      0.9409                 1.2444                 0.9438
 IR Inten    --      2.7032                 7.1787                 4.9463

                     37                     38                     39
                      A                      A                      A
 Frequencies --   1066.2929              1077.0996              1085.8947
 Red. masses --      1.4432                 1.5155                 1.5808
 Frc consts  --      0.9668                 1.0359                 1.0982
 IR Inten    --      2.3008                 4.3858                 0.1874

                     40                     41                     42
                      A                      A                      A
 Frequencies --   1145.3621              1216.3991              1229.1436
 Red. masses --      2.2144                 1.7610                 2.2034
 Frc consts  --      1.7115                 1.5352                 1.9613
 IR Inten    --      2.3354                 4.3788                 0.5107

                     43                     44                     45
                      A                      A                      A
 Frequencies --   1259.8837              1305.7884              1319.0759
 Red. masses --      2.1299                 2.2866                 1.4280
 Frc consts  --      1.9919                 2.2971                 1.4639
 IR Inten    --      0.5241                 1.8971                 0.1850

                     46                     47                     48
                      A                      A                      A
 Frequencies --   1341.6317              1348.0087              1430.0153
 Red. masses --      3.7179                 4.8030                 2.1985
 Frc consts  --      3.9429                 5.1422                 2.6488
 IR Inten    --     16.2119                 5.6475                 5.8268

                     49                     50                     51
                      A                      A                      A
 Frequencies --   1443.1968              1447.7214              1450.7843
 Red. masses --      1.5225                 1.4024                 1.2334
 Frc consts  --      1.8684                 1.7318                 1.5295
 IR Inten    --      1.9748                 0.6461                 0.1930

                     52                     53                     54
                      A                      A                      A
 Frequencies --   1496.6417              1507.0504              1509.2311
 Red. masses --      3.4478                 1.0453                 1.0972
 Frc consts  --      4.5502                 1.3988                 1.4725
 IR Inten    --     18.8584                 0.0214                 3.7146

                     55                     56                     57
                      A                      A                      A
 Frequencies --   1518.8086              1522.3053              1523.6126
 Red. masses --      1.2106                 1.0442                 1.1739
 Frc consts  --      1.6453                 1.4257                 1.6055
 IR Inten    --      4.7771                14.2172                 5.8596

                     58                     59                     60
                      A                      A                      A
 Frequencies --   1527.8593              1533.6503              1570.4661
 Red. masses --      1.3008                 2.8912                 3.9530
 Frc consts  --      1.7891                 4.0066                 5.7443
 IR Inten    --     11.7453                83.8827                 8.4729

                     61                     62                     63
                      A                      A                      A
 Frequencies --   1615.8458              1677.1843              3036.3160
 Red. masses --      6.5538                 6.0694                 1.0390
 Frc consts  --     10.0820                10.0591                 5.6438
 IR Inten    --      1.3021                 1.4854                 7.6395

                     64                     65                     66
                      A                      A                      A
 Frequencies --   3037.2420              3057.0594              3082.4978
 Red. masses --      1.0380                 1.0370                 1.1002
 Frc consts  --      5.6419                 5.7100                 6.1591
 IR Inten    --     72.4208                25.6219                42.4433

                     67                     68                     69
                      A                      A                      A
 Frequencies --   3084.2194              3117.5438              3125.6238
 Red. masses --      1.1001                 1.1001                 1.0998
 Frc consts  --      6.1655                 6.2994                 6.3307
 IR Inten    --      0.3159                18.3777                27.5378

                     70                     71                     72
                      A                      A                      A
 Frequencies --   3128.0184              3135.1800              3170.1265
 Red. masses --      1.0996                 1.1019                 1.0895
 Frc consts  --      6.3390                 6.3815                 6.4510
 IR Inten    --      8.9901                15.4652                34.4139

                     73                     74                     75
                      A                      A                      A
 Frequencies --   3181.5639              3247.0848              3285.0978
 Red. masses --      1.0896                 1.0940                 1.0942
 Frc consts  --      6.4982                 6.7959                 6.9574
 IR Inten    --      9.9469                 1.7611                 3.5112

 - Thermochemistry -
 -------------------
 Temperature   298.150 Kelvin.  Pressure   1.00000 Atm.
 Atom     1 has atomic number  6 and mass  12.00000

 Molecular mass:   203.07687 amu.
 Principal axes and moments of inertia in atomic units:
                           1         2         3
     Eigenvalues --  1310.324085281.593416382.99340
           X            0.99987   0.01582   0.00098
           Y           -0.01581   0.99984  -0.00838
           Z           -0.00111   0.00836   0.99996
 This molecule is an asymmetric top.
 Rotational symmetry number  1.
 Warning -- assumption of classical behavior for rotation
           may cause significant error
 Rotational temperatures (Kelvin)      0.06610     0.01640     0.01357
 Rotational constants (GHZ):           1.37732     0.34170     0.28274
 Zero-point vibrational energy     578333.1 (Joules/Mol)
                                  138.22492 (Kcal/Mol)
 Warning -- explicit consideration of  20 degrees of freedom as
           vibrations may cause significant error
 Vibrational temperatures:     73.05    94.94   147.91   183.91   199.03
          (Kelvin)            222.84   241.13   302.27   381.31   409.22
                              426.94   461.30   480.67   563.35   669.81
                              686.69   713.51   781.46   852.39   885.81
                              923.12  1013.79  1049.25  1072.01  1082.23
                             1131.62  1169.30  1186.48  1272.85  1285.57
                             1308.79  1311.73  1459.93  1472.52  1494.41
                             1524.43  1534.16  1549.71  1562.36  1647.92
                             1750.13  1768.46  1812.69  1878.74  1897.86
                             1930.31  1939.48  2057.47  2076.44  2082.95
                             2087.36  2153.33  2168.31  2171.45  2185.23
                             2190.26  2192.14  2198.25  2206.58  2259.55
                             2324.84  2413.09  4368.58  4369.91  4398.43
                             4435.03  4437.50  4485.45  4497.08  4500.52
                             4510.82  4561.10  4577.56  4671.83  4726.52

 Zero-point correction=                           0.220275 (Hartree/Particle)
 Thermal correction to Energy=                    0.233635
 Thermal correction to Enthalpy=                  0.234579
 Thermal correction to Gibbs Free Energy=         0.180108
 Sum of electronic and zero-point Energies=           -917.894608
 Sum of electronic and thermal Energies=              -917.881249
 Sum of electronic and thermal Enthalpies=            -917.880305
 Sum of electronic and thermal Free Energies=         -917.934776

                     E (Thermal)             CV                S
                      KCal/Mol        Cal/Mol-Kelvin    Cal/Mol-Kelvin
 Total                  146.608             50.853            114.645
 Electronic               0.000              0.000              0.000
 Translational            0.889              2.981             41.830
 Rotational               0.889              2.981             32.157
 Vibrational            144.831             44.891             40.658
 Vibration     1          0.595              1.977              4.787
 Vibration     2          0.597              1.970              4.270
 Vibration     3          0.605              1.947              3.400
 Vibration     4          0.611              1.925              2.979
 Vibration     5          0.614              1.915              2.827
 Vibration     6          0.620              1.897              2.611
 Vibration     7          0.624              1.882              2.462
 Vibration     8          0.642              1.825              2.043
 Vibration     9          0.671              1.737              1.628
 Vibration    10          0.683              1.703              1.507
 Vibration    11          0.690              1.680              1.435
 Vibration    12          0.706              1.634              1.307
 Vibration    13          0.716              1.607              1.240
 Vibration    14          0.759              1.488              0.994
 Vibration    15          0.823              1.326              0.750
 Vibration    16          0.834              1.300              0.717
 Vibration    17          0.851              1.259              0.668
 Vibration    18          0.898              1.155              0.559
 Vibration    19          0.950              1.048              0.463
 Vibration    20          0.975              0.999              0.423

 Optimization completed.
    -- Stationary point found.
 Normal termination of Gaussian 16 at Thu Dec 10 09:28:07 2020.

 ----------------------------------------------------------------------
 # B3LYP/6-311++G(d,p) empiricaldispersion=gd3bj scf=xqc pop=npa geom=c
 heck
 ----------------------------------------------------------------------

 -------------------------------------
 CID_4684708_JID_4265_Energie_neutraal
 -------------------------------------
 Structure from the checkpoint file:  "JID_4265.chk"
 Charge =  0 Multiplicity = 1

 SCF Done:  E(RB3LYP) =  -918.271778163     A.U. after   17 cycles
 Normal termination of Gaussian 16 at Thu Dec 10 09:31:59 2020.

 ----------------------------------------------------------------------
 # B3LYP/6-311++G(d,p) empiricaldispersion=gd3bj scf=xqc pop=npa geom=c
 heck
 ----------------------------------------------------------------------

 -----------------------------------
 CID_4684708_JID_4265_Energie_kation
 -----------------------------------
 Structure from the checkpoint file:  "JID_4265.chk"
 Charge =  1 Multiplicity = 2

 SCF Done:  E(UB3LYP) =  -917.990233068     A.U. after   25 cycles
 Normal termination of Gaussian 16 at Thu Dec 10 09:40:09 2020.
 Gaussian 16:  ES64L-G16RevA.03 25-Dec-2016

 ----------------------------------------------------------------------
 # B3LYP/6-311++G(d,p) empiricaldispersion=gd3bj scf=xqc pop=npa geom=c
 heck
 ----------------------------------------------------------------------

 ----------------------------------
 CID_4684708_JID_4265_Energie_anion
 ----------------------------------
 Structure from the checkpoint file:  "JID_4265.chk"
 Charge = -1 Multiplicity = 2

                         Standard orientation:
 ---------------------------------------------------------------------
 Center     Atomic      Atomic             Coordinates (Angstroms)
 Number     Number       Type             X           Y           Z
 ---------------------------------------------------------------------
      1          6           0       -4.392065    0.327480   -0.065631
      2          6           0       -2.887916    0.229154   -0.034489
      3          6           0       -2.101541    1.377888   -0.145036
      4          6           0       -0.704011    1.356449   -0.120936
      5          6           0       -0.068632    0.106314    0.024687
      6          6           0       -0.855905   -1.048928    0.137285
      7          6           0       -2.248869   -1.016621    0.108201
      8          6           0       -3.047199   -2.289309    0.240071
      9          6           0        1.401003   -0.038357    0.041269
     10          6           0        2.091951   -1.056879   -0.569958
     11         16           0        3.793037   -0.907801   -0.284301
     12          6           0        3.457656    0.538029    0.642492
     13          7           0        2.204608    0.863787    0.724806
     14          6           0        0.062853    2.646827   -0.277064
     15          1           0       -4.717864    1.364681   -0.186470
     16          1           0       -4.818900   -0.257311   -0.890731
     17          1           0       -4.841349   -0.059853    0.858027
     18          1           0       -2.599784    2.337883   -0.263599
     19          1           0       -0.356706   -2.004454    0.277250
     20          1           0       -3.712178   -2.262319    1.112923
     21          1           0       -3.686245   -2.459359   -0.636103
     22          1           0       -2.390403   -3.157566    0.348047
     23          1           0        1.694141   -1.855453   -1.178928
     24          1           0        4.261859    1.095537    1.107837
     25          1           0       -0.615217    3.464737   -0.539991
     26          1           0        0.593113    2.911218    0.642156
     27          1           0        0.824745    2.568276   -1.060583
 ---------------------------------------------------------------------

 SCF Done:  E(UB3LYP) =  -918.261474966     A.U. after   33 cycles
 SCF Done:  E(UB3LYP) =  -918.261474966     a.u. after    1 cycles

 The electronic state is 2-A.
 Alpha  occ. eigenvalues --  -88.75025 -14.18697 -10.09736 -10.07559 -10.05919
 Alpha  occ. eigenvalues --  -10.05890 -10.05856 -10.05577 -10.05545 -10.05449
 Alpha  occ. eigenvalues --  -10.05396 -10.04779 -10.04774 -10.04665  -7.83696
 Alpha  occ. eigenvalues --   -5.79960  -5.79627  -5.79343  -0.83491  -0.74485
 Alpha  occ. eigenvalues --   -0.68002  -0.66959  -0.65459  -0.62012  -0.59953
 Alpha  occ. eigenvalues --   -0.56549  -0.53663  -0.48874  -0.46636  -0.45719
 Alpha  occ. eigenvalues --   -0.41540  -0.38200  -0.36623  -0.34435  -0.32599
 Alpha  occ. eigenvalues --   -0.32192  -0.30135  -0.29618  -0.29173  -0.28814
 Alpha  occ. eigenvalues --   -0.28321  -0.28208  -0.28036  -0.27398  -0.25863
 Alpha  occ. eigenvalues --   -0.24980  -0.22266  -0.21874  -0.21445  -0.16407
 Alpha  occ. eigenvalues --   -0.15185  -0.14704  -0.12312  -0.10017   0.05077
 Alpha virt. eigenvalues --    0.06742   0.08063   0.08376   0.09071   0.09567
 Alpha virt. eigenvalues --    0.09964   0.10219   0.10810   0.11289   0.11958
 Alpha virt. eigenvalues --    0.12255   0.12503   0.12746   0.13087   0.13711

  Beta  occ. eigenvalues --  -88.74975 -14.18709 -10.09519 -10.07536 -10.05895
  Beta  occ. eigenvalues --  -10.05876 -10.05572 -10.05546 -10.05452 -10.05396
  Beta  occ. eigenvalues --  -10.05370 -10.04784 -10.04776 -10.04626  -7.83651
  Beta  occ. eigenvalues --   -5.79941  -5.79607  -5.79172  -0.83323  -0.74391
  Beta  occ. eigenvalues --   -0.67883  -0.66645  -0.65345  -0.61828  -0.59838
  Beta  occ. eigenvalues --   -0.56415  -0.53555  -0.48690  -0.46346  -0.45463
  Beta  occ. eigenvalues --   -0.41405  -0.38058  -0.36551  -0.34326  -0.32512
  Beta  occ. eigenvalues --   -0.32094  -0.30007  -0.29493  -0.29064  -0.28746
  Beta  occ. eigenvalues --   -0.28155  -0.28072  -0.27752  -0.27205  -0.25810
  Beta  occ. eigenvalues --   -0.24745  -0.22054  -0.21827  -0.21340  -0.15652
  Beta  occ. eigenvalues --   -0.15136  -0.13896  -0.12053  -0.09109
  Beta virt. eigenvalues --    0.07363   0.08213   0.08474   0.09081   0.09190
  Beta virt. eigenvalues --    0.09940   0.10270   0.10680   0.11150   0.11621
  Beta virt. eigenvalues --    0.11978   0.12401   0.12570   0.12775   0.13212

 Mulliken charges and spin densities:
               1          2
     1  C    1.168835  -1.758363
     2  C   -1.117923   1.920294
     3  C    0.339863  -1.494610
     4  C    0.748602   0.042854
     5  C    0.468957   0.187221
     6  C   -0.070226  -1.011231
     7  C   -1.761718   2.422209
     8  C    1.111179  -1.740996
     9  C   -1.362567  -0.046713
    10  C    0.392559   0.300586
    11  S   -0.463338   0.019235
    12  C    0.162274   0.170994
    13  N    0.131888  -0.018273
    14  C   -0.564644  -0.104881
    15  H   -0.438505   0.585626
    16  H   -0.271351   0.426942
    17  H   -0.008417   0.145794
    18  H    0.073380  -0.032454
    19  H    0.189745  -0.082362
    20  H   -0.125468   0.263542
    21  H   -0.126042   0.274728
    22  H   -0.187536   0.334598
    23  H    0.135321   0.112271
    24  H    0.196874   0.014263
    25  H    0.083446   0.033226
    26  H    0.142849   0.030950
    27  H    0.151962   0.004550
 Sum of Mulliken charges =  -1.00000   1.00000

 Dipole moment (field-independent basis, Debye):
    X=              4.8853    Y=              1.4211    Z=              0.6325  Tot=              5.1269
 Quadrupole moment (field-independent basis, Debye-Ang):
   XX=           -167.4590   YY=           -115.5135   ZZ=           -110.5558
   XY=             -5.4275   XZ=             -4.2626   YZ=             -1.0269

 Summary of Natural Population Analysis:

                                       Natural Population
                Natural  -----------------------------------------------
    Atom  No    Charge         Core      Valence    Rydberg      Total
 -----------------------------------------------------------------------
      C    1   -0.29409      0.99964     2.28883    0.00562     3.29409
      C    2   -0.00156      0.99947     1.99271    0.00937     3.00156
      C    3   -0.10295      0.99948     2.09469    0.00877     3.10295
      C    4    0.00080      0.99948     1.99223    0.00749     2.99920
      C    5   -0.02341      0.99944     2.01392    0.01004     3.02341
      C    6   -0.08014      0.99949     2.07243    0.00822     3.08014
      C    7   -0.02412      0.99947     2.01547    0.00917     3.02412
      C    8   -0.29263      0.99964     2.28725    0.00574     3.29263
      C    9    0.05021      0.99946     1.93449    0.01584     2.94979
      C   10   -0.14587      0.99948     2.13695    0.00944     3.14587
      S   11    0.17775      4.99948     2.80077    0.02200     7.82225
      C   12   -0.02564      0.99966     2.00994    0.01604     3.02564
      N   13   -0.24697      0.99967     2.73453    0.01278     3.74697
      C   14   -0.29398      0.99964     2.28933    0.00502     3.29398
      H   15    0.09956      0.00000     0.39949    0.00095     0.40044
      H   16    0.10582      0.00000     0.39179    0.00239     0.39418
      H   17    0.10074      0.00000     0.39823    0.00103     0.39926
      H   18    0.09114      0.00000     0.40743    0.00143     0.40886
      H   19    0.09635      0.00000     0.40198    0.00167     0.40365
      H   20    0.10134      0.00000     0.39753    0.00113     0.39866
      H   21    0.10348      0.00000     0.39533    0.00119     0.39652
      H   22    0.09951      0.00000     0.39964    0.00084     0.40049
      H   23    0.10662      0.00000     0.39202    0.00137     0.39338
      H   24    0.08898      0.00000     0.40992    0.00110     0.41102
      H   25    0.09247      0.00000     0.40674    0.00079     0.40753
      H   26    0.11223      0.00000     0.38637    0.00140     0.38777
      H   27    0.10437      0.00000     0.39452    0.00112     0.39563
 =======================================================================
   * Total *    0.00000     17.99352    35.84454    0.16194    54.00000

 Normal termination of Gaussian 16 at Thu Dec 10 09:50:58 2020.
