 Gaussian 16, Revision A.03,

 -----------------------------------------------------------
 # opt freq B3LYP/6-31G(d) empiricaldispersion=gd3bj scf=xqc
 -----------------------------------------------------------

 ------------------------------
 CID_64214488_JID_8605_neutraal
 ------------------------------
 Symbolic Z-matrix:
 Charge =  0 Multiplicity = 1

 SCF Done:  E(RB3LYP) =  -753.514937226     A.U. after   14 cycles
 SCF Done:  E(RB3LYP) =  -753.520613415     A.U. after   11 cycles
 SCF Done:  E(RB3LYP) =  -753.521921342     A.U. after   11 cycles
 SCF Done:  E(RB3LYP) =  -753.522566296     A.U. after   12 cycles
 SCF Done:  E(RB3LYP) =  -753.523430111     A.U. after   11 cycles
 SCF Done:  E(RB3LYP) =  -753.524021467     A.U. after   12 cycles
 SCF Done:  E(RB3LYP) =  -753.524332580     A.U. after   12 cycles
 SCF Done:  E(RB3LYP) =  -753.524494225     A.U. after   10 cycles
 SCF Done:  E(RB3LYP) =  -753.524551685     A.U. after   10 cycles
 SCF Done:  E(RB3LYP) =  -753.524563994     A.U. after    9 cycles
 SCF Done:  E(RB3LYP) =  -753.524643964     A.U. after   10 cycles
 SCF Done:  E(RB3LYP) =  -753.524645482     A.U. after    9 cycles
 SCF Done:  E(RB3LYP) =  -753.524646149     A.U. after    7 cycles
 SCF Done:  E(RB3LYP) =  -753.524646362     A.U. after    8 cycles
 SCF Done:  E(RB3LYP) =  -753.524646418     A.U. after    7 cycles
 Optimization completed.
    -- Stationary point found.
 Normal termination of Gaussian 16 at Fri Dec 11 21:31:58 2020.

 --------------------------------------------------------------------
 #N Geom=AllCheck Guess=TCheck SCRF=Check GenChk RB3LYP/6-31G(d) Freq
 --------------------------------------------------------------------

 Structure from the checkpoint file:  "JID_8605.chk"
 ------------------------------
 CID_64214488_JID_8605_neutraal
 ------------------------------
 Charge =  0 Multiplicity = 1

 SCF Done:  E(RB3LYP) =  -753.524646418     A.U. after    1 cycles

  Exact polarizability: 233.142   0.785 176.986   6.909  -8.729 122.360
 Approx polarizability: 316.739   1.550 264.144  21.220 -21.400 188.232

                      1                      2                      3
                      A                      A                      A
 Frequencies --     20.7573                35.3346                40.8396
 Red. masses --      3.4150                 2.6874                 4.8830
 Frc consts  --      0.0009                 0.0020                 0.0048
 IR Inten    --      0.1553                 0.0968                 0.1013

                      4                      5                      6
                      A                      A                      A
 Frequencies --     72.8729                79.8682                88.7511
 Red. masses --      3.3057                 3.3971                 2.6757
 Frc consts  --      0.0103                 0.0128                 0.0124
 IR Inten    --      0.2518                 0.1748                 0.0192

                      7                      8                      9
                      A                      A                      A
 Frequencies --     93.5738               120.3052               140.5154
 Red. masses --      4.5096                 3.4632                 1.0962
 Frc consts  --      0.0233                 0.0295                 0.0128
 IR Inten    --      2.5382                 0.5092                 0.5050

                     10                     11                     12
                      A                      A                      A
 Frequencies --    187.1438               209.1533               215.8597
 Red. masses --      3.3625                 4.0459                 2.7927
 Frc consts  --      0.0694                 0.1043                 0.0767
 IR Inten    --      0.2766                 0.4586                 1.5464

                     13                     14                     15
                      A                      A                      A
 Frequencies --    225.7982               268.4670               273.1718
 Red. masses --      3.1487                 2.9826                 3.0774
 Frc consts  --      0.0946                 0.1267                 0.1353
 IR Inten    --      1.6796                 0.6950                 1.0991

                     16                     17                     18
                      A                      A                      A
 Frequencies --    289.2093               303.7969               357.1442
 Red. masses --      2.1918                 2.8643                 1.3869
 Frc consts  --      0.1080                 0.1558                 0.1042
 IR Inten    --     21.5434                 1.7452               108.1154

                     19                     20                     21
                      A                      A                      A
 Frequencies --    368.9738               410.0469               423.2874
 Red. masses --      2.4300                 3.4267                 3.5905
 Frc consts  --      0.1949                 0.3395                 0.3790
 IR Inten    --     19.5986                 4.2003                 7.6034

                     22                     23                     24
                      A                      A                      A
 Frequencies --    447.0716               463.1644               488.0021
 Red. masses --      2.6420                 3.2014                 2.2379
 Frc consts  --      0.3111                 0.4046                 0.3140
 IR Inten    --      6.2271                 9.9414                 4.0701

                     25                     26                     27
                      A                      A                      A
 Frequencies --    547.9862               569.7812               590.7434
 Red. masses --      4.1722                 3.1970                 3.2368
 Frc consts  --      0.7382                 0.6115                 0.6655
 IR Inten    --      7.8754                 2.8455                 1.2838

                     28                     29                     30
                      A                      A                      A
 Frequencies --    619.8826               711.6317               742.2225
 Red. masses --      3.0629                 3.5467                 4.2447
 Frc consts  --      0.6934                 1.0582                 1.3777
 IR Inten    --      7.0521                 2.4904                 1.1628

                     31                     32                     33
                      A                      A                      A
 Frequencies --    774.5074               780.0072               785.7256
 Red. masses --      1.1883                 1.5931                 2.2153
 Frc consts  --      0.4200                 0.5711                 0.8058
 IR Inten    --      0.7044                 4.9027                 8.2333

                     34                     35                     36
                      A                      A                      A
 Frequencies --    810.8301               813.6518               821.0205
 Red. masses --      1.4758                 1.3243                 1.4883
 Frc consts  --      0.5717                 0.5165                 0.5911
 IR Inten    --      3.7392                 6.3556                18.4311

                     37                     38                     39
                      A                      A                      A
 Frequencies --    849.7991               850.7881               868.4026
 Red. masses --      1.7975                 1.7750                 1.4421
 Frc consts  --      0.7648                 0.7570                 0.6407
 IR Inten    --     13.7858                 9.3911                18.1236

                     40                     41                     42
                      A                      A                      A
 Frequencies --    902.8946               907.0357               918.4110
 Red. masses --      2.4184                 1.8892                 2.0232
 Frc consts  --      1.1616                 0.9158                 1.0054
 IR Inten    --     11.5403                 0.7477                 2.7054

                     43                     44                     45
                      A                      A                      A
 Frequencies --    937.2665               955.6130               962.7752
 Red. masses --      1.3463                 2.4149                 2.4299
 Frc consts  --      0.6968                 1.2993                 1.3271
 IR Inten    --      0.4732                13.0998                18.9784

                     46                     47                     48
                      A                      A                      A
 Frequencies --    988.0672              1006.3696              1020.3357
 Red. masses --      1.7081                 2.6265                 2.3202
 Frc consts  --      0.9825                 1.5673                 1.4232
 IR Inten    --     32.0734                41.3531                14.0840

                     49                     50                     51
                      A                      A                      A
 Frequencies --   1031.7144              1043.0855              1060.5917
 Red. masses --      3.6226                 1.9976                 1.3718
 Frc consts  --      2.2719                 1.2806                 0.9091
 IR Inten    --     51.4959                28.5626                22.1782

                     52                     53                     54
                      A                      A                      A
 Frequencies --   1064.9406              1075.8752              1081.8723
 Red. masses --      1.4056                 1.5092                 1.6429
 Frc consts  --      0.9392                 1.0292                 1.1329
 IR Inten    --      7.2105                 9.1028                 2.1933

                     55                     56                     57
                      A                      A                      A
 Frequencies --   1085.2414              1087.2992              1144.7869
 Red. masses --      1.4182                 1.5712                 1.2227
 Frc consts  --      0.9841                 1.0944                 0.9441
 IR Inten    --      1.8203                 1.4406                 8.3156

                     58                     59                     60
                      A                      A                      A
 Frequencies --   1145.9646              1152.0285              1161.4165
 Red. masses --      1.2376                 1.7315                 1.7703
 Frc consts  --      0.9576                 1.3539                 1.4070
 IR Inten    --     12.6439                33.6507                36.1588

                     61                     62                     63
                      A                      A                      A
 Frequencies --   1194.2375              1208.2563              1211.2980
 Red. masses --      1.7314                 1.3916                 1.2111
 Frc consts  --      1.4549                 1.1969                 1.0470
 IR Inten    --     11.6294                 1.2449                 9.6438

                     64                     65                     66
                      A                      A                      A
 Frequencies --   1211.6635              1224.7633              1226.4154
 Red. masses --      1.4031                 1.5948                 2.4164
 Frc consts  --      1.2137                 1.4095                 2.1413
 IR Inten    --      0.5535                 6.3904                22.5392

                     67                     68                     69
                      A                      A                      A
 Frequencies --   1242.1208              1246.7015              1266.8549
 Red. masses --      1.9338                 2.0707                 2.1528
 Frc consts  --      1.7578                 1.8963                 2.0357
 IR Inten    --      1.8409                11.5677                 1.3509

                     70                     71                     72
                      A                      A                      A
 Frequencies --   1296.8860              1318.7898              1333.2864
 Red. masses --      1.8766                 1.5317                 1.4048
 Frc consts  --      1.8596                 1.5695                 1.4713
 IR Inten    --    104.6026                10.2337                 7.8414

                     73                     74                     75
                      A                      A                      A
 Frequencies --   1357.4088              1373.3823              1380.7582
 Red. masses --      2.0574                 1.3878                 1.4779
 Frc consts  --      2.2335                 1.5423                 1.6601
 IR Inten    --      5.4163                18.1001                16.1747

                     76                     77                     78
                      A                      A                      A
 Frequencies --   1389.4058              1427.4846              1435.3019
 Red. masses --      1.4195                 1.7913                 1.3340
 Frc consts  --      1.6146                 2.1506                 1.6192
 IR Inten    --     27.6324               182.4819                25.1518

                     79                     80                     81
                      A                      A                      A
 Frequencies --   1440.2723              1443.7600              1448.7868
 Red. masses --      1.5209                 1.2876                 1.4777
 Frc consts  --      1.8588                 1.5814                 1.8274
 IR Inten    --     28.8156                39.8976                10.2335

                     82                     83                     84
                      A                      A                      A
 Frequencies --   1485.0563              1495.1003              1497.0228
 Red. masses --      2.5867                 1.0876                 1.0895
 Frc consts  --      3.3611                 1.4324                 1.4386
 IR Inten    --     13.1726                 1.6092                 1.6191

                     85                     86                     87
                      A                      A                      A
 Frequencies --   1510.4055              1518.2927              1529.2823
 Red. masses --      1.0694                 1.1051                 1.1772
 Frc consts  --      1.4374                 1.5010                 1.6221
 IR Inten    --      4.0173                 2.3898                 6.4718

                     88                     89                     90
                      A                      A                      A
 Frequencies --   1533.0416              1537.5349              1540.5660
 Red. masses --      1.2323                 1.3234                 1.1600
 Frc consts  --      1.7063                 1.8432                 1.6221
 IR Inten    --     10.7304                 1.2019                 2.5488

                     91                     92                     93
                      A                      A                      A
 Frequencies --   1542.1853              1563.6085              1617.7610
 Red. masses --      1.2622                 2.2963                 5.8076
 Frc consts  --      1.7687                 3.3078                 8.9552
 IR Inten    --      9.0192               109.0747                54.3829

                     94                     95                     96
                      A                      A                      A
 Frequencies --   1675.7163              3006.2926              3035.7695
 Red. masses --      5.8683                 1.0707                 1.0641
 Frc consts  --      9.7087                 5.7015                 5.7781
 IR Inten    --    202.4783                79.8818                24.9157

                     97                     98                     99
                      A                      A                      A
 Frequencies --   3041.2622              3044.2114              3079.9763
 Red. masses --      1.0445                 1.0624                 1.1008
 Frc consts  --      5.6920                 5.8009                 6.1527
 IR Inten    --     27.1147                60.0064                29.9334

                    100                    101                    102
                      A                      A                      A
 Frequencies --   3086.7007              3086.9096              3104.3499
 Red. masses --      1.0995                 1.0936                 1.0910
 Frc consts  --      6.1722                 6.1396                 6.1945
 IR Inten    --     38.1646                28.7367                20.2940

                    103                    104                    105
                      A                      A                      A
 Frequencies --   3138.9697              3140.8511              3141.0519
 Red. masses --      1.0518                 1.0547                 1.1019
 Frc consts  --      6.1060                 6.1304                 6.4055
 IR Inten    --     21.8778                19.6776                10.4194

                    106                    107                    108
                      A                      A                      A
 Frequencies --   3143.7853              3158.0700              3167.2598
 Red. masses --      1.0582                 1.0566                 1.0891
 Frc consts  --      6.1618                 6.2086                 6.4369
 IR Inten    --     20.0795                11.5756                28.0877

                    109                    110                    111
                      A                      A                      A
 Frequencies --   3168.3607              3186.9071              3213.8298
 Red. masses --      1.0897                 1.0893                 1.1186
 Frc consts  --      6.4452                 6.5185                 6.8072
 IR Inten    --      7.2768                 5.5401                 0.7139

                    112                    113                    114
                      A                      A                      A
 Frequencies --   3217.6119              3222.7344              3228.4624
 Red. masses --      1.1164                 1.0901                 1.1150
 Frc consts  --      6.8098                 6.6707                 6.8474
 IR Inten    --      5.9720                20.3464                21.9689

                    115                    116                    117
                      A                      A                      A
 Frequencies --   3230.5849              3241.2429              3733.0769
 Red. masses --      1.0905                 1.1137                 1.0661
 Frc consts  --      6.7057                 6.8936                 8.7531
 IR Inten    --     16.4659                19.5413                 7.8787

 - Thermochemistry -
 -------------------
 Temperature   298.150 Kelvin.  Pressure   1.00000 Atm.
 Atom     1 has atomic number  6 and mass  12.00000

 Molecular mass:   245.17796 amu.
 Principal axes and moments of inertia in atomic units:
                           1         2         3
     Eigenvalues --  2893.155537366.493199140.15517
           X            0.99996   0.00690  -0.00484
           Y           -0.00693   0.99995  -0.00703
           Z            0.00479   0.00707   0.99996
 This molecule is an asymmetric top.
 Rotational symmetry number  1.
 Warning -- assumption of classical behavior for rotation
           may cause significant error
 Rotational temperatures (Kelvin)      0.02994     0.01176     0.00948
 Rotational constants (GHZ):           0.62380     0.24499     0.19745
 Zero-point vibrational energy     951242.7 (Joules/Mol)
                                  227.35245 (Kcal/Mol)
 Warning -- explicit consideration of  28 degrees of freedom as
           vibrations may cause significant error
 Vibrational temperatures:     29.87    50.84    58.76   104.85   114.91
          (Kelvin)            127.69   134.63   173.09   202.17   269.26
                              300.93   310.57   324.87   386.26   393.03
                              416.11   437.10   513.85   530.87   589.97
                              609.02   643.24   666.39   702.13   788.43
                              819.79   849.95   891.87  1023.88  1067.89
                             1114.34  1122.26  1130.48  1166.60  1170.66
                             1181.27  1222.67  1224.09  1249.44  1299.06
                             1305.02  1321.39  1348.52  1374.91  1385.22
                             1421.61  1447.94  1468.04  1484.41  1500.77
                             1525.95  1532.21  1547.94  1556.57  1561.42
                             1564.38  1647.09  1648.79  1657.51  1671.02
                             1718.24  1738.41  1742.79  1743.31  1762.16
                             1764.54  1787.13  1793.73  1822.72  1865.93
                             1897.44  1918.30  1953.01  1975.99  1986.60
                             1999.05  2053.83  2065.08  2072.23  2077.25
                             2084.48  2136.66  2151.12  2153.88  2173.14
                             2184.48  2200.30  2205.70  2212.17  2216.53
                             2218.86  2249.68  2327.60  2410.98  4325.38
                             4367.80  4375.70  4379.94  4431.40  4441.07
                             4441.37  4466.47  4516.28  4518.98  4519.27
                             4523.21  4543.76  4556.98  4558.56  4585.25
                             4623.98  4629.43  4636.80  4645.04  4648.09
                             4663.43  5371.06

 Zero-point correction=                           0.362309 (Hartree/Particle)
 Thermal correction to Energy=                    0.380715
 Thermal correction to Enthalpy=                  0.381659
 Thermal correction to Gibbs Free Energy=         0.314321
 Sum of electronic and zero-point Energies=           -753.162337
 Sum of electronic and thermal Energies=              -753.143932
 Sum of electronic and thermal Enthalpies=            -753.142988
 Sum of electronic and thermal Free Energies=         -753.210325

                     E (Thermal)             CV                S
                      KCal/Mol        Cal/Mol-Kelvin    Cal/Mol-Kelvin
 Total                  238.902             70.330            141.724
 Electronic               0.000              0.000              0.000
 Translational            0.889              2.981             42.391
 Rotational               0.889              2.981             33.632
 Vibrational            237.125             64.368             65.701
 Vibration     1          0.593              1.986              6.560
 Vibration     2          0.594              1.982              5.505
 Vibration     3          0.594              1.981              5.218
 Vibration     4          0.599              1.967              4.074
 Vibration     5          0.600              1.963              3.894
 Vibration     6          0.602              1.957              3.687
 Vibration     7          0.603              1.954              3.584
 Vibration     8          0.609              1.932              3.095
 Vibration     9          0.615              1.913              2.797
 Vibration    10          0.632              1.857              2.256
 Vibration    11          0.642              1.827              2.051
 Vibration    12          0.645              1.817              1.994
 Vibration    13          0.650              1.802              1.912
 Vibration    14          0.673              1.731              1.606
 Vibration    15          0.676              1.723              1.576
 Vibration    16          0.686              1.694              1.479
 Vibration    17          0.695              1.667              1.396
 Vibration    18          0.732              1.561              1.135
 Vibration    19          0.741              1.536              1.084
 Vibration    20          0.774              1.448              0.926
 Vibration    21          0.785              1.420              0.881
 Vibration    22          0.806              1.367              0.805
 Vibration    23          0.821              1.332              0.757
 Vibration    24          0.844              1.277              0.689
 Vibration    25          0.903              1.144              0.548
 Vibration    26          0.926              1.097              0.505
 Vibration    27          0.948              1.052              0.466
 Vibration    28          0.980              0.990              0.417

 Optimization completed.
    -- Stationary point found.
 Normal termination of Gaussian 16 at Fri Dec 11 21:53:51 2020.

 ----------------------------------------------------------------------
 # B3LYP/6-311++G(d,p) empiricaldispersion=gd3bj scf=xqc pop=npa geom=c
 heck
 ----------------------------------------------------------------------

 --------------------------------------
 CID_64214488_JID_8605_Energie_neutraal
 --------------------------------------
 Structure from the checkpoint file:  "JID_8605.chk"
 Charge =  0 Multiplicity = 1

 SCF Done:  E(RB3LYP) =  -753.734799154     A.U. after   15 cycles
 Normal termination of Gaussian 16 at Fri Dec 11 22:04:11 2020.

 ----------------------------------------------------------------------
 # B3LYP/6-311++G(d,p) empiricaldispersion=gd3bj scf=xqc pop=npa geom=c
 heck
 ----------------------------------------------------------------------

 ------------------------------------
 CID_64214488_JID_8605_Energie_kation
 ------------------------------------
 Structure from the checkpoint file:  "JID_8605.chk"
 Charge =  1 Multiplicity = 2

 SCF Done:  E(UB3LYP) =  -753.483373149     A.U. after   21 cycles
 Normal termination of Gaussian 16 at Fri Dec 11 22:25:09 2020.
 Gaussian 16:  ES64L-G16RevA.03 25-Dec-2016

 ----------------------------------------------------------------------
 # B3LYP/6-311++G(d,p) empiricaldispersion=gd3bj scf=xqc pop=npa geom=c
 heck
 ----------------------------------------------------------------------

 -----------------------------------
 CID_64214488_JID_8605_Energie_anion
 -----------------------------------
 Structure from the checkpoint file:  "JID_8605.chk"
 Charge = -1 Multiplicity = 2

                         Standard orientation:
 ---------------------------------------------------------------------
 Center     Atomic      Atomic             Coordinates (Angstroms)
 Number     Number       Type             X           Y           Z
 ---------------------------------------------------------------------
      1          6           0        3.418924    1.565140   -0.734321
      2          6           0        2.430050    0.442057   -0.530790
      3          6           0        2.863172   -0.823521   -0.078473
      4          6           0        1.905457   -1.825672    0.074243
      5          6           0        0.555916   -1.616943   -0.198627
      6          6           0        0.107538   -0.360436   -0.651560
      7          6           0        1.082858    0.650459   -0.804680
      8          7           0       -1.227227   -0.127886   -0.977656
      9          6           0       -2.178774   -1.228552   -0.962082
     10          6           0       -2.781277   -1.564432    0.392782
     11          6           0       -4.096019   -0.953239    0.812409
     12          6           0       -4.024977   -2.414763    0.444371
     13          6           0       -1.784695    1.222065   -0.970426
     14          6           0       -1.983740    1.837292    0.403288
     15          6           0       -0.944416    2.727155    1.038085
     16          6           0       -2.229281    3.322535    0.519216
     17          6           0        4.302975   -1.083658    0.280376
     18          8           0        4.739005   -0.349580    1.433326
     19          1           0        4.045954    1.697266    0.151918
     20          1           0        4.094945    1.349315   -1.572680
     21          1           0        2.909016    2.507811   -0.955130
     22          1           0        2.219689   -2.806087    0.427409
     23          1           0       -0.139144   -2.431252   -0.037566
     24          1           0        0.788134    1.627893   -1.165624
     25          1           0       -2.991771   -0.976431   -1.655503
     26          1           0       -1.684350   -2.111405   -1.381446
     27          1           0       -2.050042   -1.721278    1.182327
     28          1           0       -4.236804   -0.689906    1.857015
     29          1           0       -4.586891   -0.277390    0.115827
     30          1           0       -4.466822   -2.720604   -0.501359
     31          1           0       -4.116428   -3.154460    1.234316
     32          1           0       -1.167645    1.887298   -1.586858
     33          1           0       -2.753904    1.159518   -1.478287
     34          1           0       -2.546414    1.204925    1.083989
     35          1           0       -0.801383    2.656587    2.112576
     36          1           0       -0.031976    2.929259    0.486980
     37          1           0       -2.177844    3.915992   -0.391003
     38          1           0       -2.972425    3.670665    1.230848
     39          1           0        4.452818   -2.163900    0.431899
     40          1           0        4.981520   -0.770843   -0.520470
     41          1           0        4.048048   -0.464060    2.104932
 ---------------------------------------------------------------------

 SCF Done:  E(UB3LYP) =  -753.720520120     A.U. after   33 cycles
 SCF Done:  E(UB3LYP) =  -753.720520121     a.u. after    1 cycles

 The electronic state is 2-A.
 Alpha  occ. eigenvalues --  -19.03779 -14.23659 -10.13271 -10.12491 -10.11417
 Alpha  occ. eigenvalues --  -10.11366 -10.09291 -10.08701 -10.08444 -10.08341
 Alpha  occ. eigenvalues --  -10.08085 -10.08022 -10.07945 -10.07829 -10.07712
 Alpha  occ. eigenvalues --  -10.07620 -10.07363 -10.07360  -0.93632  -0.85982
 Alpha  occ. eigenvalues --   -0.77202  -0.76963  -0.75891  -0.68377  -0.67173
 Alpha  occ. eigenvalues --   -0.64196  -0.61127  -0.59325  -0.55871  -0.51621
 Alpha  occ. eigenvalues --   -0.51257  -0.50855  -0.49903  -0.48256  -0.46984
 Alpha  occ. eigenvalues --   -0.43957  -0.42293  -0.41272  -0.39799  -0.39101
 Alpha  occ. eigenvalues --   -0.38401  -0.37319  -0.36615  -0.35552  -0.35184
 Alpha  occ. eigenvalues --   -0.32935  -0.32833  -0.32478  -0.31357  -0.31018
 Alpha  occ. eigenvalues --   -0.29910  -0.29047  -0.28485  -0.27593  -0.27527
 Alpha  occ. eigenvalues --   -0.26784  -0.26527  -0.25127  -0.24220  -0.21555
 Alpha  occ. eigenvalues --   -0.21068  -0.19932  -0.19685  -0.19520  -0.18774
 Alpha  occ. eigenvalues --   -0.15609  -0.10408   0.04144
 Alpha virt. eigenvalues --    0.05933   0.06092   0.06637   0.07260   0.07503
 Alpha virt. eigenvalues --    0.07630   0.08292   0.08454   0.08652   0.09079
 Alpha virt. eigenvalues --    0.09804   0.09908   0.10465   0.11063   0.11175

  Beta  occ. eigenvalues --  -19.03768 -14.23654 -10.13262 -10.12489 -10.11401
  Beta  occ. eigenvalues --  -10.11352 -10.09290 -10.08693 -10.08440 -10.08330
  Beta  occ. eigenvalues --  -10.08059 -10.07999 -10.07922 -10.07816 -10.07712
  Beta  occ. eigenvalues --  -10.07607 -10.07357 -10.07355  -0.93609  -0.85970
  Beta  occ. eigenvalues --   -0.77182  -0.76949  -0.75877  -0.68362  -0.67158
  Beta  occ. eigenvalues --   -0.64171  -0.61104  -0.59302  -0.55847  -0.51587
  Beta  occ. eigenvalues --   -0.51185  -0.50802  -0.49873  -0.48219  -0.46955
  Beta  occ. eigenvalues --   -0.43934  -0.42270  -0.41247  -0.39763  -0.39059
  Beta  occ. eigenvalues --   -0.38370  -0.37283  -0.36584  -0.35526  -0.35161
  Beta  occ. eigenvalues --   -0.32918  -0.32817  -0.32459  -0.31337  -0.30999
  Beta  occ. eigenvalues --   -0.29887  -0.29024  -0.28471  -0.27561  -0.27502
  Beta  occ. eigenvalues --   -0.26759  -0.26501  -0.25111  -0.24206  -0.21527
  Beta  occ. eigenvalues --   -0.21039  -0.19913  -0.19669  -0.19496  -0.18757
  Beta  occ. eigenvalues --   -0.15601  -0.10390
  Beta virt. eigenvalues --    0.05975   0.06546   0.06781   0.07104   0.07618
  Beta virt. eigenvalues --    0.07827   0.07962   0.08356   0.08744   0.09042
  Beta virt. eigenvalues --    0.09309   0.10048   0.10142   0.10719   0.11266

 Mulliken charges and spin densities:
               1          2
     1  C    0.161520  -0.484292
     2  C   -0.641234   0.979008
     3  C   -0.374531   0.715132
     4  C    0.543744  -1.227950
     5  C    0.011802  -0.120120
     6  C   -0.016603  -0.123362
     7  C   -0.294411   0.228443
     8  N    0.307043   0.138396
     9  C    1.271557  -1.904276
    10  C   -2.007718   2.278562
    11  C    0.437109  -0.896800
    12  C    0.938394  -1.410420
    13  C   -0.154904  -0.792246
    14  C   -0.821957   1.252476
    15  C   -0.050558  -0.318152
    16  C    0.720861  -1.116494
    17  C    0.466574  -1.242768
    18  O   -0.228124   0.015617
    19  H    0.175020   0.000136
    20  H    0.071096   0.081890
    21  H   -0.280245   0.435498
    22  H   -0.359912   0.515186
    23  H    0.031251   0.098648
    24  H    0.200654  -0.153534
    25  H   -0.215084   0.401328
    26  H    0.134603   0.071317
    27  H   -0.183130   0.406799
    28  H   -0.259536   0.416233
    29  H   -0.057445   0.211301
    30  H   -0.167620   0.303220
    31  H   -0.321124   0.484881
    32  H   -0.278437   0.462304
    33  H   -0.079255   0.225116
    34  H    0.272897   0.029717
    35  H   -0.162442   0.326496
    36  H    0.315052  -0.227066
    37  H   -0.208638   0.352050
    38  H   -0.174241   0.326295
    39  H    0.048960   0.105948
    40  H    0.093257   0.060035
    41  H    0.135753   0.095445
 Sum of Mulliken charges =  -1.00000   1.00000

 Dipole moment (field-independent basis, Debye):
    X=              4.2006    Y=             -0.0407    Z=             -1.9979  Tot=              4.6517
 Quadrupole moment (field-independent basis, Debye-Ang):
   XX=           -204.7568   YY=           -169.4079   ZZ=           -151.0448
   XY=             -4.2197   XZ=              1.3170   YZ=              3.4215

 Summary of Natural Population Analysis:

                                       Natural Population
                Natural  -----------------------------------------------
    Atom  No    Charge         Core      Valence    Rydberg      Total
 -----------------------------------------------------------------------
      C    1   -0.29736      0.99963     2.29293    0.00479     3.29736
      C    2    0.00280      0.99948     1.98900    0.00872     2.99720
      C    3   -0.06989      0.99945     2.05996    0.01048     3.06989
      C    4   -0.08442      0.99953     2.07393    0.01096     3.08442
      C    5   -0.13607      0.99953     2.12752    0.00902     3.13607
      C    6    0.10836      0.99948     1.88105    0.01111     2.89164
      C    7   -0.12252      0.99949     2.11558    0.00746     3.12252
      N    8   -0.24915      0.99965     2.73675    0.01275     3.74915
      C    9   -0.08062      0.99958     2.06924    0.01180     3.08062
      C   10   -0.12828      0.99958     2.11808    0.01062     3.12828
      C   11   -0.19984      0.99962     2.19066    0.00956     3.19984
      C   12   -0.19712      0.99962     2.18839    0.00910     3.19712
      C   13   -0.07938      0.99958     2.06757    0.01223     3.07938
      C   14   -0.12666      0.99957     2.11696    0.01013     3.12666
      C   15   -0.19427      0.99962     2.18588    0.00877     3.19427
      C   16   -0.19888      0.99962     2.19075    0.00851     3.19888
      C   17   -0.01669      0.99956     2.00523    0.01191     3.01669
      O   18   -0.37081      0.99990     3.36417    0.00673     4.37081
      H   19    0.11295      0.00000     0.38553    0.00152     0.38705
      H   20    0.10091      0.00000     0.39778    0.00131     0.39909
      H   21    0.10138      0.00000     0.39763    0.00099     0.39862
      H   22    0.09862      0.00000     0.40020    0.00118     0.40138
      H   23    0.10356      0.00000     0.39479    0.00165     0.39644
      H   24    0.09933      0.00000     0.39869    0.00198     0.40067
      H   25    0.09731      0.00000     0.40119    0.00149     0.40269
      H   26    0.10007      0.00000     0.39835    0.00158     0.39993
      H   27    0.10673      0.00000     0.39148    0.00178     0.39327
      H   28    0.10520      0.00000     0.39342    0.00138     0.39480
      H   29    0.10154      0.00000     0.39719    0.00127     0.39846
      H   30    0.10074      0.00000     0.39815    0.00111     0.39926
      H   31    0.10535      0.00000     0.39333    0.00132     0.39465
      H   32    0.09535      0.00000     0.40292    0.00173     0.40465
      H   33    0.10013      0.00000     0.39841    0.00146     0.39987
      H   34    0.10809      0.00000     0.38941    0.00250     0.39191
      H   35    0.10318      0.00000     0.39596    0.00086     0.39682
      H   36    0.10200      0.00000     0.39684    0.00116     0.39800
      H   37    0.10069      0.00000     0.39817    0.00113     0.39931
      H   38    0.10355      0.00000     0.39545    0.00100     0.39645
      H   39    0.07940      0.00000     0.41906    0.00154     0.42060
      H   40    0.08703      0.00000     0.41155    0.00143     0.41297
      H   41    0.22770      0.00000     0.26903    0.00327     0.27230
 =======================================================================
   * Total *    0.00000     17.99250    48.79818    0.20932    67.00000

 Normal termination of Gaussian 16 at Fri Dec 11 22:57:54 2020.
