 Gaussian 16, Revision A.03,

 -----------------------------------------------------------
 # opt freq B3LYP/6-31G(d) empiricaldispersion=gd3bj scf=xqc
 -----------------------------------------------------------

 ------------------------------
 CID_79332352_JID_1349_neutraal
 ------------------------------
 Symbolic Z-matrix:
 Charge =  0 Multiplicity = 1

 SCF Done:  E(RB3LYP) =  -448.485093644     A.U. after   12 cycles
 SCF Done:  E(RB3LYP) =  -448.487964103     A.U. after   10 cycles
 SCF Done:  E(RB3LYP) =  -448.488212052     A.U. after   10 cycles
 SCF Done:  E(RB3LYP) =  -448.488451935     A.U. after   10 cycles
 SCF Done:  E(RB3LYP) =  -448.488507275     A.U. after   10 cycles
 SCF Done:  E(RB3LYP) =  -448.488552695     A.U. after    9 cycles
 SCF Done:  E(RB3LYP) =  -448.488566406     A.U. after    8 cycles
 SCF Done:  E(RB3LYP) =  -448.488568332     A.U. after    7 cycles
 SCF Done:  E(RB3LYP) =  -448.488568769     A.U. after    7 cycles
 SCF Done:  E(RB3LYP) =  -448.488568828     A.U. after    6 cycles
 Optimization completed.
    -- Stationary point found.
 Normal termination of Gaussian 16 at Tue Dec  8 19:48:18 2020.

 --------------------------------------------------------------------
 #N Geom=AllCheck Guess=TCheck SCRF=Check GenChk RB3LYP/6-31G(d) Freq
 --------------------------------------------------------------------

 Structure from the checkpoint file:  "JID_1349.chk"
 ------------------------------
 CID_79332352_JID_1349_neutraal
 ------------------------------
 Charge =  0 Multiplicity = 1

 SCF Done:  E(RB3LYP) =  -448.488568828     A.U. after    1 cycles

  Exact polarizability: 126.936   1.712 109.155   1.418  -0.901  96.160
 Approx polarizability: 152.599   1.765 150.869   1.477  -1.600 147.828

                      1                      2                      3
                      A                      A                      A
 Frequencies --     31.9214                84.1396                98.1368
 Red. masses --      3.1260                 2.6395                 2.2146
 Frc consts  --      0.0019                 0.0110                 0.0126
 IR Inten    --      0.0648                 0.0495                 0.0907

                      4                      5                      6
                      A                      A                      A
 Frequencies --    124.4540               149.4629               183.0149
 Red. masses --      2.6372                 2.9240                 1.7725
 Frc consts  --      0.0241                 0.0385                 0.0350
 IR Inten    --      0.2586                 0.0597                 2.4940

                      7                      8                      9
                      A                      A                      A
 Frequencies --    210.5237               237.1955               245.6459
 Red. masses --      1.8515                 1.1570                 1.5102
 Frc consts  --      0.0483                 0.0384                 0.0537
 IR Inten    --      0.4759                 0.0134                 1.0869

                     10                     11                     12
                      A                      A                      A
 Frequencies --    253.2626               269.2215               302.2593
 Red. masses --      1.3208                 1.3474                 1.7944
 Frc consts  --      0.0499                 0.0575                 0.0966
 IR Inten    --      7.2378                 6.0085                 9.2277

                     13                     14                     15
                      A                      A                      A
 Frequencies --    342.2953               356.5622               396.5832
 Red. masses --      2.2710                 2.1008                 2.3639
 Frc consts  --      0.1568                 0.1574                 0.2191
 IR Inten    --      0.9348                 7.8191                 1.0154

                     16                     17                     18
                      A                      A                      A
 Frequencies --    411.8350               437.9285               447.2557
 Red. masses --      2.1601                 2.3616                 2.0520
 Frc consts  --      0.2159                 0.2668                 0.2418
 IR Inten    --      2.8905                 3.4817                 2.3130

                     19                     20                     21
                      A                      A                      A
 Frequencies --    496.6242               586.5654               712.8299
 Red. masses --      1.9498                 2.9588                 2.7068
 Frc consts  --      0.2833                 0.5998                 0.8104
 IR Inten    --      1.5179                 0.8997                 5.4248

                     22                     23                     24
                      A                      A                      A
 Frequencies --    767.8531               784.9157               822.9616
 Red. masses --      2.2990                 1.5620                 1.4470
 Frc consts  --      0.7986                 0.5670                 0.5774
 IR Inten    --      3.7136                 4.7686                 1.6231

                     25                     26                     27
                      A                      A                      A
 Frequencies --    862.4278               893.8063               899.0110
 Red. masses --      1.4607                 1.7000                 1.9516
 Frc consts  --      0.6401                 0.8002                 0.9293
 IR Inten    --    130.9767                64.9626                 3.6899

                     28                     29                     30
                      A                      A                      A
 Frequencies --    918.1358               942.3932               950.9063
 Red. masses --      1.6952                 1.2159                 1.4849
 Frc consts  --      0.8420                 0.6362                 0.7911
 IR Inten    --      3.0539                 1.9320                 4.0885

                     31                     32                     33
                      A                      A                      A
 Frequencies --    957.9102               979.3348               984.1977
 Red. masses --      1.9975                 1.4014                 1.7782
 Frc consts  --      1.0799                 0.7919                 1.0148
 IR Inten    --      2.6333                 0.2195                 2.3314

                     34                     35                     36
                      A                      A                      A
 Frequencies --   1008.9426              1046.6064              1059.1825
 Red. masses --      1.8889                 1.7261                 1.2800
 Frc consts  --      1.1329                 1.1140                 0.8461
 IR Inten    --      3.9503                 2.6820                 5.2364

                     37                     38                     39
                      A                      A                      A
 Frequencies --   1072.0255              1112.5716              1130.4152
 Red. masses --      1.8173                 1.8194                 1.7383
 Frc consts  --      1.2305                 1.3269                 1.3087
 IR Inten    --      0.8381                 3.3137                 0.3403

                     40                     41                     42
                      A                      A                      A
 Frequencies --   1150.6312              1155.4071              1204.5022
 Red. masses --      2.0179                 1.7161                 1.7231
 Frc consts  --      1.5741                 1.3497                 1.4729
 IR Inten    --      3.4152                 0.3564                 8.2476

                     43                     44                     45
                      A                      A                      A
 Frequencies --   1209.0973              1226.5202              1263.2214
 Red. masses --      1.8124                 1.5383                 1.5804
 Frc consts  --      1.5611                 1.3634                 1.4858
 IR Inten    --      0.1703                 4.9111                 1.7390

                     46                     47                     48
                      A                      A                      A
 Frequencies --   1286.3115              1308.0588              1316.9004
 Red. masses --      1.6596                 1.3418                 1.5730
 Frc consts  --      1.6179                 1.3527                 1.6073
 IR Inten    --     11.0908                 1.7144                 7.7059

                     49                     50                     51
                      A                      A                      A
 Frequencies --   1331.2755              1361.8527              1376.1852
 Red. masses --      1.3011                 1.2463                 1.4971
 Frc consts  --      1.3586                 1.3619                 1.6705
 IR Inten    --      9.1554                 2.7306                 1.5810

                     52                     53                     54
                      A                      A                      A
 Frequencies --   1380.4437              1408.3275              1417.9671
 Red. masses --      1.4638                 1.4328                 1.4559
 Frc consts  --      1.6435                 1.6743                 1.7247
 IR Inten    --      3.8622                 2.7566                 0.5769

                     55                     56                     57
                      A                      A                      A
 Frequencies --   1429.4298              1437.9963              1447.1762
 Red. masses --      1.2898                 1.2608                 1.3673
 Frc consts  --      1.5527                 1.5361                 1.6872
 IR Inten    --      7.3620                 2.0040                 6.0407

                     58                     59                     60
                      A                      A                      A
 Frequencies --   1452.1779              1506.9953              1511.2631
 Red. masses --      1.3739                 1.0826                 1.3367
 Frc consts  --      1.7070                 1.4486                 1.7987
 IR Inten    --      1.2222                 1.6368                 7.1078

                     61                     62                     63
                      A                      A                      A
 Frequencies --   1515.4350              1520.9168              1524.3026
 Red. masses --      1.0917                 1.1381                 1.0689
 Frc consts  --      1.4772                 1.5511                 1.4633
 IR Inten    --      1.0939                 1.5555                 5.8168

                     64                     65                     66
                      A                      A                      A
 Frequencies --   1525.6797              1527.9403              1534.9186
 Red. masses --      1.0682                 1.0461                 1.0588
 Frc consts  --      1.4650                 1.4389                 1.4698
 IR Inten    --      3.3214                10.1690                 2.6022

                     67                     68                     69
                      A                      A                      A
 Frequencies --   1538.1733              1544.1318              1692.8905
 Red. masses --      1.0772                 1.0499                 1.1026
 Frc consts  --      1.5016                 1.4749                 1.8618
 IR Inten    --      3.5104                 4.8226                 9.4129

                     70                     71                     72
                      A                      A                      A
 Frequencies --   3010.1178              3022.5390              3028.5138
 Red. masses --      1.0742                 1.0745                 1.0636
 Frc consts  --      5.7347                 5.7834                 5.7476
 IR Inten    --      3.2956                39.0278                26.3048

                     73                     74                     75
                      A                      A                      A
 Frequencies --   3031.8856              3037.2303              3044.9721
 Red. masses --      1.0652                 1.0360                 1.0384
 Frc consts  --      5.7690                 5.6308                 5.6724
 IR Inten    --     44.0230                33.7649                67.1933

                     76                     77                     78
                      A                      A                      A
 Frequencies --   3045.4436              3063.0918              3072.5012
 Red. masses --      1.0357                 1.0974                 1.0963
 Frc consts  --      5.6598                 6.0663                 6.0975
 IR Inten    --     10.8930                13.7027                23.2115

                     79                     80                     81
                      A                      A                      A
 Frequencies --   3081.0674              3100.5533              3106.8928
 Red. masses --      1.0950                 1.1015                 1.1010
 Frc consts  --      6.1246                 6.2389                 6.2618
 IR Inten    --     43.4000                 7.0959                62.3606

                     82                     83                     84
                      A                      A                      A
 Frequencies --   3111.2822              3111.9343              3116.6453
 Red. masses --      1.1023                 1.1022                 1.1029
 Frc consts  --      6.2867                 6.2890                 6.3117
 IR Inten    --     43.8260                47.6935                39.5422

                     85                     86                     87
                      A                      A                      A
 Frequencies --   3123.2461              3141.2611              3152.1109
 Red. masses --      1.0998                 1.0558                 1.0878
 Frc consts  --      6.3209                 6.1383                 6.3682
 IR Inten    --     41.6643                15.5372                17.9827

                     88                     89                     90
                      A                      A                      A
 Frequencies --   3231.3515              3465.4341              3558.4035
 Red. masses --      1.1161                 1.0504                 1.0901
 Frc consts  --      6.8665                 7.4324                 8.1326
 IR Inten    --     11.6591                 6.4656                 0.7505

 - Thermochemistry -
 -------------------
 Temperature   298.150 Kelvin.  Pressure   1.00000 Atm.
 Atom     1 has atomic number  6 and mass  12.00000

 Molecular mass:   155.16740 amu.
 Principal axes and moments of inertia in atomic units:
                           1         2         3
     Eigenvalues --  1104.623293000.825163600.63551
           X            0.99996   0.00920   0.00220
           Y           -0.00917   0.99990  -0.01084
           Z           -0.00230   0.01081   0.99994
 This molecule is an asymmetric top.
 Rotational symmetry number  1.
 Warning -- assumption of classical behavior for rotation
           may cause significant error
 Rotational temperatures (Kelvin)      0.07841     0.02886     0.02406
 Rotational constants (GHZ):           1.63381     0.60141     0.50123
 Zero-point vibrational energy     785551.3 (Joules/Mol)
                                  187.75127 (Kcal/Mol)
 Warning -- explicit consideration of  20 degrees of freedom as
           vibrations may cause significant error
 Vibrational temperatures:     45.93   121.06   141.20   179.06   215.04
          (Kelvin)            263.32   302.90   341.27   353.43   364.39
                              387.35   434.88   492.49   513.01   570.59
                              592.54   630.08   643.50   714.53   843.94
                             1025.60  1104.77  1129.32  1184.06  1240.84
                             1285.99  1293.48  1320.99  1355.89  1368.14
                             1378.22  1409.04  1416.04  1451.64  1505.83
                             1523.93  1542.41  1600.74  1626.42  1655.50
                             1662.37  1733.01  1739.62  1764.69  1817.49
                             1850.72  1882.00  1894.73  1915.41  1959.40
                             1980.02  1986.15  2026.27  2040.14  2056.63
                             2068.96  2082.16  2089.36  2168.23  2174.37
                             2180.37  2188.26  2193.13  2195.11  2198.37
                             2208.41  2213.09  2221.66  2435.69  4330.89
                             4348.76  4357.36  4362.21  4369.90  4381.04
                             4381.71  4407.11  4420.64  4432.97  4461.00
                             4470.13  4476.44  4477.38  4484.16  4493.65
                             4519.57  4535.18  4649.19  4985.99  5119.75

 Zero-point correction=                           0.299201 (Hartree/Particle)
 Thermal correction to Energy=                    0.312711
 Thermal correction to Enthalpy=                  0.313655
 Thermal correction to Gibbs Free Energy=         0.259808
 Sum of electronic and zero-point Energies=           -448.189368
 Sum of electronic and thermal Energies=              -448.175858
 Sum of electronic and thermal Enthalpies=            -448.174914
 Sum of electronic and thermal Free Energies=         -448.228760

                     E (Thermal)             CV                S
                      KCal/Mol        Cal/Mol-Kelvin    Cal/Mol-Kelvin
 Total                  196.229             51.462            113.330
 Electronic               0.000              0.000              0.000
 Translational            0.889              2.981             41.028
 Rotational               0.889              2.981             30.857
 Vibrational            194.452             45.500             41.446
 Vibration     1          0.594              1.983              5.706
 Vibration     2          0.601              1.960              3.792
 Vibration     3          0.604              1.950              3.491
 Vibration     4          0.610              1.929              3.030
 Vibration     5          0.618              1.903              2.679
 Vibration     6          0.631              1.863              2.297
 Vibration     7          0.643              1.825              2.039
 Vibration     8          0.656              1.784              1.824
 Vibration     9          0.660              1.770              1.762
 Vibration    10          0.664              1.757              1.708
 Vibration    11          0.674              1.730              1.601
 Vibration    12          0.694              1.669              1.404
 Vibration    13          0.721              1.591              1.201
 Vibration    14          0.732              1.562              1.137
 Vibration    15          0.763              1.477              0.975
 Vibration    16          0.776              1.445              0.920
 Vibration    17          0.798              1.387              0.833
 Vibration    18          0.806              1.367              0.804
 Vibration    19          0.852              1.258              0.667
 Vibration    20          0.944              1.060              0.473

 Optimization completed.
    -- Stationary point found.
 Normal termination of Gaussian 16 at Tue Dec  8 19:56:37 2020.

 ----------------------------------------------------------------------
 # B3LYP/6-311++G(d,p) empiricaldispersion=gd3bj scf=xqc pop=npa geom=c
 heck
 ----------------------------------------------------------------------

 --------------------------------------
 CID_79332352_JID_1349_Energie_neutraal
 --------------------------------------
 Structure from the checkpoint file:  "JID_1349.chk"
 Charge =  0 Multiplicity = 1

 SCF Done:  E(RB3LYP) =  -448.620252918     A.U. after   15 cycles
 Normal termination of Gaussian 16 at Tue Dec  8 20:00:55 2020.

 ----------------------------------------------------------------------
 # B3LYP/6-311++G(d,p) empiricaldispersion=gd3bj scf=xqc pop=npa geom=c
 heck
 ----------------------------------------------------------------------

 ------------------------------------
 CID_79332352_JID_1349_Energie_kation
 ------------------------------------
 Structure from the checkpoint file:  "JID_1349.chk"
 Charge =  1 Multiplicity = 2

 SCF Done:  E(UB3LYP) =  -448.304094427     A.U. after   22 cycles
 Normal termination of Gaussian 16 at Tue Dec  8 20:09:46 2020.
 Gaussian 16:  ES64L-G16RevA.03 25-Dec-2016

 ----------------------------------------------------------------------
 # B3LYP/6-311++G(d,p) empiricaldispersion=gd3bj scf=xqc pop=npa geom=c
 heck
 ----------------------------------------------------------------------

 -----------------------------------
 CID_79332352_JID_1349_Energie_anion
 -----------------------------------
 Structure from the checkpoint file:  "JID_1349.chk"
 Charge = -1 Multiplicity = 2

                         Standard orientation:
 ---------------------------------------------------------------------
 Center     Atomic      Atomic             Coordinates (Angstroms)
 Number     Number       Type             X           Y           Z
 ---------------------------------------------------------------------
      1          6           0        3.643505    1.481831   -0.208629
      2          6           0        2.153131    1.174897   -0.024745
      3          6           0        1.804237   -0.221781   -0.498642
      4          6           0        2.077758   -1.422591    0.379437
      5          6           0        0.651765   -1.042524    0.041928
      6          6           0       -0.236267   -0.502251    1.161939
      7          6           0       -1.172086    0.668544    0.807737
      8          6           0       -2.242428    0.442752   -0.275701
      9          6           0       -3.164398   -0.739234    0.046278
     10          6           0       -3.061983    1.725460   -0.469520
     11          7           0        0.054547   -1.921136   -0.951068
     12          1           0        4.257874    0.773700    0.358942
     13          1           0        3.889236    2.494852    0.129548
     14          1           0        3.933953    1.399679   -1.262785
     15          1           0        1.888115    1.292978    1.033042
     16          1           0        1.556436    1.914887   -0.575956
     17          1           0        1.988869   -0.389716   -1.558272
     18          1           0        2.475345   -2.319580   -0.084150
     19          1           0        2.424801   -1.234223    1.393100
     20          1           0       -0.820512   -1.341463    1.565580
     21          1           0        0.398489   -0.168083    1.991543
     22          1           0       -1.690476    0.972737    1.729675
     23          1           0       -0.559448    1.527801    0.508754
     24          1           0       -1.734546    0.239414   -1.229668
     25          1           0       -3.659074   -0.589684    1.014613
     26          1           0       -3.946860   -0.846614   -0.713875
     27          1           0       -2.615102   -1.684523    0.095825
     28          1           0       -2.417488    2.575095   -0.723518
     29          1           0       -3.800329    1.609282   -1.271303
     30          1           0       -3.604556    1.981407    0.449701
     31          1           0       -0.389105   -2.713954   -0.488041
     32          1           0       -0.676852   -1.436659   -1.465774
 ---------------------------------------------------------------------

 SCF Done:  E(UB3LYP) =  -448.603852432     A.U. after   26 cycles

 The electronic state is 2-A.
 Alpha  occ. eigenvalues --  -14.19129 -10.10287 -10.07100 -10.07032 -10.06657
 Alpha  occ. eigenvalues --  -10.06379 -10.06220 -10.05943 -10.05897 -10.05393
 Alpha  occ. eigenvalues --  -10.05232  -0.80786  -0.72290  -0.70787  -0.65623
 Alpha  occ. eigenvalues --   -0.63457  -0.58114  -0.54264  -0.53185  -0.47983
 Alpha  occ. eigenvalues --   -0.46094  -0.43278  -0.39820  -0.37924  -0.36093
 Alpha  occ. eigenvalues --   -0.35816  -0.34211  -0.33781  -0.31735  -0.30913
 Alpha  occ. eigenvalues --   -0.29017  -0.28570  -0.28321  -0.27266  -0.26493
 Alpha  occ. eigenvalues --   -0.25544  -0.25061  -0.23485  -0.22881  -0.22201
 Alpha  occ. eigenvalues --   -0.21891  -0.18725  -0.16705  -0.14015   0.04595
 Alpha virt. eigenvalues --    0.06568   0.07414   0.07780   0.08857   0.09002
 Alpha virt. eigenvalues --    0.09304   0.09916   0.10633   0.10987   0.11359
 Alpha virt. eigenvalues --    0.11838   0.12227   0.12536   0.13710   0.13810

  Beta  occ. eigenvalues --  -14.19106 -10.10286 -10.07088 -10.07025 -10.06638
  Beta  occ. eigenvalues --  -10.06362 -10.06208 -10.05917 -10.05882 -10.05363
  Beta  occ. eigenvalues --  -10.05193  -0.80762  -0.72256  -0.70755  -0.65586
  Beta  occ. eigenvalues --   -0.63421  -0.58042  -0.54209  -0.53129  -0.47935
  Beta  occ. eigenvalues --   -0.46031  -0.43231  -0.39796  -0.37885  -0.36051
  Beta  occ. eigenvalues --   -0.35785  -0.34176  -0.33748  -0.31689  -0.30874
  Beta  occ. eigenvalues --   -0.28983  -0.28533  -0.28284  -0.27224  -0.26457
  Beta  occ. eigenvalues --   -0.25513  -0.25033  -0.23448  -0.22833  -0.22159
  Beta  occ. eigenvalues --   -0.21859  -0.18704  -0.16684  -0.13990
  Beta virt. eigenvalues --    0.06729   0.07414   0.08072   0.08338   0.09324
  Beta virt. eigenvalues --    0.09447   0.09762   0.10386   0.10977   0.11357
  Beta virt. eigenvalues --    0.11836   0.12249   0.12576   0.12764   0.14044

 Mulliken charges and spin densities:
               1          2
     1  C    0.851084  -1.579963
     2  C   -0.526355   0.251763
     3  C    0.002979   0.418073
     4  C    0.380827  -1.024863
     5  C   -0.734467   0.550667
     6  C    0.991847  -1.596173
     7  C    0.676055  -0.773109
     8  C   -2.024528   2.367363
     9  C    1.763737  -2.422648
    10  C    0.081293  -0.686817
    11  N   -0.335290   0.093396
    12  H    0.004167   0.130214
    13  H   -0.441939   0.582958
    14  H   -0.025561   0.157771
    15  H   -0.003006   0.155379
    16  H   -0.115897   0.254751
    17  H    0.097344   0.123663
    18  H    0.119218   0.028475
    19  H   -0.134884   0.272828
    20  H    0.174877   0.008845
    21  H   -0.301529   0.460190
    22  H   -0.234083   0.388078
    23  H    0.143025  -0.006266
    24  H   -0.104846   0.230647
    25  H   -0.222091   0.367523
    26  H   -0.353303   0.495140
    27  H   -0.156239   0.279322
    28  H   -0.246746   0.379794
    29  H   -0.295792   0.435769
    30  H   -0.062582   0.193342
    31  H   -0.042385   0.288436
    32  H    0.075071   0.175457
 Sum of Mulliken charges =  -1.00000   1.00000

 Dipole moment (field-independent basis, Debye):
    X=              2.2097    Y=             -1.7413    Z=              0.1897  Tot=              2.8198
 Quadrupole moment (field-independent basis, Debye-Ang):
   XX=           -145.4491   YY=           -120.1648   ZZ=           -107.8369
   XY=             -7.7692   XZ=             -3.9201   YZ=             -1.7725

 Summary of Natural Population Analysis:

                                       Natural Population
                Natural  -----------------------------------------------
    Atom  No    Charge         Core      Valence    Rydberg      Total
 -----------------------------------------------------------------------
      C    1   -0.28212      0.99967     2.27753    0.00492     3.28212
      C    2   -0.19288      0.99962     2.18461    0.00864     3.19288
      C    3   -0.10720      0.99954     2.09794    0.00973     3.10720
      C    4   -0.19500      0.99957     2.18699    0.00844     3.19500
      C    5    0.04883      0.99951     1.93766    0.01400     2.95117
      C    6   -0.19357      0.99958     2.18428    0.00971     3.19357
      C    7   -0.18633      0.99960     2.17769    0.00904     3.18633
      C    8   -0.11544      0.99961     2.10587    0.00995     3.11544
      C    9   -0.28726      0.99965     2.28114    0.00647     3.28726
      C   10   -0.27936      0.99965     2.27470    0.00501     3.27936
      N   11   -0.42074      0.99975     2.91120    0.00980     3.92074
      H   12    0.09584      0.00000     0.40318    0.00098     0.40416
      H   13    0.09893      0.00000     0.39992    0.00115     0.40107
      H   14    0.09397      0.00000     0.40505    0.00097     0.40603
      H   15    0.09724      0.00000     0.40106    0.00170     0.40276
      H   16    0.09793      0.00000     0.40056    0.00151     0.40207
      H   17    0.10529      0.00000     0.39329    0.00142     0.39471
      H   18    0.10454      0.00000     0.39441    0.00104     0.39546
      H   19    0.09934      0.00000     0.39953    0.00113     0.40066
      H   20    0.09863      0.00000     0.40002    0.00135     0.40137
      H   21    0.10136      0.00000     0.39710    0.00154     0.39864
      H   22    0.09460      0.00000     0.40419    0.00121     0.40540
      H   23    0.09855      0.00000     0.39933    0.00211     0.40145
      H   24    0.08646      0.00000     0.41127    0.00227     0.41354
      H   25    0.09668      0.00000     0.40213    0.00119     0.40332
      H   26    0.10023      0.00000     0.39847    0.00130     0.39977
      H   27    0.09882      0.00000     0.39965    0.00153     0.40118
      H   28    0.09939      0.00000     0.39934    0.00127     0.40061
      H   29    0.09870      0.00000     0.40018    0.00111     0.40130
      H   30    0.09530      0.00000     0.40349    0.00121     0.40470
      H   31    0.17364      0.00000     0.32440    0.00196     0.32636
      H   32    0.17563      0.00000     0.32179    0.00258     0.32437
 =======================================================================
   * Total *   -0.00000     10.99575    32.87798    0.12627    44.00000

 Normal termination of Gaussian 16 at Tue Dec  8 20:20:12 2020.
