 Gaussian 16, Revision A.03,

 -----------------------------------------------------------
 # opt freq B3LYP/6-31G(d) empiricaldispersion=gd3bj scf=xqc
 -----------------------------------------------------------

 -------------------------------
 CID_130450336_JID_3426_neutraal
 -------------------------------
 Symbolic Z-matrix:
 Charge =  0 Multiplicity = 1

 SCF Done:  E(RB3LYP) =  -576.597799185     A.U. after   14 cycles
 SCF Done:  E(RB3LYP) =  -576.603325957     A.U. after   12 cycles
 SCF Done:  E(RB3LYP) =  -576.605019327     A.U. after   11 cycles
 SCF Done:  E(RB3LYP) =  -576.606286806     A.U. after   12 cycles
 SCF Done:  E(RB3LYP) =  -576.606847130     A.U. after   11 cycles
 SCF Done:  E(RB3LYP) =  -576.607172526     A.U. after   12 cycles
 SCF Done:  E(RB3LYP) =  -576.607391236     A.U. after   11 cycles
 SCF Done:  E(RB3LYP) =  -576.607580459     A.U. after   11 cycles
 SCF Done:  E(RB3LYP) =  -576.607678688     A.U. after   11 cycles
 SCF Done:  E(RB3LYP) =  -576.607813374     A.U. after   10 cycles
 SCF Done:  E(RB3LYP) =  -576.609496131     A.U. after    8 cycles
 SCF Done:  E(RB3LYP) =  -576.609498640     A.U. after    9 cycles
 SCF Done:  E(RB3LYP) =  -576.609498978     A.U. after    8 cycles
 SCF Done:  E(RB3LYP) =  -576.609499145     A.U. after    7 cycles
 SCF Done:  E(RB3LYP) =  -576.609499180     A.U. after    7 cycles
 Optimization completed.
    -- Stationary point found.
 Normal termination of Gaussian 16 at Wed Dec  9 23:26:55 2020.

 --------------------------------------------------------------------
 #N Geom=AllCheck Guess=TCheck SCRF=Check GenChk RB3LYP/6-31G(d) Freq
 --------------------------------------------------------------------

 Structure from the checkpoint file:  "JID_3426.chk"
 -------------------------------
 CID_130450336_JID_3426_neutraal
 -------------------------------
 Charge =  0 Multiplicity = 1

 SCF Done:  E(RB3LYP) =  -576.609499180     A.U. after    1 cycles

  Exact polarizability: 175.704  -4.288 116.171  -5.919   8.832  95.725
 Approx polarizability: 233.145 -13.088 168.862 -11.174  17.117 140.796

                      1                      2                      3
                      A                      A                      A
 Frequencies --     28.9272                53.4710                61.4232
 Red. masses --      3.5914                 3.5718                 2.3714
 Frc consts  --      0.0018                 0.0060                 0.0053
 IR Inten    --      2.6940                 0.9649                 0.2562

                      4                      5                      6
                      A                      A                      A
 Frequencies --     66.1965                95.5476               143.4139
 Red. masses --      2.6914                 3.1886                 3.1404
 Frc consts  --      0.0069                 0.0172                 0.0381
 IR Inten    --      0.2731                 0.9064                 0.8202

                      7                      8                      9
                      A                      A                      A
 Frequencies --    182.1108               207.6704               215.3344
 Red. masses --      1.9910                 1.2379                 1.5654
 Frc consts  --      0.0389                 0.0315                 0.0428
 IR Inten    --      0.3734                13.8841                27.0461

                     10                     11                     12
                      A                      A                      A
 Frequencies --    225.3970               228.9443               250.3793
 Red. masses --      1.3099                 1.2691                 1.6370
 Frc consts  --      0.0392                 0.0392                 0.0605
 IR Inten    --      0.6396                66.9924                27.5906

                     13                     14                     15
                      A                      A                      A
 Frequencies --    282.9123               299.0837               317.8283
 Red. masses --      2.6983                 2.4705                 2.7529
 Frc consts  --      0.1272                 0.1302                 0.1638
 IR Inten    --      7.8278                 5.1819                13.3792

                     16                     17                     18
                      A                      A                      A
 Frequencies --    376.8358               387.0252               416.9104
 Red. masses --      2.5464                 3.6008                 2.4840
 Frc consts  --      0.2131                 0.3178                 0.2544
 IR Inten    --      3.2670                16.2143                 1.8205

                     19                     20                     21
                      A                      A                      A
 Frequencies --    477.4144               560.2736               560.9796
 Red. masses --      3.1928                 3.6796                 4.2541
 Frc consts  --      0.4288                 0.6805                 0.7888
 IR Inten    --      5.7331                 2.4742                14.4212

                     22                     23                     24
                      A                      A                      A
 Frequencies --    609.6301               644.2218               677.4433
 Red. masses --      3.6422                 5.1965                 1.2819
 Frc consts  --      0.7975                 1.2707                 0.3466
 IR Inten    --      3.9676                 4.1008                35.8053

                     25                     26                     27
                      A                      A                      A
 Frequencies --    696.0641               772.8999               796.6083
 Red. masses --      3.6869                 1.5659                 1.2179
 Frc consts  --      1.0525                 0.5512                 0.4554
 IR Inten    --      6.7090                 3.2871                24.1011

                     28                     29                     30
                      A                      A                      A
 Frequencies --    799.4165               840.9290               918.7826
 Red. masses --      1.1855                 2.1251                 3.4160
 Frc consts  --      0.4464                 0.8854                 1.6990
 IR Inten    --      0.9567                12.8486                25.4822

                     31                     32                     33
                      A                      A                      A
 Frequencies --    927.8286               962.3367               985.9198
 Red. masses --      4.2430                 2.2829                 2.2711
 Frc consts  --      2.1521                 1.2457                 1.3007
 IR Inten    --     51.8543                10.0376                10.2980

                     34                     35                     36
                      A                      A                      A
 Frequencies --   1040.2657              1072.2787              1088.2793
 Red. masses --      1.9852                 2.1082                 1.9488
 Frc consts  --      1.2657                 1.4282                 1.3599
 IR Inten    --     46.7752                25.8279                 7.2084

                     37                     38                     39
                      A                      A                      A
 Frequencies --   1099.2285              1100.7263              1114.5278
 Red. masses --      1.6703                 1.5807                 1.6333
 Frc consts  --      1.1891                 1.1284                 1.1953
 IR Inten    --      2.8104                 9.0269                18.2204

                     40                     41                     42
                      A                      A                      A
 Frequencies --   1122.4226              1141.2293              1171.4474
 Red. masses --      1.6223                 1.4004                 1.3896
 Frc consts  --      1.2042                 1.0746                 1.1235
 IR Inten    --     11.2023                 9.3653                17.9088

                     43                     44                     45
                      A                      A                      A
 Frequencies --   1202.2502              1224.1070              1233.9001
 Red. masses --      2.4332                 1.4463                 1.7857
 Frc consts  --      2.0721                 1.2769                 1.6019
 IR Inten    --    124.3148                12.4620                 5.3216

                     46                     47                     48
                      A                      A                      A
 Frequencies --   1256.3651              1284.9589              1296.9085
 Red. masses --      3.6230                 1.6948                 1.2725
 Frc consts  --      3.3694                 1.6487                 1.2610
 IR Inten    --     29.4824                19.3106                17.4744

                     49                     50                     51
                      A                      A                      A
 Frequencies --   1302.0124              1333.1205              1342.1300
 Red. masses --      1.9253                 1.3305                 1.4575
 Frc consts  --      1.9230                 1.3932                 1.5468
 IR Inten    --    137.4449                 2.0284                35.9816

                     52                     53                     54
                      A                      A                      A
 Frequencies --   1373.7708              1386.0021              1395.1310
 Red. masses --      1.6040                 1.7240                 3.5429
 Frc consts  --      1.7835                 1.9513                 4.0629
 IR Inten    --     52.9254                17.3525                88.6661

                     55                     56                     57
                      A                      A                      A
 Frequencies --   1433.1350              1435.2943              1460.1252
 Red. masses --      1.2269                 1.2502                 1.5295
 Frc consts  --      1.4846                 1.5175                 1.9212
 IR Inten    --      1.4432                 5.4148               123.2006

                     58                     59                     60
                      A                      A                      A
 Frequencies --   1490.6300              1509.9165              1514.7890
 Red. masses --      1.3127                 1.0734                 1.0468
 Frc consts  --      1.7185                 1.4419                 1.4152
 IR Inten    --     24.3263                 5.5803                15.7246

                     61                     62                     63
                      A                      A                      A
 Frequencies --   1521.1491              1523.3289              1530.1646
 Red. masses --      1.0415                 1.0419                 1.0416
 Frc consts  --      1.4199                 1.4245                 1.4369
 IR Inten    --      3.9325                 4.7616                 0.1468

                     64                     65                     66
                      A                      A                      A
 Frequencies --   1536.6006              1537.9147              1551.5996
 Red. masses --      1.0630                 1.0638                 1.0938
 Frc consts  --      1.4788                 1.4825                 1.5515
 IR Inten    --      2.2155                 4.5412                 7.4807

                     67                     68                     69
                      A                      A                      A
 Frequencies --   1565.4891              1691.9378              1760.5400
 Red. masses --      1.0979                 6.0876                 7.0911
 Frc consts  --      1.5853                10.2675                12.9496
 IR Inten    --      6.8669                14.1549                42.7920

                     70                     71                     72
                      A                      A                      A
 Frequencies --   2819.3536              2951.1929              2974.4089
 Red. masses --      1.0763                 1.0598                 1.0752
 Frc consts  --      5.0404                 5.4384                 5.6047
 IR Inten    --    116.1499               126.1797                73.6645

                     73                     74                     75
                      A                      A                      A
 Frequencies --   3030.3527              3051.7391              3052.3421
 Red. masses --      1.0752                 1.0357                 1.0347
 Frc consts  --      5.8172                 5.6830                 5.6800
 IR Inten    --     20.6516                52.2117                25.4658

                     76                     77                     78
                      A                      A                      A
 Frequencies --   3060.8892              3079.9982              3110.1435
 Red. masses --      1.0849                 1.0744                 1.0912
 Frc consts  --      5.9886                 6.0048                 6.2189
 IR Inten    --     51.0927                53.8957                 7.9787

                     79                     80                     81
                      A                      A                      A
 Frequencies --   3117.0717              3120.4154              3123.9580
 Red. masses --      1.1024                 1.0982                 1.1004
 Frc consts  --      6.3107                 6.3000                 6.3270
 IR Inten    --     36.6642                15.7789                31.0121

                     82                     83                     84
                      A                      A                      A
 Frequencies --   3127.2771              3132.9839              3142.1658
 Red. masses --      1.1023                 1.0992                 1.0920
 Frc consts  --      6.3515                 6.3571                 6.3525
 IR Inten    --     24.4177                20.7107                69.5628

                     85                     86                     87
                      A                      A                      A
 Frequencies --   3269.1883              3336.4016              3736.4294
 Red. masses --      1.0942                 1.1006                 1.0662
 Frc consts  --      6.8899                 7.2184                 8.7703
 IR Inten    --      3.8478                 5.8426                20.0745

 - Thermochemistry -
 -------------------
 Temperature   298.150 Kelvin.  Pressure   1.00000 Atm.
 Atom     1 has atomic number  6 and mass  12.00000

 Molecular mass:   182.14191 amu.
 Principal axes and moments of inertia in atomic units:
                           1         2         3
     Eigenvalues --  1401.167153821.840894513.59105
           X            0.99999   0.00304  -0.00431
           Y           -0.00308   0.99994  -0.01017
           Z            0.00428   0.01019   0.99994
 This molecule is an asymmetric top.
 Rotational symmetry number  1.
 Warning -- assumption of classical behavior for rotation
           may cause significant error
 Rotational temperatures (Kelvin)      0.06182     0.02266     0.01919
 Rotational constants (GHZ):           1.28803     0.47222     0.39985
 Zero-point vibrational energy     717461.2 (Joules/Mol)
                                  171.47735 (Kcal/Mol)
 Warning -- explicit consideration of  22 degrees of freedom as
           vibrations may cause significant error
 Vibrational temperatures:     41.62    76.93    88.37    95.24   137.47
          (Kelvin)            206.34   262.02   298.79   309.82   324.30
                              329.40   360.24   407.05   430.31   457.28
                              542.18   556.84   599.84   686.89   806.11
                              807.12   877.12   926.89   974.69  1001.48
                             1112.03  1146.14  1150.18  1209.91  1321.92
                             1334.94  1384.59  1418.52  1496.71  1542.77
                             1565.79  1581.54  1583.70  1603.56  1614.92
                             1641.97  1685.45  1729.77  1761.22  1775.31
                             1807.63  1848.77  1865.96  1873.31  1918.06
                             1931.03  1976.55  1994.15  2007.28  2061.96
                             2065.07  2100.79  2144.68  2172.43  2179.44
                             2188.59  2191.73  2201.57  2210.83  2212.72
                             2232.41  2252.39  2434.32  2533.02  4056.42
                             4246.11  4279.51  4360.00  4390.77  4391.64
                             4403.94  4431.43  4474.80  4484.77  4489.58
                             4494.68  4499.45  4507.67  4520.88  4703.63
                             4800.34  5375.89

 Zero-point correction=                           0.273267 (Hartree/Particle)
 Thermal correction to Energy=                    0.288280
 Thermal correction to Enthalpy=                  0.289224
 Thermal correction to Gibbs Free Energy=         0.230638
 Sum of electronic and zero-point Energies=           -576.336233
 Sum of electronic and thermal Energies=              -576.321220
 Sum of electronic and thermal Enthalpies=            -576.320275
 Sum of electronic and thermal Free Energies=         -576.378862

                     E (Thermal)             CV                S
                      KCal/Mol        Cal/Mol-Kelvin    Cal/Mol-Kelvin
 Total                  180.898             54.915            123.305
 Electronic               0.000              0.000              0.000
 Translational            0.889              2.981             41.505
 Rotational               0.889              2.981             31.558
 Vibrational            179.121             48.953             50.241
 Vibration     1          0.593              1.984              5.902
 Vibration     2          0.596              1.976              4.685
 Vibration     3          0.597              1.973              4.411
 Vibration     4          0.598              1.970              4.263
 Vibration     5          0.603              1.952              3.543
 Vibration     6          0.616              1.910              2.758
 Vibration     7          0.630              1.864              2.307
 Vibration     8          0.641              1.829              2.064
 Vibration     9          0.645              1.818              1.998
 Vibration    10          0.650              1.802              1.915
 Vibration    11          0.652              1.797              1.887
 Vibration    12          0.663              1.762              1.728
 Vibration    13          0.682              1.705              1.516
 Vibration    14          0.692              1.675              1.422
 Vibration    15          0.704              1.640              1.321
 Vibration    16          0.747              1.519              1.052
 Vibration    17          0.755              1.498              1.012
 Vibration    18          0.780              1.434              0.903
 Vibration    19          0.834              1.300              0.717
 Vibration    20          0.916              1.117              0.523
 Vibration    21          0.917              1.116              0.522
 Vibration    22          0.969              1.011              0.433

 Optimization completed.
    -- Stationary point found.
 Normal termination of Gaussian 16 at Wed Dec  9 23:35:41 2020.

 ----------------------------------------------------------------------
 # B3LYP/6-311++G(d,p) empiricaldispersion=gd3bj scf=xqc pop=npa geom=c
 heck
 ----------------------------------------------------------------------

 ---------------------------------------
 CID_130450336_JID_3426_Energie_neutraal
 ---------------------------------------
 Structure from the checkpoint file:  "JID_3426.chk"
 Charge =  0 Multiplicity = 1

 SCF Done:  E(RB3LYP) =  -576.780965440     A.U. after   15 cycles
 Normal termination of Gaussian 16 at Wed Dec  9 23:40:00 2020.

 ----------------------------------------------------------------------
 # B3LYP/6-311++G(d,p) empiricaldispersion=gd3bj scf=xqc pop=npa geom=c
 heck
 ----------------------------------------------------------------------

 -------------------------------------
 CID_130450336_JID_3426_Energie_kation
 -------------------------------------
 Structure from the checkpoint file:  "JID_3426.chk"
 Charge =  1 Multiplicity = 2

 SCF Done:  E(UB3LYP) =  -576.560163456     A.U. after   20 cycles
 Normal termination of Gaussian 16 at Wed Dec  9 23:48:03 2020.
 Gaussian 16:  ES64L-G16RevA.03 25-Dec-2016

 ----------------------------------------------------------------------
 # B3LYP/6-311++G(d,p) empiricaldispersion=gd3bj scf=xqc pop=npa geom=c
 heck
 ----------------------------------------------------------------------

 ------------------------------------
 CID_130450336_JID_3426_Energie_anion
 ------------------------------------
 Structure from the checkpoint file:  "JID_3426.chk"
 Charge = -1 Multiplicity = 2

                         Standard orientation:
 ---------------------------------------------------------------------
 Center     Atomic      Atomic             Coordinates (Angstroms)
 Number     Number       Type             X           Y           Z
 ---------------------------------------------------------------------
      1          6           0        0.608694    2.819320   -0.790069
      2          6           0        0.969828    1.815820    0.314602
      3          6           0        0.695380    0.380500   -0.081446
      4          6           0        1.678958   -0.536648   -0.220262
      5          6           0        3.160009   -0.285911   -0.124876
      6          6           0        3.774757   -0.833444    1.174361
      7          8           0        1.351987   -1.872380   -0.427378
      8          7           0       -0.664310    0.122381   -0.330691
      9          6           0       -1.690304    0.515331    0.645122
     10          7           0       -2.930062   -0.021638    0.076742
     11          6           0       -2.514534   -1.063033   -0.800405
     12          6           0       -1.203264   -0.966697   -1.050194
     13          6           0       -3.945140   -0.332006    1.064115
     14          1           0        1.224389    2.647403   -1.679950
     15          1           0        0.768899    3.850269   -0.454687
     16          1           0       -0.438314    2.710182   -1.088878
     17          1           0        2.016700    1.934990    0.600806
     18          1           0        0.398254    2.058436    1.221519
     19          1           0        3.649537   -0.772623   -0.986544
     20          1           0        3.386865    0.777170   -0.229053
     21          1           0        3.530484   -1.893189    1.303181
     22          1           0        4.865540   -0.729311    1.173194
     23          1           0        3.375920   -0.295607    2.040817
     24          1           0        2.101172   -2.299814   -0.869932
     25          1           0       -1.477559    0.058957    1.641017
     26          1           0       -1.748992    1.602291    0.771222
     27          1           0       -3.247977   -1.709819   -1.260323
     28          1           0       -0.591023   -1.522917   -1.737529
     29          1           0       -4.811378   -0.778748    0.566705
     30          1           0       -3.586615   -1.031768    1.842499
     31          1           0       -4.277494    0.588555    1.556921
 ---------------------------------------------------------------------

 SCF Done:  E(UB3LYP) =  -576.768218109     A.U. after   33 cycles
 SCF Done:  E(UB3LYP) =  -576.768218109     a.u. after    1 cycles

 The electronic state is 2-A.
 Alpha  occ. eigenvalues --  -19.03218 -14.22853 -14.22483 -10.13251 -10.11125
 Alpha  occ. eigenvalues --  -10.10470 -10.09088 -10.08641 -10.08138 -10.07070
 Alpha  occ. eigenvalues --  -10.07031 -10.05841 -10.05667  -0.94008  -0.88794
 Alpha  occ. eigenvalues --   -0.80266  -0.70208  -0.66880  -0.64730  -0.62699
 Alpha  occ. eigenvalues --   -0.59432  -0.54218  -0.52353  -0.50604  -0.48273
 Alpha  occ. eigenvalues --   -0.45056  -0.42434  -0.39156  -0.37702  -0.37577
 Alpha  occ. eigenvalues --   -0.34645  -0.34407  -0.33892  -0.33324  -0.31918
 Alpha  occ. eigenvalues --   -0.31273  -0.30971  -0.30104  -0.28398  -0.27822
 Alpha  occ. eigenvalues --   -0.26969  -0.26009  -0.25279  -0.24881  -0.23554
 Alpha  occ. eigenvalues --   -0.22533  -0.22152  -0.18747  -0.11263  -0.06075
 Alpha  occ. eigenvalues --    0.04345
 Alpha virt. eigenvalues --    0.05866   0.06966   0.07892   0.08322   0.08837
 Alpha virt. eigenvalues --    0.09529   0.09937   0.10007   0.10938   0.11175
 Alpha virt. eigenvalues --    0.11856   0.12034   0.12599   0.13149   0.13390

  Beta  occ. eigenvalues --  -19.03175 -14.22845 -14.22478 -10.13241 -10.11124
  Beta  occ. eigenvalues --  -10.10453 -10.09075 -10.08637 -10.08128 -10.07055
  Beta  occ. eigenvalues --  -10.06991 -10.05820 -10.05632  -0.93919  -0.88777
  Beta  occ. eigenvalues --   -0.80247  -0.70170  -0.66829  -0.64703  -0.62666
  Beta  occ. eigenvalues --   -0.59391  -0.54155  -0.52300  -0.50534  -0.48242
  Beta  occ. eigenvalues --   -0.45008  -0.42371  -0.39125  -0.37651  -0.37548
  Beta  occ. eigenvalues --   -0.34620  -0.34363  -0.33857  -0.33289  -0.31888
  Beta  occ. eigenvalues --   -0.31242  -0.30938  -0.30079  -0.28372  -0.27777
  Beta  occ. eigenvalues --   -0.26912  -0.25965  -0.25239  -0.24847  -0.23513
  Beta  occ. eigenvalues --   -0.22487  -0.22119  -0.18710  -0.11218  -0.06028
  Beta virt. eigenvalues --    0.06168   0.07020   0.07806   0.08204   0.09019
  Beta virt. eigenvalues --    0.09181   0.09699   0.10248   0.10487   0.11346
  Beta virt. eigenvalues --    0.11480   0.12008   0.12232   0.12754   0.13483

 Mulliken charges and spin densities:
               1          2
     1  C    0.673799  -1.204366
     2  C   -1.025885   0.559072
     3  C    3.161318  -3.341213
     4  C   -2.312350   2.280975
     5  C   -1.049121   0.912697
     6  C    1.097265  -1.648876
     7  O   -0.219417   0.009243
     8  N    0.283493  -0.024089
     9  C    0.220869  -0.662172
    10  N    0.043249   0.077748
    11  C   -0.133468  -0.150642
    12  C    0.249435  -0.264365
    13  C    0.287832  -0.563041
    14  H   -0.084110   0.213669
    15  H   -0.194305   0.331812
    16  H    0.072534   0.083646
    17  H    0.118789   0.045355
    18  H   -0.200920   0.343907
    19  H   -0.479473   0.629634
    20  H   -0.408504   0.560613
    21  H   -0.206814   0.363246
    22  H   -0.456524   0.611326
    23  H    0.007947   0.113747
    24  H   -0.326563   0.604180
    25  H   -0.003162   0.087568
    26  H    0.102323   0.129042
    27  H   -0.036122   0.174269
    28  H    0.000439   0.187100
    29  H   -0.061493   0.181940
    30  H    0.010033   0.094736
    31  H   -0.131089   0.263238
 Sum of Mulliken charges =  -1.00000   1.00000

 Dipole moment (field-independent basis, Debye):
    X=             -5.8543    Y=              1.0501    Z=              0.7925  Tot=              6.0003
 Quadrupole moment (field-independent basis, Debye-Ang):
   XX=           -159.2500   YY=           -127.8120   ZZ=           -111.3063
   XY=              9.5133   XZ=              3.9602   YZ=             -2.0764

 Summary of Natural Population Analysis:

                                       Natural Population
                Natural  -----------------------------------------------
    Atom  No    Charge         Core      Valence    Rydberg      Total
 -----------------------------------------------------------------------
      C    1   -0.28449      0.99966     2.27906    0.00577     3.28449
      C    2   -0.19988      0.99961     2.19188    0.00839     3.19988
      C    3    0.05131      0.99941     1.93524    0.01405     2.94869
      C    4    0.13952      0.99936     1.84743    0.01369     2.86048
      C    5   -0.21396      0.99961     2.20514    0.00921     3.21396
      C    6   -0.28192      0.99966     2.27633    0.00593     3.28192
      O    7   -0.35551      0.99988     3.34724    0.00840     4.35551
      N    8   -0.25518      0.99965     2.74383    0.01170     3.75518
      C    9    0.02594      0.99962     1.95982    0.01461     2.97406
      N   10   -0.27067      0.99971     2.75828    0.01269     3.77067
      C   11   -0.04399      0.99952     2.03231    0.01215     3.04399
      C   12   -0.00904      0.99952     1.99789    0.01163     3.00904
      C   13   -0.17199      0.99965     2.16506    0.00728     3.17199
      H   14    0.09782      0.00000     0.40112    0.00106     0.40218
      H   15    0.09594      0.00000     0.40303    0.00103     0.40406
      H   16    0.09951      0.00000     0.39924    0.00125     0.40049
      H   17    0.10381      0.00000     0.39485    0.00134     0.39619
      H   18    0.09622      0.00000     0.40236    0.00142     0.40378
      H   19    0.09976      0.00000     0.39605    0.00420     0.40024
      H   20    0.10462      0.00000     0.39376    0.00162     0.39538
      H   21    0.09925      0.00000     0.39923    0.00152     0.40075
      H   22    0.09872      0.00000     0.39975    0.00153     0.40128
      H   23    0.09602      0.00000     0.40281    0.00117     0.40398
      H   24    0.23675      0.00000     0.25630    0.00695     0.26325
      H   25    0.06827      0.00000     0.42951    0.00222     0.43173
      H   26    0.09134      0.00000     0.40642    0.00224     0.40866
      H   27    0.09906      0.00000     0.39993    0.00101     0.40094
      H   28    0.11371      0.00000     0.38510    0.00119     0.38629
      H   29    0.09509      0.00000     0.40358    0.00133     0.40491
      H   30    0.08025      0.00000     0.41660    0.00316     0.41975
      H   31    0.09371      0.00000     0.40475    0.00155     0.40629
 =======================================================================
   * Total *    0.00000     12.99487    36.83388    0.17126    50.00000

 Normal termination of Gaussian 16 at Thu Dec 10 00:01:29 2020.
