 Gaussian 16, Revision A.03,

 -----------------------------------------------------------
 # opt freq B3LYP/6-31G(d) empiricaldispersion=gd3bj scf=xqc
 -----------------------------------------------------------

 ------------------------------
 CID_14715305_JID_4680_neutraal
 ------------------------------
 Symbolic Z-matrix:
 Charge =  0 Multiplicity = 1

 SCF Done:  E(RB3LYP) =  -966.218047245     A.U. after   15 cycles
 SCF Done:  E(RB3LYP) =  -966.222136306     A.U. after   13 cycles
 SCF Done:  E(RB3LYP) =  -966.223009481     A.U. after   12 cycles
 SCF Done:  E(RB3LYP) =  -966.223424494     A.U. after   12 cycles
 SCF Done:  E(RB3LYP) =  -966.223590925     A.U. after   12 cycles
 SCF Done:  E(RB3LYP) =  -966.223682287     A.U. after   12 cycles
 SCF Done:  E(RB3LYP) =  -966.223815125     A.U. after   12 cycles
 SCF Done:  E(RB3LYP) =  -966.223919167     A.U. after   12 cycles
 SCF Done:  E(RB3LYP) =  -966.223941421     A.U. after   11 cycles
 SCF Done:  E(RB3LYP) =  -966.224015543     A.U. after   11 cycles
 SCF Done:  E(RB3LYP) =  -966.224279811     A.U. after    9 cycles
 SCF Done:  E(RB3LYP) =  -966.224281518     A.U. after   10 cycles
 SCF Done:  E(RB3LYP) =  -966.224281372     A.U. after   10 cycles
 SCF Done:  E(RB3LYP) =  -966.224282333     A.U. after    8 cycles
 SCF Done:  E(RB3LYP) =  -966.224282749     A.U. after    9 cycles
 Optimization completed.
    -- Stationary point found.
 Normal termination of Gaussian 16 at Thu Dec 10 10:25:29 2020.

 --------------------------------------------------------------------
 #N Geom=AllCheck Guess=TCheck SCRF=Check GenChk RB3LYP/6-31G(d) Freq
 --------------------------------------------------------------------

 Structure from the checkpoint file:  "JID_4680.chk"
 ------------------------------
 CID_14715305_JID_4680_neutraal
 ------------------------------
 Charge =  0 Multiplicity = 1

 SCF Done:  E(RB3LYP) =  -966.224282749     A.U. after    1 cycles

  Exact polarizability: 200.290  -0.103 112.341  -6.624  -7.231  86.822
 Approx polarizability: 269.890  -5.651 203.763 -15.916  -8.857 148.142

                      1                      2                      3
                      A                      A                      A
 Frequencies --     22.8603                29.7304                52.1749
 Red. masses --      4.3261                 5.6574                 5.2260
 Frc consts  --      0.0013                 0.0029                 0.0084
 IR Inten    --      0.2976                 0.5967                 1.5813

                      4                      5                      6
                      A                      A                      A
 Frequencies --    101.7348               147.8469               226.7861
 Red. masses --      4.0279                 6.9376                 4.5720
 Frc consts  --      0.0246                 0.0893                 0.1385
 IR Inten    --      1.8151                 0.9096                11.5390

                      7                      8                      9
                      A                      A                      A
 Frequencies --    240.2918               273.6096               301.3932
 Red. masses --      4.8784                 6.4794                 3.5662
 Frc consts  --      0.1660                 0.2858                 0.1909
 IR Inten    --      2.2498                 7.1577                 7.5647

                     10                     11                     12
                      A                      A                      A
 Frequencies --    354.1885               396.6642               416.1931
 Red. masses --      1.6040                 1.6883                 2.9254
 Frc consts  --      0.1186                 0.1565                 0.2986
 IR Inten    --     20.2481                25.0400                 2.8486

                     13                     14                     15
                      A                      A                      A
 Frequencies --    447.0742               470.0060               520.4291
 Red. masses --      1.7659                 2.6522                 2.7993
 Frc consts  --      0.2080                 0.3452                 0.4467
 IR Inten    --     81.5345                27.7169                23.8586

                     16                     17                     18
                      A                      A                      A
 Frequencies --    567.4548               574.3794               600.3661
 Red. masses --      6.3344                 1.9520                 5.1914
 Frc consts  --      1.2018                 0.3794                 1.1025
 IR Inten    --      3.3326               236.5621                23.2578

                     19                     20                     21
                      A                      A                      A
 Frequencies --    617.7624               637.1067               676.4807
 Red. masses --      3.4754                 6.3009                 4.8211
 Frc consts  --      0.7815                 1.5069                 1.2999
 IR Inten    --     74.5569                 0.1796                 1.0367

                     22                     23                     24
                      A                      A                      A
 Frequencies --    715.9052               720.2828               745.8532
 Red. masses --      1.9045                 6.7217                 8.3666
 Frc consts  --      0.5751                 2.0546                 2.7423
 IR Inten    --     22.5301                 7.2106                72.5505

                     25                     26                     27
                      A                      A                      A
 Frequencies --    767.6852               804.3585               848.9369
 Red. masses --      1.7655                 8.6457                 3.8218
 Frc consts  --      0.6130                 3.2957                 1.6228
 IR Inten    --     30.9342                32.3761                 5.3654

                     28                     29                     30
                      A                      A                      A
 Frequencies --    863.5975               927.7533               971.9950
 Red. masses --      1.2466                 1.3514                 1.3495
 Frc consts  --      0.5478                 0.6853                 0.7512
 IR Inten    --      0.0017                 3.8304                 0.1498

                     31                     32                     33
                      A                      A                      A
 Frequencies --    997.8215              1003.0118              1022.9704
 Red. masses --      1.4687                 1.5053                 5.9194
 Frc consts  --      0.8616                 0.8923                 3.6497
 IR Inten    --      6.4586                 3.6423                 1.6568

                     34                     35                     36
                      A                      A                      A
 Frequencies --   1030.5042              1060.6286              1117.5211
 Red. masses --      5.6180                 2.1893                 1.5837
 Frc consts  --      3.5150                 1.4510                 1.1653
 IR Inten    --     29.3808                 3.3966                 6.5822

                     37                     38                     39
                      A                      A                      A
 Frequencies --   1142.7651              1148.3250              1195.3279
 Red. masses --      2.5927                 2.0215                 1.1009
 Frc consts  --      1.9949                 1.5706                 0.9268
 IR Inten    --     14.1581                16.2514                 0.1098

                     40                     41                     42
                      A                      A                      A
 Frequencies --   1214.3822              1238.6273              1261.6945
 Red. masses --      1.1301                 2.4249                 1.3093
 Frc consts  --      0.9819                 2.1919                 1.2280
 IR Inten    --      1.7654                 5.4317                30.4740

                     43                     44                     45
                      A                      A                      A
 Frequencies --   1322.7919              1352.8291              1368.7257
 Red. masses --      4.6497                 2.1244                 2.0988
 Frc consts  --      4.7935                 2.2907                 2.3166
 IR Inten    --     36.8041                54.7414                 4.1459

                     46                     47                     48
                      A                      A                      A
 Frequencies --   1387.3505              1438.9848              1466.3199
 Red. masses --      1.4879                 3.7118                 1.6253
 Frc consts  --      1.6873                 4.5284                 2.0589
 IR Inten    --     82.2226               385.4669                 8.1982

                     49                     50                     51
                      A                      A                      A
 Frequencies --   1505.7555              1536.1137              1550.5925
 Red. masses --      2.1730                 1.1197                 2.1246
 Frc consts  --      2.9028                 1.5567                 3.0096
 IR Inten    --      8.9987                18.0760                 2.8311

                     52                     53                     54
                      A                      A                      A
 Frequencies --   1576.0249              1642.1824              1650.8202
 Red. masses --      3.6498                 6.3726                 5.6202
 Frc consts  --      5.3412                10.1254                 9.0241
 IR Inten    --    109.3991               500.7057                70.5059

                     55                     56                     57
                      A                      A                      A
 Frequencies --   1669.2493              1670.2966              3013.0093
 Red. masses --      1.5138                 4.4458                 1.0592
 Frc consts  --      2.4851                 7.3079                 5.6652
 IR Inten    --    167.7160                 9.1087                27.1744

                     58                     59                     60
                      A                      A                      A
 Frequencies --   3045.1205              3181.5988              3188.2236
 Red. masses --      1.1038                 1.0865                 1.0869
 Frc consts  --      6.0302                 6.4800                 6.5091
 IR Inten    --     20.9568                 6.1195                 0.3238

                     61                     62                     63
                      A                      A                      A
 Frequencies --   3196.8831              3205.1378              3214.4113
 Red. masses --      1.0904                 1.0943                 1.0981
 Frc consts  --      6.5659                 6.6232                 6.6849
 IR Inten    --     12.7849                31.6133                17.9630

                     64                     65                     66
                      A                      A                      A
 Frequencies --   3574.4132              3597.7117              3685.7902
 Red. masses --      1.0467                 1.0762                 1.1002
 Frc consts  --      7.8789                 8.2074                 8.8059
 IR Inten    --     35.3033                42.8622                26.1850

 - Thermochemistry -
 -------------------
 Temperature   298.150 Kelvin.  Pressure   1.00000 Atm.
 Atom     1 has atomic number  6 and mass  12.00000

 Molecular mass:   206.06262 amu.
 Principal axes and moments of inertia in atomic units:
                           1         2         3
     Eigenvalues --   865.771097575.126037937.18642
           X            0.99999   0.00486   0.00246
           Y           -0.00473   0.99858  -0.05307
           Z           -0.00272   0.05306   0.99859
 This molecule is an asymmetric top.
 Rotational symmetry number  1.
 Warning -- assumption of classical behavior for rotation
           may cause significant error
 Rotational temperatures (Kelvin)      0.10004     0.01143     0.01091
 Rotational constants (GHZ):           2.08455     0.23825     0.22738
 Zero-point vibrational energy     493548.2 (Joules/Mol)
                                  117.96085 (Kcal/Mol)
 Warning -- explicit consideration of  19 degrees of freedom as
           vibrations may cause significant error
 Vibrational temperatures:     32.89    42.78    75.07   146.37   212.72
          (Kelvin)            326.29   345.73   393.66   433.64   509.60
                              570.71   598.81   643.24   676.23   748.78
                              816.44   826.40   863.79   888.82   916.65
                              973.30  1030.03  1036.33  1073.12  1104.53
                             1157.29  1221.43  1242.52  1334.83  1398.48
                             1435.64  1443.11  1471.83  1482.67  1526.01
                             1607.86  1644.18  1652.18  1719.81  1747.23
                             1782.11  1815.30  1903.20  1946.42  1969.29
                             1996.09  2070.38  2109.71  2166.45  2210.13
                             2230.96  2267.55  2362.73  2375.16  2401.68
                             2403.18  4335.05  4381.25  4577.61  4587.14
                             4599.60  4611.48  4624.82  5142.78  5176.30
                             5303.03

 Zero-point correction=                           0.187983 (Hartree/Particle)
 Thermal correction to Energy=                    0.200358
 Thermal correction to Enthalpy=                  0.201303
 Thermal correction to Gibbs Free Energy=         0.146913
 Sum of electronic and zero-point Energies=           -966.036300
 Sum of electronic and thermal Energies=              -966.023924
 Sum of electronic and thermal Enthalpies=            -966.022980
 Sum of electronic and thermal Free Energies=         -966.077370

                     E (Thermal)             CV                S
                      KCal/Mol        Cal/Mol-Kelvin    Cal/Mol-Kelvin
 Total                  125.727             47.191            114.474
 Electronic               0.000              0.000              0.000
 Translational            0.889              2.981             41.873
 Rotational               0.889              2.981             32.321
 Vibrational            123.949             41.230             40.280
 Vibration     1          0.593              1.985              6.369
 Vibration     2          0.594              1.984              5.847
 Vibration     3          0.596              1.977              4.733
 Vibration     4          0.604              1.948              3.421
 Vibration     5          0.617              1.905              2.700
 Vibration     6          0.650              1.800              1.904
 Vibration     7          0.657              1.779              1.801
 Vibration     8          0.676              1.722              1.573
 Vibration     9          0.693              1.671              1.409
 Vibration    10          0.730              1.567              1.148
 Vibration    11          0.763              1.477              0.975
 Vibration    12          0.779              1.435              0.905
 Vibration    13          0.806              1.367              0.805
 Vibration    14          0.827              1.317              0.738
 Vibration    15          0.875              1.205              0.609
 Vibration    16          0.923              1.102              0.509
 Vibration    17          0.931              1.087              0.496
 Vibration    18          0.959              1.031              0.449
 Vibration    19          0.978              0.994              0.420

                           ! Non-Optimized Parameters !
 Normal termination of Gaussian 16 at Thu Dec 10 10:31:21 2020.

 ----------------------------------------------------------------------
 # B3LYP/6-311++G(d,p) empiricaldispersion=gd3bj scf=xqc pop=npa geom=c
 heck
 ----------------------------------------------------------------------

 --------------------------------------
 CID_14715305_JID_4680_Energie_neutraal
 --------------------------------------
 Structure from the checkpoint file:  "JID_4680.chk"
 Charge =  0 Multiplicity = 1

 SCF Done:  E(RB3LYP) =  -966.412329760     A.U. after   15 cycles
 Normal termination of Gaussian 16 at Thu Dec 10 10:35:07 2020.

 ----------------------------------------------------------------------
 # B3LYP/6-311++G(d,p) empiricaldispersion=gd3bj scf=xqc pop=npa geom=c
 heck
 ----------------------------------------------------------------------

 ------------------------------------
 CID_14715305_JID_4680_Energie_kation
 ------------------------------------
 Structure from the checkpoint file:  "JID_4680.chk"
 Charge =  1 Multiplicity = 2

 SCF Done:  E(UB3LYP) =  -966.125594132     A.U. after   27 cycles
 Normal termination of Gaussian 16 at Thu Dec 10 10:42:36 2020.
 Gaussian 16:  ES64L-G16RevA.03 25-Dec-2016

 ----------------------------------------------------------------------
 # B3LYP/6-311++G(d,p) empiricaldispersion=gd3bj scf=xqc pop=npa geom=c
 heck
 ----------------------------------------------------------------------

 -----------------------------------
 CID_14715305_JID_4680_Energie_anion
 -----------------------------------
 Structure from the checkpoint file:  "JID_4680.chk"
 Charge = -1 Multiplicity = 2

                         Standard orientation:
 ---------------------------------------------------------------------
 Center     Atomic      Atomic             Coordinates (Angstroms)
 Number     Number       Type             X           Y           Z
 ---------------------------------------------------------------------
      1          6           0       -4.851837    0.617501   -0.107065
      2          6           0       -4.520752   -0.397118    0.790252
      3          6           0       -3.206098   -0.860313    0.866561
      4          6           0       -2.214681   -0.320675    0.043359
      5          6           0       -2.554065    0.698250   -0.856015
      6          6           0       -3.864449    1.165751   -0.929389
      7          6           0       -0.795177   -0.832744    0.112878
      8          7           0        0.145359    0.265216    0.290819
      9          6           0        1.483780    0.112556    0.147598
     10          7           0        2.370427    1.005396    0.516430
     11          6           0        3.621240    0.536773    0.175066
     12          7           0        3.779839   -0.639516   -0.395374
     13         16           0        2.228925   -1.304542   -0.595391
     14          7           0        4.700331    1.361719    0.413031
     15          1           0       -5.873426    0.981953   -0.165379
     16          1           0       -5.282223   -0.825041    1.435954
     17          1           0       -2.947703   -1.646524    1.571608
     18          1           0       -1.783825    1.124040   -1.493152
     19          1           0       -4.116920    1.956294   -1.630338
     20          1           0       -0.699278   -1.579065    0.915327
     21          1           0       -0.532836   -1.339115   -0.826631
     22          1           0       -0.140179    1.035786    0.882426
     23          1           0        4.562765    2.011178    1.175645
     24          1           0        5.591359    0.883585    0.426976
 ---------------------------------------------------------------------

 SCF Done:  E(UB3LYP) =  -966.400304759     A.U. after   33 cycles
 SCF Done:  E(UB3LYP) =  -966.401236271     a.u. after    8 cycles

 The electronic state is 2-A.
 Alpha  occ. eigenvalues --  -88.79015 -14.25597 -14.22534 -14.20946 -14.20763
 Alpha  occ. eigenvalues --  -10.18019 -10.16817 -10.12512 -10.08264 -10.07774
 Alpha  occ. eigenvalues --  -10.07769 -10.07245 -10.07210 -10.06993  -7.87444
 Alpha  occ. eigenvalues --   -5.83850  -5.83410  -5.82905  -0.91955  -0.86397
 Alpha  occ. eigenvalues --   -0.80269  -0.76980  -0.75721  -0.67833  -0.64937
 Alpha  occ. eigenvalues --   -0.63843  -0.59943  -0.51903  -0.51061  -0.50702
 Alpha  occ. eigenvalues --   -0.48607  -0.43233  -0.42489  -0.40951  -0.38828
 Alpha  occ. eigenvalues --   -0.37528  -0.36000  -0.35568  -0.34925  -0.32776
 Alpha  occ. eigenvalues --   -0.32064  -0.31589  -0.29041  -0.26993  -0.25673
 Alpha  occ. eigenvalues --   -0.24881  -0.24491  -0.22083  -0.21081  -0.18209
 Alpha  occ. eigenvalues --   -0.16437  -0.16017  -0.15274  -0.11880   0.04344
 Alpha virt. eigenvalues --    0.05463   0.06681   0.07217   0.07875   0.07975
 Alpha virt. eigenvalues --    0.08626   0.09070   0.09475   0.09607   0.09853
 Alpha virt. eigenvalues --    0.10380   0.11781   0.12224   0.13779   0.14103

  Beta  occ. eigenvalues --  -88.78997 -14.25580 -14.22480 -14.20948 -14.20693
  Beta  occ. eigenvalues --  -10.18009 -10.16811 -10.12498 -10.08162 -10.07791
  Beta  occ. eigenvalues --  -10.07784 -10.07164 -10.07140 -10.06883  -7.87425
  Beta  occ. eigenvalues --   -5.83803  -5.83398  -5.82887  -0.91911  -0.86350
  Beta  occ. eigenvalues --   -0.80180  -0.76875  -0.75592  -0.67667  -0.64815
  Beta  occ. eigenvalues --   -0.63725  -0.59830  -0.51805  -0.50981  -0.50604
  Beta  occ. eigenvalues --   -0.48455  -0.43131  -0.42394  -0.40857  -0.38753
  Beta  occ. eigenvalues --   -0.37443  -0.35917  -0.35445  -0.34863  -0.32713
  Beta  occ. eigenvalues --   -0.32014  -0.31471  -0.28873  -0.26729  -0.25564
  Beta  occ. eigenvalues --   -0.24796  -0.24423  -0.22014  -0.20995  -0.18171
  Beta  occ. eigenvalues --   -0.16254  -0.15772  -0.14778  -0.11795
  Beta virt. eigenvalues --    0.06543   0.06780   0.07559   0.07751   0.08003
  Beta virt. eigenvalues --    0.08380   0.08718   0.09560   0.09857   0.09937
  Beta virt. eigenvalues --    0.10294   0.10836   0.11753   0.12440   0.13754

 Mulliken charges and spin densities:
               1          2
     1  C    0.672316  -0.942999
     2  C    0.617391  -0.883386
     3  C   -0.736941   0.419070
     4  C    0.011713   0.854004
     5  C   -1.517717   1.227296
     6  C    0.005613  -0.291650
     7  C    1.451830  -1.927033
     8  N    0.024706   0.008584
     9  C    0.231831  -0.399187
    10  N   -0.156604  -0.045483
    11  C    0.087891  -0.309373
    12  N   -0.188370  -0.048884
    13  S    0.177384   0.049387
    14  N   -0.368794   0.075995
    15  H   -0.434388   0.577003
    16  H   -0.610461   0.775011
    17  H   -0.190708   0.326557
    18  H    0.123652   0.038399
    19  H   -0.146497   0.305607
    20  H    0.043844   0.147935
    21  H   -0.089929   0.232753
    22  H    0.293960  -0.013281
    23  H   -0.134903   0.388890
    24  H   -0.166819   0.434785
 Sum of Mulliken charges =  -1.00000   1.00000

 Dipole moment (field-independent basis, Debye):
    X=              1.2898    Y=             -0.9398    Z=             -0.5238  Tot=              1.6796
 Quadrupole moment (field-independent basis, Debye-Ang):
   XX=           -220.8027   YY=           -118.1877   ZZ=           -111.2380
   XY=             -8.4189   XZ=              2.8686   YZ=             -1.5313

 Summary of Natural Population Analysis:

                                       Natural Population
                Natural  -----------------------------------------------
    Atom  No    Charge         Core      Valence    Rydberg      Total
 -----------------------------------------------------------------------
      C    1   -0.08610      0.99956     2.07618    0.01036     3.08610
      C    2   -0.09041      0.99957     2.08033    0.01052     3.09041
      C    3   -0.10297      0.99951     2.09304    0.01042     3.10297
      C    4   -0.01734      0.99950     2.00745    0.01039     3.01734
      C    5   -0.08941      0.99951     2.08033    0.00957     3.08941
      C    6   -0.10517      0.99957     2.09512    0.01048     3.10517
      C    7   -0.09326      0.99958     2.08086    0.01282     3.09326
      N    8   -0.30641      0.99963     2.79627    0.01050     3.80641
      C    9    0.14406      0.99962     1.83561    0.02071     2.85594
      N   10   -0.30117      0.99962     2.79058    0.01097     3.80117
      C   11    0.27479      0.99965     1.70487    0.02069     2.72521
      N   12   -0.35578      0.99968     2.84482    0.01128     3.85578
      S   13    0.24176      4.99947     2.73470    0.02407     7.75824
      N   14   -0.39597      0.99970     2.88576    0.01051     3.89597
      H   15    0.09967      0.00000     0.39889    0.00144     0.40033
      H   16    0.10063      0.00000     0.39776    0.00162     0.39937
      H   17    0.09905      0.00000     0.39983    0.00112     0.40095
      H   18    0.10176      0.00000     0.39720    0.00104     0.39824
      H   19    0.09871      0.00000     0.40046    0.00082     0.40129
      H   20    0.09425      0.00000     0.40457    0.00118     0.40575
      H   21    0.10527      0.00000     0.39312    0.00161     0.39473
      H   22    0.19901      0.00000     0.29916    0.00183     0.30099
      H   23    0.19306      0.00000     0.30348    0.00346     0.30694
      H   24    0.19197      0.00000     0.30498    0.00305     0.30803
 =======================================================================
   * Total *    0.00000     17.99419    35.80536    0.20045    54.00000

 Normal termination of Gaussian 16 at Thu Dec 10 11:49:16 2020.
