 Gaussian 16, Revision A.03,

 -----------------------------------------------------------
 # opt freq B3LYP/6-31G(d) empiricaldispersion=gd3bj scf=xqc
 -----------------------------------------------------------

 -------------------------------
 CID_131050512_JID_3243_neutraal
 -------------------------------
 Symbolic Z-matrix:
 Charge =  0 Multiplicity = 1

 SCF Done:  E(RB3LYP) =  -540.730663826     A.U. after   13 cycles
 SCF Done:  E(RB3LYP) =  -540.734355097     A.U. after   11 cycles
 SCF Done:  E(RB3LYP) =  -540.734784572     A.U. after   12 cycles
 SCF Done:  E(RB3LYP) =  -540.735366611     A.U. after   11 cycles
 SCF Done:  E(RB3LYP) =  -540.735543890     A.U. after   11 cycles
 SCF Done:  E(RB3LYP) =  -540.735597977     A.U. after   10 cycles
 SCF Done:  E(RB3LYP) =  -540.735610223     A.U. after    9 cycles
 SCF Done:  E(RB3LYP) =  -540.735633859     A.U. after   10 cycles
 SCF Done:  E(RB3LYP) =  -540.735642524     A.U. after   10 cycles
 SCF Done:  E(RB3LYP) =  -540.735643412     A.U. after    8 cycles
 SCF Done:  E(RB3LYP) =  -540.735643600     A.U. after    7 cycles
 Optimization completed.
    -- Stationary point found.
 Normal termination of Gaussian 16 at Wed Dec  9 22:31:24 2020.

 --------------------------------------------------------------------
 #N Geom=AllCheck Guess=TCheck SCRF=Check GenChk RB3LYP/6-31G(d) Freq
 --------------------------------------------------------------------

 Structure from the checkpoint file:  "JID_3243.chk"
 -------------------------------
 CID_131050512_JID_3243_neutraal
 -------------------------------
 Charge =  0 Multiplicity = 1

 SCF Done:  E(RB3LYP) =  -540.735643600     A.U. after    1 cycles

  Exact polarizability: 143.368   1.189 115.339   9.836   0.391 110.050
 Approx polarizability: 181.641   4.922 168.115  16.983   1.624 168.371

                      1                      2                      3
                      A                      A                      A
 Frequencies --     42.0458                49.3151                63.7238
 Red. masses --      3.3477                 3.1351                 3.1389
 Frc consts  --      0.0035                 0.0045                 0.0075
 IR Inten    --      0.3222                 0.3080                 0.5305

                      4                      5                      6
                      A                      A                      A
 Frequencies --    112.9410               174.1920               186.5218
 Red. masses --      2.5528                 3.0682                 2.3280
 Frc consts  --      0.0192                 0.0549                 0.0477
 IR Inten    --      1.0615                 0.1738                 2.9263

                      7                      8                      9
                      A                      A                      A
 Frequencies --    226.2969               277.7211               303.0503
 Red. masses --      1.0709                 2.0928                 2.1754
 Frc consts  --      0.0323                 0.0951                 0.1177
 IR Inten    --      0.6049                 1.8740                 2.8113

                     10                     11                     12
                      A                      A                      A
 Frequencies --    329.4098               376.9317               390.9725
 Red. masses --      2.7165                 2.0269                 2.2751
 Frc consts  --      0.1737                 0.1697                 0.2049
 IR Inten    --      0.1547                 0.7066                 1.9644

                     13                     14                     15
                      A                      A                      A
 Frequencies --    425.6939               434.1060               452.7966
 Red. masses --      2.3853                 3.0812                 2.1168
 Frc consts  --      0.2547                 0.3421                 0.2557
 IR Inten    --      4.3703                 3.9997                 1.1368

                     16                     17                     18
                      A                      A                      A
 Frequencies --    514.8590               558.2632               585.1151
 Red. masses --      3.2857                 3.1332                 2.1192
 Frc consts  --      0.5132                 0.5753                 0.4275
 IR Inten    --     14.2075                 2.1802                 8.3570

                     19                     20                     21
                      A                      A                      A
 Frequencies --    675.6089               734.2723               759.2148
 Red. masses --      5.3970                 1.2813                 2.8025
 Frc consts  --      1.4514                 0.4070                 0.9518
 IR Inten    --      1.2420                 1.3254                 8.2506

                     22                     23                     24
                      A                      A                      A
 Frequencies --    789.0929               792.9767               827.9763
 Red. masses --      1.8376                 2.5462                 1.5285
 Frc consts  --      0.6741                 0.9433                 0.6174
 IR Inten    --     91.1343                 3.8178                10.4891

                     25                     26                     27
                      A                      A                      A
 Frequencies --    839.5071               851.7573               907.4646
 Red. masses --      2.7818                 2.6020                 1.9686
 Frc consts  --      1.1551                 1.1122                 0.9551
 IR Inten    --      7.8747                 1.2851                16.4187

                     28                     29                     30
                      A                      A                      A
 Frequencies --    915.0194               920.6566               942.0764
 Red. masses --      1.4409                 1.7253                 1.8848
 Frc consts  --      0.7108                 0.8616                 0.9856
 IR Inten    --     27.8624                 9.6187                 2.2193

                     31                     32                     33
                      A                      A                      A
 Frequencies --    952.1743               975.4783               992.2215
 Red. masses --      1.9538                 1.9630                 1.7539
 Frc consts  --      1.0436                 1.1005                 1.0173
 IR Inten    --      1.5940                 2.2378                 3.7394

                     34                     35                     36
                      A                      A                      A
 Frequencies --   1017.7426              1032.1911              1043.8088
 Red. masses --      2.0840                 2.3572                 1.6187
 Frc consts  --      1.2718                 1.4797                 1.0391
 IR Inten    --      3.5549                 7.5699                 1.2633

                     37                     38                     39
                      A                      A                      A
 Frequencies --   1068.3806              1081.6689              1095.5861
 Red. masses --      1.8823                 1.8298                 1.8236
 Frc consts  --      1.2659                 1.2614                 1.2896
 IR Inten    --      5.0333                10.3486                10.2680

                     40                     41                     42
                      A                      A                      A
 Frequencies --   1106.2552              1111.1969              1128.6039
 Red. masses --      1.8442                 1.7305                 1.9286
 Frc consts  --      1.3298                 1.2589                 1.4473
 IR Inten    --      6.1095                11.3702                 2.1591

                     43                     44                     45
                      A                      A                      A
 Frequencies --   1159.4368              1186.2636              1202.4325
 Red. masses --      2.0591                 3.0014                 1.1916
 Frc consts  --      1.6309                 2.4885                 1.0151
 IR Inten    --      5.8700                58.4668                 6.6110

                     46                     47                     48
                      A                      A                      A
 Frequencies --   1223.5335              1254.5328              1276.4134
 Red. masses --      1.2492                 1.1971                 1.7776
 Frc consts  --      1.1018                 1.1100                 1.7064
 IR Inten    --      3.7002                 5.6650                10.3203

                     49                     50                     51
                      A                      A                      A
 Frequencies --   1285.1149              1299.0946              1308.4305
 Red. masses --      1.1502                 1.3841                 1.5218
 Frc consts  --      1.1192                 1.3763                 1.5350
 IR Inten    --      1.6810                 9.4974                15.5262

                     52                     53                     54
                      A                      A                      A
 Frequencies --   1323.4847              1340.5804              1347.3581
 Red. masses --      1.5510                 1.5254                 1.4331
 Frc consts  --      1.6007                 1.6152                 1.5328
 IR Inten    --      0.0266                 3.1094                13.4160

                     55                     56                     57
                      A                      A                      A
 Frequencies --   1367.5258              1368.2897              1386.2688
 Red. masses --      1.4258                 1.3686                 1.4294
 Frc consts  --      1.5710                 1.5097                 1.6184
 IR Inten    --      5.5075                 6.0532                 3.3803

                     58                     59                     60
                      A                      A                      A
 Frequencies --   1394.5541              1410.6368              1418.4540
 Red. masses --      1.4217                 1.5690                 1.4312
 Frc consts  --      1.6290                 1.8395                 1.6966
 IR Inten    --     17.1825                21.7611                12.9633

                     61                     62                     63
                      A                      A                      A
 Frequencies --   1428.9197              1437.0710              1474.0027
 Red. masses --      1.3008                 1.3600                 1.1899
 Frc consts  --      1.5649                 1.6548                 1.5232
 IR Inten    --      7.5261                 5.9920                 0.7442

                     64                     65                     66
                      A                      A                      A
 Frequencies --   1489.3406              1502.3980              1510.3412
 Red. masses --      1.2720                 1.0575                 1.0783
 Frc consts  --      1.6624                 1.4063                 1.4492
 IR Inten    --      7.1533                 2.4694                 0.5546

                     67                     68                     69
                      A                      A                      A
 Frequencies --   1516.2205              1523.6997              1528.6427
 Red. masses --      1.0861                 1.0983                 1.1062
 Frc consts  --      1.4712                 1.5023                 1.5230
 IR Inten    --      9.5463                 2.5034                 5.6882

                     70                     71                     72
                      A                      A                      A
 Frequencies --   1536.2856              1540.7776              1552.9790
 Red. masses --      1.0687                 1.0874                 1.0900
 Frc consts  --      1.4861                 1.5209                 1.5489
 IR Inten    --     14.0801                 7.2098                 1.9811

                     73                     74                     75
                      A                      A                      A
 Frequencies --   1737.1165              2907.1532              2943.2072
 Red. masses --      4.8853                 1.0728                 1.0725
 Frc consts  --      8.6855                 5.3418                 5.4737
 IR Inten    --     17.0365                80.8527                70.5374

                     76                     77                     78
                      A                      A                      A
 Frequencies --   3021.6518              3026.5825              3030.6545
 Red. masses --      1.0686                 1.0858                 1.0462
 Frc consts  --      5.7486                 5.8603                 5.6615
 IR Inten    --     62.5621                33.6178                30.4380

                     79                     80                     81
                      A                      A                      A
 Frequencies --   3040.0268              3053.6948              3065.8729
 Red. masses --      1.0623                 1.0606                 1.0655
 Frc consts  --      5.7842                 5.8270                 5.9007
 IR Inten    --     35.7342                18.6753                34.2284

                     82                     83                     84
                      A                      A                      A
 Frequencies --   3073.7139              3080.7091              3083.6018
 Red. masses --      1.0882                 1.0848                 1.0919
 Frc consts  --      6.0573                 6.0660                 6.1170
 IR Inten    --     11.7745                83.6666                17.5222

                     85                     86                     87
                      A                      A                      A
 Frequencies --   3088.1237              3089.0118              3092.8409
 Red. masses --      1.1004                 1.1027                 1.0916
 Frc consts  --      6.1829                 6.1995                 6.1519
 IR Inten    --     32.1141                26.1866                17.2969

                     88                     89                     90
                      A                      A                      A
 Frequencies --   3093.8174              3115.6390              3129.3122
 Red. masses --      1.0918                 1.1054                 1.1032
 Frc consts  --      6.1573                 6.3222                 6.3652
 IR Inten    --     56.8914                47.2863                17.2610

                     91                     92                     93
                      A                      A                      A
 Frequencies --   3153.2913              3228.9187              3499.0417
 Red. masses --      1.0600                 1.1157                 1.0749
 Frc consts  --      6.2097                 6.8535                 7.7537
 IR Inten    --     12.3468                22.2557                 0.8976

 - Thermochemistry -
 -------------------
 Temperature   298.150 Kelvin.  Pressure   1.00000 Atm.
 Atom     1 has atomic number  6 and mass  12.00000

 Molecular mass:   180.16265 amu.
 Principal axes and moments of inertia in atomic units:
                           1         2         3
     Eigenvalues --  1103.607153748.921783980.69750
           X            0.99995  -0.00964   0.00099
           Y            0.00964   0.99995  -0.00185
           Z           -0.00097   0.00186   1.00000
 This molecule is an asymmetric top.
 Rotational symmetry number  1.
 Warning -- assumption of classical behavior for rotation
           may cause significant error
 Rotational temperatures (Kelvin)      0.07848     0.02310     0.02176
 Rotational constants (GHZ):           1.63531     0.48140     0.45337
 Zero-point vibrational energy     796784.4 (Joules/Mol)
                                  190.43605 (Kcal/Mol)
 Warning -- explicit consideration of  18 degrees of freedom as
           vibrations may cause significant error
 Vibrational temperatures:     60.49    70.95    91.68   162.50   250.62
          (Kelvin)            268.36   325.59   399.58   436.02   473.95
                              542.32   562.52   612.48   624.58   651.47
                              740.77   803.22   841.85   972.05  1056.45
                             1092.34  1135.33  1140.92  1191.27  1207.86
                             1225.49  1305.64  1316.51  1324.62  1355.44
                             1369.97  1403.50  1427.59  1464.30  1485.09
                             1501.81  1537.16  1556.28  1576.30  1591.65
                             1598.76  1623.81  1668.17  1706.77  1730.03
                             1760.39  1804.99  1836.47  1848.99  1869.11
                             1882.54  1904.20  1928.80  1938.55  1967.56
                             1968.66  1994.53  2006.45  2029.59  2040.84
                             2055.90  2067.62  2120.76  2142.83  2161.62
                             2173.04  2181.50  2192.26  2199.38  2210.37
                             2216.84  2234.39  2499.32  4182.74  4234.62
                             4347.48  4354.58  4360.44  4373.92  4393.59
                             4411.11  4422.39  4432.45  4436.62  4443.12
                             4444.40  4449.91  4451.31  4482.71  4502.38
                             4536.88  4645.69  5034.34

 Zero-point correction=                           0.303479 (Hartree/Particle)
 Thermal correction to Energy=                    0.316027
 Thermal correction to Enthalpy=                  0.316971
 Thermal correction to Gibbs Free Energy=         0.264200
 Sum of electronic and zero-point Energies=           -540.432164
 Sum of electronic and thermal Energies=              -540.419617
 Sum of electronic and thermal Enthalpies=            -540.418672
 Sum of electronic and thermal Free Energies=         -540.471444

                     E (Thermal)             CV                S
                      KCal/Mol        Cal/Mol-Kelvin    Cal/Mol-Kelvin
 Total                  198.310             49.828            111.066
 Electronic               0.000              0.000              0.000
 Translational            0.889              2.981             41.473
 Rotational               0.889              2.981             31.177
 Vibrational            196.533             43.866             38.417
 Vibration     1          0.595              1.980              5.160
 Vibration     2          0.595              1.978              4.845
 Vibration     3          0.597              1.972              4.338
 Vibration     4          0.607              1.939              3.218
 Vibration     5          0.627              1.874              2.390
 Vibration     6          0.632              1.858              2.262
 Vibration     7          0.650              1.801              1.908
 Vibration     8          0.679              1.715              1.548
 Vibration     9          0.694              1.668              1.400
 Vibration    10          0.712              1.617              1.263
 Vibration    11          0.747              1.519              1.051
 Vibration    12          0.759              1.489              0.996
 Vibration    13          0.788              1.414              0.873
 Vibration    14          0.795              1.396              0.845
 Vibration    15          0.811              1.355              0.787
 Vibration    16          0.870              1.217              0.622
 Vibration    17          0.914              1.122              0.527
 Vibration    18          0.942              1.064              0.476

 Optimization completed.
    -- Stationary point found.
 Normal termination of Gaussian 16 at Wed Dec  9 22:42:11 2020.

 ----------------------------------------------------------------------
 # B3LYP/6-311++G(d,p) empiricaldispersion=gd3bj scf=xqc pop=npa geom=c
 heck
 ----------------------------------------------------------------------

 ---------------------------------------
 CID_131050512_JID_3243_Energie_neutraal
 ---------------------------------------
 Structure from the checkpoint file:  "JID_3243.chk"
 Charge =  0 Multiplicity = 1

 SCF Done:  E(RB3LYP) =  -540.884771600     A.U. after   14 cycles
 Normal termination of Gaussian 16 at Wed Dec  9 22:47:28 2020.

 ----------------------------------------------------------------------
 # B3LYP/6-311++G(d,p) empiricaldispersion=gd3bj scf=xqc pop=npa geom=c
 heck
 ----------------------------------------------------------------------

 -------------------------------------
 CID_131050512_JID_3243_Energie_kation
 -------------------------------------
 Structure from the checkpoint file:  "JID_3243.chk"
 Charge =  1 Multiplicity = 2

 SCF Done:  E(UB3LYP) =  -540.607801468     A.U. after   33 cycles
 SCF Done:  E(UB3LYP) =  -540.607801468     a.u. after    1 cycles
 Normal termination of Gaussian 16 at Wed Dec  9 23:04:38 2020.
 Gaussian 16:  ES64L-G16RevA.03 25-Dec-2016

 ----------------------------------------------------------------------
 # B3LYP/6-311++G(d,p) empiricaldispersion=gd3bj scf=xqc pop=npa geom=c
 heck
 ----------------------------------------------------------------------

 ------------------------------------
 CID_131050512_JID_3243_Energie_anion
 ------------------------------------
 Structure from the checkpoint file:  "JID_3243.chk"
 Charge = -1 Multiplicity = 2

                         Standard orientation:
 ---------------------------------------------------------------------
 Center     Atomic      Atomic             Coordinates (Angstroms)
 Number     Number       Type             X           Y           Z
 ---------------------------------------------------------------------
      1          6           0       -2.559215    1.560988    0.233610
      2          6           0       -3.038648    0.143042    0.062360
      3          6           0       -4.135678   -0.154746   -0.641077
      4          6           0       -2.212956   -0.945606    0.713288
      5          6           0       -0.923051   -1.305670   -0.050049
      6          7           0        0.048125   -0.224170   -0.090352
      7          6           0        0.633978    0.088274    1.225067
      8          6           0        2.088433    0.550344    1.014569
      9          6           0        2.930319   -0.654521    0.564738
     10          6           0        2.222227   -1.320494   -0.646766
     11          6           0        1.100994   -0.367456   -1.109146
     12          6           0        1.704915    1.027272   -1.329201
     13          7           0        2.170862    1.581209   -0.033599
     14          1           0       -3.222375    2.275745   -0.263600
     15          1           0       -1.546136    1.661944   -0.170871
     16          1           0       -2.506754    1.826988    1.298736
     17          1           0       -4.480159   -1.179789   -0.757238
     18          1           0       -4.728844    0.615073   -1.128406
     19          1           0       -1.953513   -0.657442    1.741272
     20          1           0       -2.809829   -1.862114    0.788355
     21          1           0       -0.500213   -2.222040    0.410307
     22          1           0       -1.192957   -1.557181   -1.082061
     23          1           0        0.046812    0.874141    1.720742
     24          1           0        0.619451   -0.793137    1.893587
     25          1           0        2.484895    0.970671    1.944838
     26          1           0        3.929709   -0.299223    0.294887
     27          1           0        3.041158   -1.359903    1.395388
     28          1           0        1.791052   -2.289556   -0.370920
     29          1           0        2.925362   -1.506719   -1.466293
     30          1           0        0.632691   -0.725923   -2.031246
     31          1           0        0.955471    1.689593   -1.774358
     32          1           0        2.548114    0.956513   -2.031220
     33          1           0        1.565262    2.354536    0.231404
 ---------------------------------------------------------------------

 SCF Done:  E(UB3LYP) =  -540.871195612     A.U. after   32 cycles

 The electronic state is 2-A.
 Alpha  occ. eigenvalues --  -14.19597 -14.19032 -10.09403 -10.09260 -10.09070
 Alpha  occ. eigenvalues --  -10.08453 -10.08241 -10.08088 -10.06808 -10.06052
 Alpha  occ. eigenvalues --  -10.06025 -10.05642 -10.05471  -0.84460  -0.78450
 Alpha  occ. eigenvalues --   -0.71164  -0.67456  -0.66345  -0.62879  -0.58276
 Alpha  occ. eigenvalues --   -0.56177  -0.52784  -0.51743  -0.49615  -0.42954
 Alpha  occ. eigenvalues --   -0.42179  -0.40415  -0.38523  -0.37654  -0.35951
 Alpha  occ. eigenvalues --   -0.34928  -0.32857  -0.32306  -0.31060  -0.30319
 Alpha  occ. eigenvalues --   -0.30025  -0.29133  -0.28802  -0.27894  -0.27637
 Alpha  occ. eigenvalues --   -0.26709  -0.25170  -0.24416  -0.24142  -0.22389
 Alpha  occ. eigenvalues --   -0.21218  -0.21047  -0.15235  -0.11987  -0.10547
 Alpha  occ. eigenvalues --    0.04421
 Alpha virt. eigenvalues --    0.07014   0.07190   0.07313   0.08881   0.09016
 Alpha virt. eigenvalues --    0.09224   0.09757   0.09955   0.10714   0.11182
 Alpha virt. eigenvalues --    0.11326   0.12088   0.12320   0.12896   0.13437

  Beta  occ. eigenvalues --  -14.19594 -14.19021 -10.09397 -10.09250 -10.09050
  Beta  occ. eigenvalues --  -10.08438 -10.08215 -10.08085 -10.06793 -10.06030
  Beta  occ. eigenvalues --  -10.06006 -10.05616 -10.05448  -0.84437  -0.78425
  Beta  occ. eigenvalues --   -0.71137  -0.67421  -0.66311  -0.62843  -0.58229
  Beta  occ. eigenvalues --   -0.56135  -0.52730  -0.51703  -0.49563  -0.42897
  Beta  occ. eigenvalues --   -0.42124  -0.40371  -0.38476  -0.37629  -0.35923
  Beta  occ. eigenvalues --   -0.34895  -0.32821  -0.32271  -0.31028  -0.30291
  Beta  occ. eigenvalues --   -0.29995  -0.29094  -0.28764  -0.27862  -0.27602
  Beta  occ. eigenvalues --   -0.26684  -0.25142  -0.24386  -0.24115  -0.22358
  Beta  occ. eigenvalues --   -0.21186  -0.21005  -0.15175  -0.11966  -0.10509
  Beta virt. eigenvalues --    0.06553   0.07547   0.07936   0.08005   0.09223
  Beta virt. eigenvalues --    0.09311   0.09610   0.10321   0.10473   0.10943
  Beta virt. eigenvalues --    0.11470   0.11622   0.12453   0.12573   0.13293

 Mulliken charges and spin densities:
               1          2
     1  C    0.391439  -1.081622
     2  C   -0.720810   1.690886
     3  C    0.728925  -1.528989
     4  C   -0.353914  -0.089575
     5  C    0.496481  -0.812959
     6  N    0.305069  -0.080765
     7  C   -0.021528  -0.889652
     8  C    0.306540   0.028849
     9  C    0.213512  -0.767990
    10  C    0.996485  -1.572276
    11  C   -1.511560   1.881338
    12  C    0.689441  -1.371301
    13  N   -0.118495  -0.025363
    14  H   -0.042443   0.176355
    15  H    0.203548   0.004959
    16  H   -0.299700   0.449180
    17  H    0.031985   0.077759
    18  H   -0.038273   0.141714
    19  H   -0.004718   0.143105
    20  H   -0.438927   0.644942
    21  H   -0.003916   0.102736
    22  H   -0.041898   0.183947
    23  H   -0.045712   0.222559
    24  H   -0.327164   0.475511
    25  H   -0.542953   0.794659
    26  H    0.151965   0.013324
    27  H   -0.236706   0.376829
    28  H   -0.127041   0.273020
    29  H   -0.287125   0.439266
    30  H   -0.262361   0.485918
    31  H   -0.063779   0.201379
    32  H   -0.081917   0.233140
    33  H    0.055549   0.179117
 Sum of Mulliken charges =  -1.00000   1.00000

 Dipole moment (field-independent basis, Debye):
    X=             -0.8665    Y=              0.3605    Z=             -2.0754  Tot=              2.2777
 Quadrupole moment (field-independent basis, Debye-Ang):
   XX=           -145.4646   YY=           -125.6704   ZZ=           -122.8827
   XY=              0.0458   XZ=              0.5636   YZ=             -1.1454

 Summary of Natural Population Analysis:

                                       Natural Population
                Natural  -----------------------------------------------
    Atom  No    Charge         Core      Valence    Rydberg      Total
 -----------------------------------------------------------------------
      C    1   -0.30444      0.99961     2.29812    0.00672     3.30444
      C    2    0.01024      0.99953     1.98016    0.01007     2.98976
      C    3   -0.20622      0.99948     2.20056    0.00617     3.20622
      C    4   -0.20728      0.99957     2.19763    0.01008     3.20728
      C    5   -0.07354      0.99960     2.06222    0.01172     3.07354
      N    6   -0.29598      0.99971     2.78266    0.01362     3.79598
      C    7   -0.09404      0.99959     2.08150    0.01294     3.09404
      C    8   -0.01672      0.99959     2.00275    0.01439     3.01672
      C    9   -0.19462      0.99962     2.18626    0.00875     3.19462
      C   10   -0.20269      0.99961     2.19424    0.00883     3.20269
      C   11   -0.00953      0.99958     1.99595    0.01399     3.00953
      C   12   -0.08802      0.99959     2.07720    0.01123     3.08802
      N   13   -0.34216      0.99975     2.83050    0.01190     3.84216
      H   14    0.09704      0.00000     0.40191    0.00105     0.40296
      H   15    0.11504      0.00000     0.38288    0.00208     0.38496
      H   16    0.10227      0.00000     0.39631    0.00142     0.39773
      H   17    0.09086      0.00000     0.40799    0.00114     0.40914
      H   18    0.08969      0.00000     0.40924    0.00107     0.41031
      H   19    0.10206      0.00000     0.39620    0.00174     0.39794
      H   20    0.10228      0.00000     0.39650    0.00122     0.39772
      H   21    0.08232      0.00000     0.41584    0.00184     0.41768
      H   22    0.09497      0.00000     0.40324    0.00179     0.40503
      H   23    0.09525      0.00000     0.40264    0.00211     0.40475
      H   24    0.08855      0.00000     0.40928    0.00216     0.41145
      H   25    0.10165      0.00000     0.39678    0.00157     0.39835
      H   26    0.10139      0.00000     0.39735    0.00126     0.39861
      H   27    0.10173      0.00000     0.39697    0.00130     0.39827
      H   28    0.10117      0.00000     0.39741    0.00142     0.39883
      H   29    0.09986      0.00000     0.39884    0.00130     0.40014
      H   30    0.10333      0.00000     0.39531    0.00137     0.39667
      H   31    0.09514      0.00000     0.40327    0.00158     0.40486
      H   32    0.08616      0.00000     0.41233    0.00151     0.41384
      H   33    0.17423      0.00000     0.32258    0.00319     0.32577
 =======================================================================
   * Total *   -0.00000     12.99483    36.83264    0.17253    50.00000

 Normal termination of Gaussian 16 at Wed Dec  9 23:20:46 2020.
