 Gaussian 16, Revision A.03,

 -----------------------------------------------------------
 # opt freq B3LYP/6-31G(d) empiricaldispersion=gd3bj scf=xqc
 -----------------------------------------------------------

 -------------------------------
 CID_102101689_JID_5148_neutraal
 -------------------------------
 Symbolic Z-matrix:
 Charge =  0 Multiplicity = 1

 SCF Done:  E(RB3LYP) =  -652.913735124     A.U. after   15 cycles
 SCF Done:  E(RB3LYP) =  -652.917846816     A.U. after   12 cycles
 SCF Done:  E(RB3LYP) =  -652.914523633     A.U. after   13 cycles
 SCF Done:  E(RB3LYP) =  -652.919541730     A.U. after   12 cycles
 SCF Done:  E(RB3LYP) =  -652.920207301     A.U. after   12 cycles
 SCF Done:  E(RB3LYP) =  -652.920570817     A.U. after   11 cycles
 SCF Done:  E(RB3LYP) =  -652.920644112     A.U. after   11 cycles
 SCF Done:  E(RB3LYP) =  -652.920742367     A.U. after   12 cycles
 SCF Done:  E(RB3LYP) =  -652.920807517     A.U. after   10 cycles
 SCF Done:  E(RB3LYP) =  -652.920854414     A.U. after   12 cycles
 SCF Done:  E(RB3LYP) =  -652.920906477     A.U. after    9 cycles
 SCF Done:  E(RB3LYP) =  -652.920907363     A.U. after    8 cycles
 SCF Done:  E(RB3LYP) =  -652.920908192     A.U. after    8 cycles
 SCF Done:  E(RB3LYP) =  -652.920908701     A.U. after    8 cycles
 SCF Done:  E(RB3LYP) =  -652.920908770     A.U. after    7 cycles
 Optimization completed.
    -- Stationary point found.
 Normal termination of Gaussian 16 at Thu Dec 10 14:54:06 2020.

 --------------------------------------------------------------------
 #N Geom=AllCheck Guess=TCheck SCRF=Check GenChk RB3LYP/6-31G(d) Freq
 --------------------------------------------------------------------

 Structure from the checkpoint file:  "JID_5148.chk"
 -------------------------------
 CID_102101689_JID_5148_neutraal
 -------------------------------
 Charge =  0 Multiplicity = 1

 SCF Done:  E(RB3LYP) =  -652.920908770     A.U. after    1 cycles

  Exact polarizability: 187.682  -1.522 137.837  13.542   0.842  94.464
 Approx polarizability: 249.880  -2.710 227.726  27.309   6.993 147.109

                      1                      2                      3
                      A                      A                      A
 Frequencies --     25.2022                35.0998                48.5410
 Red. masses --      3.2923                 3.6796                 4.0221
 Frc consts  --      0.0012                 0.0027                 0.0056
 IR Inten    --      0.4569                 0.0478                 0.3244

                      4                      5                      6
                      A                      A                      A
 Frequencies --     95.5555               148.8064               179.8325
 Red. masses --      5.0804                 3.9317                 3.9907
 Frc consts  --      0.0273                 0.0513                 0.0760
 IR Inten    --      5.3573                 4.1469                 0.8634

                      7                      8                      9
                      A                      A                      A
 Frequencies --    199.2546               240.7653               267.5866
 Red. masses --      3.7122                 1.0847                 2.1682
 Frc consts  --      0.0868                 0.0370                 0.0915
 IR Inten    --      1.7449                 0.1131                 1.0472

                     10                     11                     12
                      A                      A                      A
 Frequencies --    278.1922               291.1380               315.7629
 Red. masses --      2.3754                 1.1983                 1.2702
 Frc consts  --      0.1083                 0.0598                 0.0746
 IR Inten    --      2.1522                 0.5194                 0.6674

                     13                     14                     15
                      A                      A                      A
 Frequencies --    325.8440               352.6747               363.3024
 Red. masses --      2.1994                 1.2297                 3.2920
 Frc consts  --      0.1376                 0.0901                 0.2560
 IR Inten    --      1.5147                 1.0703                 3.2991

                     16                     17                     18
                      A                      A                      A
 Frequencies --    386.0297               395.9063               420.1154
 Red. masses --      2.5099                 2.6166                 2.9241
 Frc consts  --      0.2204                 0.2416                 0.3041
 IR Inten    --      1.6218                 1.0279                 0.3269

                     19                     20                     21
                      A                      A                      A
 Frequencies --    427.7396               455.6893               498.1660
 Red. masses --      3.6091                 2.4829                 3.2921
 Frc consts  --      0.3891                 0.3038                 0.4814
 IR Inten    --      0.2944                 7.9681                 1.4756

                     22                     23                     24
                      A                      A                      A
 Frequencies --    528.7958               581.5956               635.7980
 Red. masses --      3.1721                 3.3998                 6.2947
 Frc consts  --      0.5226                 0.6776                 1.4992
 IR Inten    --      4.8194                18.3793                 0.9284

                     25                     26                     27
                      A                      A                      A
 Frequencies --    639.8312               695.2230               704.9903
 Red. masses --      4.5973                 5.0559                 2.0277
 Frc consts  --      1.1089                 1.4398                 0.5938
 IR Inten    --     19.7938                10.9254                21.0329

                     28                     29                     30
                      A                      A                      A
 Frequencies --    764.7331               770.7855               818.8495
 Red. masses --      3.3866                 1.8067                 4.3150
 Frc consts  --      1.1669                 0.6324                 1.7047
 IR Inten    --     11.8055                44.8227                17.1026

                     31                     32                     33
                      A                      A                      A
 Frequencies --    832.8388               862.2419               898.5331
 Red. masses --      1.2561                 2.7426                 1.4438
 Frc consts  --      0.5133                 1.2014                 0.6868
 IR Inten    --      0.1763                34.8876                 4.1071

                     34                     35                     36
                      A                      A                      A
 Frequencies --    924.0650               934.1520               946.8766
 Red. masses --      2.1667                 1.7312                 1.7264
 Frc consts  --      1.0901                 0.8901                 0.9120
 IR Inten    --     36.5060                 0.1133                18.0798

                     37                     38                     39
                      A                      A                      A
 Frequencies --    957.1188               977.2259               984.3610
 Red. masses --      1.3263                 1.2105                 1.2383
 Frc consts  --      0.7159                 0.6811                 0.7069
 IR Inten    --      0.1823                 0.1553                 0.2150

                     40                     41                     42
                      A                      A                      A
 Frequencies --   1003.1748              1017.4132              1066.3687
 Red. masses --      2.1756                 5.6430                 1.5908
 Frc consts  --      1.2900                 3.4416                 1.0658
 IR Inten    --      8.3985                 0.5517                23.4240

                     43                     44                     45
                      A                      A                      A
 Frequencies --   1068.6479              1070.1773              1124.3983
 Red. masses --      1.8489                 1.5134                 1.7651
 Frc consts  --      1.2440                 1.0212                 1.3148
 IR Inten    --      2.0631                14.0470                 1.1455

                     46                     47                     48
                      A                      A                      A
 Frequencies --   1138.7424              1164.1519              1196.5631
 Red. masses --      2.1555                 1.2792                 1.1545
 Frc consts  --      1.6468                 1.0215                 0.9739
 IR Inten    --     88.1744                 2.7068                16.4497

                     49                     50                     51
                      A                      A                      A
 Frequencies --   1203.6772              1232.8295              1243.0768
 Red. masses --      2.5613                 1.1640                 2.2586
 Frc consts  --      2.1864                 1.0424                 2.0563
 IR Inten    --    190.3044                12.8276                43.6057

                     52                     53                     54
                      A                      A                      A
 Frequencies --   1259.9319              1273.6530              1310.0690
 Red. masses --      2.8048                 2.8148                 3.7820
 Frc consts  --      2.6233                 2.6903                 3.8244
 IR Inten    --     70.5299                20.6186                25.6202

                     55                     56                     57
                      A                      A                      A
 Frequencies --   1352.5866              1379.7590              1393.3573
 Red. masses --      4.4535                 2.1359                 2.3195
 Frc consts  --      4.8004                 2.3958                 2.6532
 IR Inten    --    123.7656                70.6198               297.8972

                     58                     59                     60
                      A                      A                      A
 Frequencies --   1427.0585              1429.0447              1455.3755
 Red. masses --      1.2515                 1.2445                 1.2349
 Frc consts  --      1.5016                 1.4974                 1.5411
 IR Inten    --     10.1298                 6.4962                12.8940

                     61                     62                     63
                      A                      A                      A
 Frequencies --   1480.4107              1493.8670              1507.4324
 Red. masses --      1.1905                 1.2423                 1.3696
 Frc consts  --      1.5372                 1.6335                 1.8337
 IR Inten    --     29.8318                 5.6012                 0.3164

                     64                     65                     66
                      A                      A                      A
 Frequencies --   1507.6533              1514.7623              1519.3301
 Red. masses --      1.5115                 1.0512                 1.0606
 Frc consts  --      2.0243                 1.4211                 1.4425
 IR Inten    --      1.1107                 1.2444                 9.1657

                     67                     68                     69
                      A                      A                      A
 Frequencies --   1530.5447              1538.7149              1541.8589
 Red. masses --      1.0576                 1.0725                 1.0993
 Frc consts  --      1.4597                 1.4962                 1.5398
 IR Inten    --      1.8091                17.3830                 4.6260

                     70                     71                     72
                      A                      A                      A
 Frequencies --   1550.0325              1555.5141              1558.2377
 Red. masses --      1.2614                 1.5432                 1.1167
 Frc consts  --      1.7856                 2.1999                 1.5976
 IR Inten    --     96.0790                34.6728                 7.9928

                     73                     74                     75
                      A                      A                      A
 Frequencies --   1643.8221              1667.9226              1779.4781
 Red. masses --      5.6301                 5.4537                 7.9296
 Frc consts  --      8.9634                 8.9392                14.7941
 IR Inten    --      7.4778                50.2099               282.7514

                     76                     77                     78
                      A                      A                      A
 Frequencies --   3041.1247              3046.6289              3051.3373
 Red. masses --      1.0453                 1.0363                 1.0356
 Frc consts  --      5.6958                 5.6674                 5.6812
 IR Inten    --     44.3019                20.6497                19.2912

                     79                     80                     81
                      A                      A                      A
 Frequencies --   3065.4468              3103.7075              3114.2825
 Red. masses --      1.0375                 1.0990                 1.1000
 Frc consts  --      5.7439                 6.2377                 6.2858
 IR Inten    --     12.3119                30.3995                13.9807

                     82                     83                     84
                      A                      A                      A
 Frequencies --   3120.6599              3125.7765              3127.4182
 Red. masses --      1.1021                 1.1029                 1.1021
 Frc consts  --      6.3236                 6.3487                 6.3509
 IR Inten    --     25.8039                23.6860                15.4914

                     85                     86                     87
                      A                      A                      A
 Frequencies --   3136.5889              3155.1674              3184.4369
 Red. masses --      1.1025                 1.1017                 1.0854
 Frc consts  --      6.3905                 6.4621                 6.4847
 IR Inten    --     48.4386                21.9862                 1.6788

                     88                     89                     90
                      A                      A                      A
 Frequencies --   3192.6882              3210.4992              3214.0462
 Red. masses --      1.0903                 1.0959                 1.0957
 Frc consts  --      6.5482                 6.6554                 6.6689
 IR Inten    --     21.7819                36.4481                 1.9679

                     91                     92                     93
                      A                      A                      A
 Frequencies --   3238.5634              3257.5281              3522.1444
 Red. masses --      1.0908                 1.0917                 1.0735
 Frc consts  --      6.7403                 6.8251                 7.8465
 IR Inten    --      9.6003                 2.4188                 6.7356

 - Thermochemistry -
 -------------------
 Temperature   298.150 Kelvin.  Pressure   1.00000 Atm.
 Atom     1 has atomic number  6 and mass  12.00000

 Molecular mass:   206.14191 amu.
 Principal axes and moments of inertia in atomic units:
                           1         2         3
     Eigenvalues --  1435.333545178.819955490.95762
           X            0.99997   0.00213  -0.00773
           Y           -0.00248   0.99891  -0.04655
           Z            0.00763   0.04656   0.99889
 This molecule is an asymmetric top.
 Rotational symmetry number  1.
 Warning -- assumption of classical behavior for rotation
           may cause significant error
 Rotational temperatures (Kelvin)      0.06034     0.01672     0.01577
 Rotational constants (GHZ):           1.25737     0.34849     0.32868
 Zero-point vibrational energy     755542.9 (Joules/Mol)
                                  180.57908 (Kcal/Mol)
 Warning -- explicit consideration of  23 degrees of freedom as
           vibrations may cause significant error
 Vibrational temperatures:     36.26    50.50    69.84   137.48   214.10
          (Kelvin)            258.74   286.68   346.41   385.00   400.26
                              418.88   454.31   468.82   507.42   522.71
                              555.41   569.62   604.45   615.42   655.64
                              716.75   760.82   836.79   914.77   920.57
                             1000.27  1014.32  1100.28  1108.99  1178.14
                             1198.27  1240.57  1292.79  1329.52  1344.04
                             1362.34  1377.08  1406.01  1416.28  1443.34
                             1463.83  1534.27  1537.55  1539.75  1617.76
                             1638.40  1674.95  1721.59  1731.82  1773.77
                             1788.51  1812.76  1832.50  1884.90  1946.07
                             1985.17  2004.73  2053.22  2056.08  2093.96
                             2129.98  2149.34  2168.86  2169.18  2179.41
                             2185.98  2202.11  2213.87  2218.39  2230.15
                             2238.04  2241.96  2365.09  2399.77  2560.27
                             4375.50  4383.42  4390.19  4410.49  4465.54
                             4480.76  4489.93  4497.30  4499.66  4512.85
                             4539.58  4581.69  4593.57  4619.19  4624.30
                             4659.57  4686.86  5067.58

 Zero-point correction=                           0.287771 (Hartree/Particle)
 Thermal correction to Energy=                    0.302772
 Thermal correction to Enthalpy=                  0.303716
 Thermal correction to Gibbs Free Energy=         0.245255
 Sum of electronic and zero-point Energies=           -652.633138
 Sum of electronic and thermal Energies=              -652.618137
 Sum of electronic and thermal Enthalpies=            -652.617193
 Sum of electronic and thermal Free Energies=         -652.675653

                     E (Thermal)             CV                S
                      KCal/Mol        Cal/Mol-Kelvin    Cal/Mol-Kelvin
 Total                  189.992             58.488            123.041
 Electronic               0.000              0.000              0.000
 Translational            0.889              2.981             41.874
 Rotational               0.889              2.981             32.079
 Vibrational            188.215             52.527             49.088
 Vibration     1          0.593              1.985              6.175
 Vibration     2          0.594              1.982              5.518
 Vibration     3          0.595              1.978              4.876
 Vibration     4          0.603              1.952              3.543
 Vibration     5          0.618              1.904              2.687
 Vibration     6          0.629              1.867              2.330
 Vibration     7          0.637              1.841              2.140
 Vibration     8          0.658              1.778              1.797
 Vibration     9          0.673              1.733              1.612
 Vibration    10          0.679              1.714              1.545
 Vibration    11          0.687              1.690              1.467
 Vibration    12          0.703              1.644              1.332
 Vibration    13          0.710              1.624              1.281
 Vibration    14          0.729              1.570              1.154
 Vibration    15          0.737              1.548              1.108
 Vibration    16          0.755              1.500              1.015
 Vibration    17          0.763              1.479              0.978
 Vibration    18          0.783              1.427              0.892
 Vibration    19          0.789              1.410              0.866
 Vibration    20          0.814              1.348              0.779
 Vibration    21          0.854              1.254              0.663
 Vibration    22          0.884              1.186              0.590
 Vibration    23          0.938              1.071              0.482

 Optimization completed.
    -- Stationary point found.
 Normal termination of Gaussian 16 at Thu Dec 10 15:04:34 2020.

 ----------------------------------------------------------------------
 # B3LYP/6-311++G(d,p) empiricaldispersion=gd3bj scf=xqc pop=npa geom=c
 heck
 ----------------------------------------------------------------------

 ---------------------------------------
 CID_102101689_JID_5148_Energie_neutraal
 ---------------------------------------
 Structure from the checkpoint file:  "JID_5148.chk"
 Charge =  0 Multiplicity = 1

 SCF Done:  E(RB3LYP) =  -653.103843181     A.U. after   15 cycles
 Normal termination of Gaussian 16 at Thu Dec 10 15:09:04 2020.

 ----------------------------------------------------------------------
 # B3LYP/6-311++G(d,p) empiricaldispersion=gd3bj scf=xqc pop=npa geom=c
 heck
 ----------------------------------------------------------------------

 -------------------------------------
 CID_102101689_JID_5148_Energie_kation
 -------------------------------------
 Structure from the checkpoint file:  "JID_5148.chk"
 Charge =  1 Multiplicity = 2

 SCF Done:  E(UB3LYP) =  -652.820739537     A.U. after   27 cycles
 Normal termination of Gaussian 16 at Thu Dec 10 15:22:23 2020.
 Gaussian 16:  ES64L-G16RevA.03 25-Dec-2016

 ----------------------------------------------------------------------
 # B3LYP/6-311++G(d,p) empiricaldispersion=gd3bj scf=xqc pop=npa geom=c
 heck
 ----------------------------------------------------------------------

 ------------------------------------
 CID_102101689_JID_5148_Energie_anion
 ------------------------------------
 Structure from the checkpoint file:  "JID_5148.chk"
 Charge = -1 Multiplicity = 2

                         Standard orientation:
 ---------------------------------------------------------------------
 Center     Atomic      Atomic             Coordinates (Angstroms)
 Number     Number       Type             X           Y           Z
 ---------------------------------------------------------------------
      1          6           0       -2.294198    0.961863    1.442839
      2          6           0       -2.665528   -0.134905    0.439036
      3          6           0       -2.237489   -1.507509    0.988672
      4          6           0       -4.181463   -0.109224    0.202910
      5          7           0       -2.049213    0.100671   -0.909944
      6          6           0       -0.689276   -0.194859   -1.120699
      7          8           0       -0.338347   -1.116039   -1.842946
      8          7           0        0.206231    0.662175   -0.465225
      9          6           0       -0.068340    2.099061   -0.482467
     10          6           0        1.525837    0.236621   -0.163761
     11          6           0        2.542395    1.178841    0.054208
     12          6           0        3.823560    0.769052    0.428509
     13          6           0        4.118951   -0.579712    0.596774
     14          6           0        3.107076   -1.520160    0.387195
     15          6           0        1.827422   -1.126633    0.015410
     16          1           0       -2.825134    0.782218    2.383865
     17          1           0       -2.582933    1.950249    1.073252
     18          1           0       -1.223444    0.962273    1.658299
     19          1           0       -2.759852   -1.729519    1.925971
     20          1           0       -2.462866   -2.303781    0.271052
     21          1           0       -1.161057   -1.527716    1.190325
     22          1           0       -4.488107    0.850006   -0.226712
     23          1           0       -4.488423   -0.908870   -0.482543
     24          1           0       -4.716505   -0.255461    1.146456
     25          1           0       -2.548389   -0.469855   -1.588455
     26          1           0        0.121286    2.547161    0.497825
     27          1           0        0.562077    2.601290   -1.227255
     28          1           0       -1.110326    2.246284   -0.751473
     29          1           0        2.350142    2.237593   -0.062459
     30          1           0        4.590679    1.521962    0.587663
     31          1           0        5.116487   -0.896206    0.886120
     32          1           0        3.313694   -2.579243    0.514908
     33          1           0        1.066641   -1.874610   -0.158837
 ---------------------------------------------------------------------

 SCF Done:  E(UB3LYP) =  -653.091221280     A.U. after   33 cycles
 SCF Done:  E(UB3LYP) =  -653.091221280     a.u. after    1 cycles

 The electronic state is 2-A.
 Alpha  occ. eigenvalues --  -19.00395 -14.25958 -14.22718 -10.20707 -10.13001
 Alpha  occ. eigenvalues --  -10.12902 -10.10602 -10.08513 -10.08471 -10.08142
 Alpha  occ. eigenvalues --  -10.08006 -10.07959 -10.06846 -10.06669 -10.06209
 Alpha  occ. eigenvalues --   -0.96624  -0.85986  -0.82412  -0.75921  -0.69817
 Alpha  occ. eigenvalues --   -0.66080  -0.65716  -0.61274  -0.60140  -0.59685
 Alpha  occ. eigenvalues --   -0.54584  -0.51538  -0.49028  -0.46718  -0.42708
 Alpha  occ. eigenvalues --   -0.41383  -0.39875  -0.38984  -0.36618  -0.36523
 Alpha  occ. eigenvalues --   -0.35468  -0.34703  -0.33757  -0.33651  -0.33260
 Alpha  occ. eigenvalues --   -0.31302  -0.30366  -0.29403  -0.29280  -0.28259
 Alpha  occ. eigenvalues --   -0.27672  -0.27612  -0.27370  -0.25692  -0.25202
 Alpha  occ. eigenvalues --   -0.24442  -0.20870  -0.19574  -0.16543  -0.15601
 Alpha  occ. eigenvalues --   -0.12686   0.04183
 Alpha virt. eigenvalues --    0.05864   0.06680   0.06889   0.07720   0.07880
 Alpha virt. eigenvalues --    0.07985   0.08445   0.09527   0.09749   0.10050
 Alpha virt. eigenvalues --    0.10508   0.11131   0.11337   0.12259   0.12561

  Beta  occ. eigenvalues --  -19.00387 -14.25954 -14.22703 -10.20703 -10.12997
  Beta  occ. eigenvalues --  -10.12902 -10.10564 -10.08507 -10.08459 -10.08127
  Beta  occ. eigenvalues --  -10.08000 -10.07956 -10.06804 -10.06640 -10.06172
  Beta  occ. eigenvalues --   -0.96612  -0.85972  -0.82395  -0.75906  -0.69790
  Beta  occ. eigenvalues --   -0.66057  -0.65696  -0.61225  -0.60075  -0.59626
  Beta  occ. eigenvalues --   -0.54560  -0.51507  -0.48983  -0.46681  -0.42669
  Beta  occ. eigenvalues --   -0.41345  -0.39843  -0.38955  -0.36592  -0.36496
  Beta  occ. eigenvalues --   -0.35440  -0.34667  -0.33735  -0.33617  -0.33232
  Beta  occ. eigenvalues --   -0.31273  -0.30330  -0.29358  -0.29245  -0.28239
  Beta  occ. eigenvalues --   -0.27638  -0.27581  -0.27342  -0.25670  -0.25166
  Beta  occ. eigenvalues --   -0.24403  -0.20853  -0.19545  -0.16528  -0.15579
  Beta  occ. eigenvalues --   -0.12674
  Beta virt. eigenvalues --    0.06224   0.06701   0.06845   0.07494   0.07767
  Beta virt. eigenvalues --    0.08413   0.08640   0.09010   0.10046   0.10145
  Beta virt. eigenvalues --    0.10630   0.10823   0.11337   0.11578   0.12464

 Mulliken charges and spin densities:
               1          2
     1  C    0.873500  -1.346808
     2  C   -1.854043   1.820467
     3  C    0.935441  -1.412237
     4  C    0.647060  -1.054265
     5  N   -0.005522   0.006818
     6  C   -0.059620  -0.301828
     7  O   -0.242255   0.013486
     8  N    0.172163   0.141581
     9  C    0.609281  -1.014169
    10  C    0.537723  -0.498438
    11  C   -1.044898   0.754222
    12  C    0.457995  -0.660226
    13  C    0.224382  -0.683161
    14  C   -1.051734   0.577569
    15  C    0.811193  -0.385266
    16  H   -0.245574   0.410174
    17  H   -0.231349   0.374995
    18  H    0.067301   0.098382
    19  H   -0.186995   0.362737
    20  H   -0.003048   0.162853
    21  H   -0.043127   0.167491
    22  H   -0.211209   0.381860
    23  H   -0.341597   0.473111
    24  H   -0.196668   0.348172
    25  H    0.255705   0.033879
    26  H   -0.311591   0.487774
    27  H   -0.147217   0.301325
    28  H    0.018843   0.175061
    29  H   -0.203594   0.359426
    30  H   -0.447072   0.627799
    31  H   -0.029473   0.158268
    32  H   -0.010160   0.181952
    33  H    0.256159  -0.063006
 Sum of Mulliken charges =  -1.00000   1.00000

 Dipole moment (field-independent basis, Debye):
    X=              2.5356    Y=             -2.5613    Z=             -1.4469  Tot=              3.8837
 Quadrupole moment (field-independent basis, Debye-Ang):
   XX=           -174.3004   YY=           -135.9328   ZZ=           -131.5576
   XY=             -5.1868   XZ=              7.1056   YZ=             -3.8479

 Summary of Natural Population Analysis:

                                       Natural Population
                Natural  -----------------------------------------------
    Atom  No    Charge         Core      Valence    Rydberg      Total
 -----------------------------------------------------------------------
      C    1   -0.29122      0.99960     2.28385    0.00776     3.29122
      C    2    0.05669      0.99958     1.93018    0.01356     2.94331
      C    3   -0.29463      0.99961     2.28796    0.00706     3.29463
      C    4   -0.28692      0.99961     2.27980    0.00751     3.28692
      N    5   -0.34848      0.99967     2.83776    0.01106     3.84848
      C    6    0.42269      0.99967     1.55300    0.02464     2.57731
      O    7   -0.31608      0.99987     3.31117    0.00504     4.31608
      N    8   -0.26248      0.99961     2.75219    0.01068     3.76248
      C    9   -0.18081      0.99963     2.17267    0.00851     3.18081
      C   10    0.09075      0.99947     1.89773    0.01205     2.90925
      C   11   -0.12222      0.99953     2.11335    0.00934     3.12222
      C   12   -0.09469      0.99957     2.08457    0.01055     3.09469
      C   13   -0.11668      0.99956     2.10748    0.00964     3.11668
      C   14   -0.09719      0.99957     2.08831    0.00932     3.09719
      C   15   -0.10698      0.99953     2.09971    0.00775     3.10698
      H   16    0.10471      0.00000     0.39400    0.00129     0.39529
      H   17    0.10405      0.00000     0.39447    0.00148     0.39595
      H   18    0.10418      0.00000     0.39412    0.00171     0.39582
      H   19    0.10492      0.00000     0.39407    0.00100     0.39508
      H   20    0.10221      0.00000     0.39680    0.00099     0.39779
      H   21    0.10175      0.00000     0.39692    0.00134     0.39825
      H   22    0.10517      0.00000     0.39350    0.00133     0.39483
      H   23    0.09819      0.00000     0.40051    0.00130     0.40181
      H   24    0.10614      0.00000     0.39235    0.00151     0.39386
      H   25    0.18736      0.00000     0.31026    0.00238     0.31264
      H   26    0.09935      0.00000     0.39895    0.00170     0.40065
      H   27    0.09486      0.00000     0.40382    0.00132     0.40514
      H   28    0.11537      0.00000     0.38301    0.00162     0.38463
      H   29    0.10764      0.00000     0.39083    0.00153     0.39236
      H   30    0.10141      0.00000     0.39742    0.00117     0.39859
      H   31    0.09939      0.00000     0.39979    0.00082     0.40061
      H   32    0.09905      0.00000     0.40018    0.00076     0.40095
      H   33    0.11253      0.00000     0.38603    0.00144     0.38747
 =======================================================================
   * Total *    0.00000     14.99407    40.82675    0.17918    56.00000

 Normal termination of Gaussian 16 at Thu Dec 10 15:39:27 2020.
