 Gaussian 16, Revision A.03,

 -----------------------------------------------------------
 # opt freq B3LYP/6-31G(d) empiricaldispersion=gd3bj scf=xqc
 -----------------------------------------------------------

 ------------------------------
 CID_84677905_JID_4096_neutraal
 ------------------------------
 Symbolic Z-matrix:
 Charge =  0 Multiplicity = 1

 SCF Done:  E(RB3LYP) =  -972.455505724     A.U. after   14 cycles
 SCF Done:  E(RB3LYP) =  -972.460334710     A.U. after   12 cycles
 SCF Done:  E(RB3LYP) =  -972.460801334     A.U. after   12 cycles
 SCF Done:  E(RB3LYP) =  -972.460922040     A.U. after   11 cycles
 SCF Done:  E(RB3LYP) =  -972.460942192     A.U. after   10 cycles
 SCF Done:  E(RB3LYP) =  -972.460951740     A.U. after    9 cycles
 SCF Done:  E(RB3LYP) =  -972.460959326     A.U. after    9 cycles
 SCF Done:  E(RB3LYP) =  -972.460961846     A.U. after    9 cycles
 SCF Done:  E(RB3LYP) =  -972.460963294     A.U. after    9 cycles
 SCF Done:  E(RB3LYP) =  -972.460963701     A.U. after    7 cycles
 SCF Done:  E(RB3LYP) =  -972.460963816     A.U. after    7 cycles
 Optimization completed.
    -- Stationary point found.
 Normal termination of Gaussian 16 at Thu Dec 10 09:15:23 2020.

 --------------------------------------------------------------------
 #N Geom=AllCheck Guess=TCheck SCRF=Check GenChk RB3LYP/6-31G(d) Freq
 --------------------------------------------------------------------

 Structure from the checkpoint file:  "JID_4096.chk"
 ------------------------------
 CID_84677905_JID_4096_neutraal
 ------------------------------
 Charge =  0 Multiplicity = 1

 SCF Done:  E(RB3LYP) =  -972.460963816     A.U. after    1 cycles

  Exact polarizability: 176.231   4.270 144.761   0.057  -6.885  84.374
 Approx polarizability: 242.647   8.314 231.476   0.641 -16.571 133.699

                      1                      2                      3
                      A                      A                      A
 Frequencies --     42.8330                79.0463                82.6117
 Red. masses --      4.1709                 3.6993                 2.7613
 Frc consts  --      0.0045                 0.0136                 0.0111
 IR Inten    --      1.4520                 0.6965                 1.3211

                      4                      5                      6
                      A                      A                      A
 Frequencies --     98.2493               120.7256               180.9043
 Red. masses --      3.4376                 3.1497                 2.6959
 Frc consts  --      0.0196                 0.0270                 0.0520
 IR Inten    --      9.2779                 1.2414                 0.6122

                      7                      8                      9
                      A                      A                      A
 Frequencies --    196.6886               216.9740               250.9578
 Red. masses --      1.4183                 3.0157                 2.2570
 Frc consts  --      0.0323                 0.0836                 0.0837
 IR Inten    --      1.0274                 1.7669                 3.5594

                     10                     11                     12
                      A                      A                      A
 Frequencies --    265.2330               299.9553               330.1085
 Red. masses --      1.4174                 2.3306                 3.9969
 Frc consts  --      0.0587                 0.1235                 0.2566
 IR Inten    --     24.9226                17.4932                 3.5065

                     13                     14                     15
                      A                      A                      A
 Frequencies --    336.8406               372.0604               400.1330
 Red. masses --      3.3925                 3.5156                 3.9484
 Frc consts  --      0.2268                 0.2867                 0.3725
 IR Inten    --     10.4361                 3.0451                 0.8215

                     16                     17                     18
                      A                      A                      A
 Frequencies --    437.2145               499.1711               523.3957
 Red. masses --      3.9225                 3.9923                 3.8725
 Frc consts  --      0.4418                 0.5861                 0.6250
 IR Inten    --      4.6367                 1.4345                 4.4790

                     19                     20                     21
                      A                      A                      A
 Frequencies --    587.8849               613.3818               650.2615
 Red. masses --      4.8812                 3.6450                 4.3153
 Frc consts  --      0.9939                 0.8080                 1.0751
 IR Inten    --      6.4092                 1.7428                 1.5909

                     22                     23                     24
                      A                      A                      A
 Frequencies --    665.2590               694.6309               762.1516
 Red. masses --      4.4445                 4.4073                 4.4837
 Frc consts  --      1.1589                 1.2529                 1.5345
 IR Inten    --      8.0770                 5.4737                 2.4630

                     25                     26                     27
                      A                      A                      A
 Frequencies --    775.4143               780.7960               867.5406
 Red. masses --      5.3835                 5.6413                 1.8645
 Frc consts  --      1.9071                 2.0263                 0.8268
 IR Inten    --     25.0025                 3.4530                 8.9713

                     28                     29                     30
                      A                      A                      A
 Frequencies --    877.5177               886.9133               917.1007
 Red. masses --      1.7324                 2.0707                 1.7532
 Frc consts  --      0.7860                 0.9597                 0.8688
 IR Inten    --     33.4348                36.1761                23.0546

                     31                     32                     33
                      A                      A                      A
 Frequencies --    946.0476               985.2658              1024.3890
 Red. masses --      1.5087                 2.2212                 2.7848
 Frc consts  --      0.7956                 1.2704                 1.7218
 IR Inten    --     15.1128                 1.5457                 1.3233

                     34                     35                     36
                      A                      A                      A
 Frequencies --   1034.2103              1045.1464              1087.7746
 Red. masses --      3.0482                 2.2381                 2.1378
 Frc consts  --      1.9209                 1.4404                 1.4903
 IR Inten    --     29.0630                13.8613                 4.1556

                     37                     38                     39
                      A                      A                      A
 Frequencies --   1122.8992              1177.7553              1186.0431
 Red. masses --      4.0921                 1.2182                 1.2694
 Frc consts  --      3.0400                 0.9955                 1.0521
 IR Inten    --     85.8353                 6.9787                 3.6929

                     40                     41                     42
                      A                      A                      A
 Frequencies --   1188.0785              1206.4077              1224.8315
 Red. masses --      1.3552                 1.4877                 1.1476
 Frc consts  --      1.1271                 1.2757                 1.0143
 IR Inten    --     18.1613                 4.1061                21.9566

                     43                     44                     45
                      A                      A                      A
 Frequencies --   1236.5859              1244.1505              1284.6113
 Red. masses --      1.3051                 2.6884                 1.9196
 Frc consts  --      1.1758                 2.4518                 1.8664
 IR Inten    --      3.1824                11.8336                 2.0113

                     46                     47                     48
                      A                      A                      A
 Frequencies --   1302.3130              1326.5833              1340.1178
 Red. masses --      1.8518                 2.3392                 1.4959
 Frc consts  --      1.8504                 2.4254                 1.5828
 IR Inten    --      7.5442                25.3038                35.5980

                     49                     50                     51
                      A                      A                      A
 Frequencies --   1345.6546              1355.2448              1389.9257
 Red. masses --      1.4084                 1.9842                 1.7626
 Frc consts  --      1.5026                 2.1472                 2.0062
 IR Inten    --     51.0399                73.7021                64.8859

                     52                     53                     54
                      A                      A                      A
 Frequencies --   1438.7806              1450.8395              1479.2394
 Red. masses --      1.6577                 2.6220                 1.2541
 Frc consts  --      2.0219                 3.2517                 1.6168
 IR Inten    --    102.2354                64.0236                 7.8996

                     55                     56                     57
                      A                      A                      A
 Frequencies --   1488.5523              1498.5159              1506.2165
 Red. masses --      1.4715                 1.1190                 1.1112
 Frc consts  --      1.9210                 1.4805                 1.4853
 IR Inten    --     12.3597                 5.7069                 3.1187

                     58                     59                     60
                      A                      A                      A
 Frequencies --   1508.5724              1523.5116              1528.9803
 Red. masses --      1.0494                 1.6649                 1.1229
 Frc consts  --      1.4071                 2.2768                 1.5466
 IR Inten    --      4.5193               133.2085                 0.4182

                     61                     62                     63
                      A                      A                      A
 Frequencies --   1550.9909              1620.1655              1645.5652
 Red. masses --      1.1014                 8.0575                 6.3870
 Frc consts  --      1.5610                12.4615                10.1901
 IR Inten    --      9.8898                34.6007               101.9954

                     64                     65                     66
                      A                      A                      A
 Frequencies --   1691.2395              3031.3564              3044.8336
 Red. masses --      1.0919                 1.0599                 1.0579
 Frc consts  --      1.8401                 5.7386                 5.7788
 IR Inten    --     22.6281                30.2438                39.8835

                     67                     68                     69
                      A                      A                      A
 Frequencies --   3057.7600              3063.4263              3072.1985
 Red. masses --      1.0818                 1.0296                 1.0828
 Frc consts  --      5.9595                 5.6931                 6.0216
 IR Inten    --      7.4142                62.8346                38.4816

                     70                     71                     72
                      A                      A                      A
 Frequencies --   3075.8405              3082.5027              3120.8818
 Red. masses --      1.1040                 1.0598                 1.1036
 Frc consts  --      6.1540                 5.9329                 6.3332
 IR Inten    --     27.5317                 7.0083                 4.0606

                     73                     74                     75
                      A                      A                      A
 Frequencies --   3127.9898              3133.2207              3154.5644
 Red. masses --      1.1032                 1.1069                 1.0901
 Frc consts  --      6.3596                 6.4021                 6.3915
 IR Inten    --     15.7125                27.2999                34.0013

                     76                     77                     78
                      A                      A                      A
 Frequencies --   3164.7602              3455.3977              3543.1198
 Red. masses --      1.1066                 1.0497                 1.0926
 Frc consts  --      6.5300                 7.3842                 8.0810
 IR Inten    --     25.7978                 4.2480                 0.9091

 - Thermochemistry -
 -------------------
 Temperature   298.150 Kelvin.  Pressure   1.00000 Atm.
 Atom     1 has atomic number  6 and mass  12.00000

 Molecular mass:   210.08268 amu.
 Principal axes and moments of inertia in atomic units:
                           1         2         3
     Eigenvalues --  1673.086674265.658345646.27389
           X            0.99986   0.01571  -0.00624
           Y           -0.01571   0.99988  -0.00085
           Z            0.00623   0.00095   0.99998
 This molecule is an asymmetric top.
 Rotational symmetry number  1.
 Warning -- assumption of classical behavior for rotation
           may cause significant error
 Rotational temperatures (Kelvin)      0.05177     0.02030     0.01534
 Rotational constants (GHZ):           1.07869     0.42309     0.31963
 Zero-point vibrational energy     615628.3 (Joules/Mol)
                                  147.13869 (Kcal/Mol)
 Warning -- explicit consideration of  20 degrees of freedom as
           vibrations may cause significant error
 Vibrational temperatures:     61.63   113.73   118.86   141.36   173.70
          (Kelvin)            260.28   282.99   312.18   361.07   381.61
                              431.57   474.95   484.64   535.31   575.70
                              629.05   718.20   753.05   845.84   882.52
                              935.58   957.16   999.42  1096.57  1115.65
                             1123.39  1248.20  1262.55  1276.07  1319.50
                             1361.15  1417.58  1473.87  1488.00  1503.73
                             1565.07  1615.60  1694.53  1706.45  1709.38
                             1735.75  1762.26  1779.17  1790.06  1848.27
                             1873.74  1908.66  1928.13  1936.10  1949.89
                             1999.79  2070.08  2087.43  2128.30  2141.69
                             2156.03  2167.11  2170.50  2191.99  2199.86
                             2231.53  2331.06  2367.60  2433.32  4361.45
                             4380.84  4399.43  4407.59  4420.21  4425.45
                             4435.03  4490.25  4500.48  4508.01  4538.71
                             4553.38  4971.55  5097.76

 Zero-point correction=                           0.234480 (Hartree/Particle)
 Thermal correction to Energy=                    0.247970
 Thermal correction to Enthalpy=                  0.248914
 Thermal correction to Gibbs Free Energy=         0.193954
 Sum of electronic and zero-point Energies=           -972.226483
 Sum of electronic and thermal Energies=              -972.212994
 Sum of electronic and thermal Enthalpies=            -972.212049
 Sum of electronic and thermal Free Energies=         -972.267010

                     E (Thermal)             CV                S
                      KCal/Mol        Cal/Mol-Kelvin    Cal/Mol-Kelvin
 Total                  155.604             51.015            115.674
 Electronic               0.000              0.000              0.000
 Translational            0.889              2.981             41.931
 Rotational               0.889              2.981             32.066
 Vibrational            153.826             45.054             41.677
 Vibration     1          0.595              1.980              5.124
 Vibration     2          0.600              1.963              3.914
 Vibration     3          0.600              1.961              3.828
 Vibration     4          0.604              1.950              3.489
 Vibration     5          0.609              1.932              3.089
 Vibration     6          0.630              1.866              2.319
 Vibration     7          0.636              1.845              2.164
 Vibration     8          0.646              1.815              1.984
 Vibration     9          0.663              1.761              1.724
 Vibration    10          0.671              1.737              1.627
 Vibration    11          0.692              1.674              1.417
 Vibration    12          0.713              1.615              1.260
 Vibration    13          0.718              1.602              1.227
 Vibration    14          0.744              1.530              1.071
 Vibration    15          0.766              1.470              0.962
 Vibration    16          0.798              1.389              0.835
 Vibration    17          0.855              1.252              0.660
 Vibration    18          0.878              1.198              0.602
 Vibration    19          0.945              1.058              0.471
 Vibration    20          0.973              1.004              0.427

                           ! Non-Optimized Parameters !
 Normal termination of Gaussian 16 at Thu Dec 10 09:23:20 2020.

 ----------------------------------------------------------------------
 # B3LYP/6-311++G(d,p) empiricaldispersion=gd3bj scf=xqc pop=npa geom=c
 heck
 ----------------------------------------------------------------------

 --------------------------------------
 CID_84677905_JID_4096_Energie_neutraal
 --------------------------------------
 Structure from the checkpoint file:  "JID_4096.chk"
 Charge =  0 Multiplicity = 1

 SCF Done:  E(RB3LYP) =  -972.647699420     A.U. after   15 cycles
 Normal termination of Gaussian 16 at Thu Dec 10 09:26:30 2020.

 ----------------------------------------------------------------------
 # B3LYP/6-311++G(d,p) empiricaldispersion=gd3bj scf=xqc pop=npa geom=c
 heck
 ----------------------------------------------------------------------

 ------------------------------------
 CID_84677905_JID_4096_Energie_kation
 ------------------------------------
 Structure from the checkpoint file:  "JID_4096.chk"
 Charge =  1 Multiplicity = 2

 SCF Done:  E(UB3LYP) =  -972.359882333     A.U. after   28 cycles
 Normal termination of Gaussian 16 at Thu Dec 10 09:34:34 2020.
 Gaussian 16:  ES64L-G16RevA.03 25-Dec-2016

 ----------------------------------------------------------------------
 # B3LYP/6-311++G(d,p) empiricaldispersion=gd3bj scf=xqc pop=npa geom=c
 heck
 ----------------------------------------------------------------------

 -----------------------------------
 CID_84677905_JID_4096_Energie_anion
 -----------------------------------
 Structure from the checkpoint file:  "JID_4096.chk"
 Charge = -1 Multiplicity = 2

                         Standard orientation:
 ---------------------------------------------------------------------
 Center     Atomic      Atomic             Coordinates (Angstroms)
 Number     Number       Type             X           Y           Z
 ---------------------------------------------------------------------
      1          6           0        4.195829   -0.921551   -0.107147
      2          8           0        3.174103    0.072629   -0.188608
      3          6           0        1.889017   -0.363467   -0.116113
      4          7           0        1.670100   -1.662392    0.045159
      5          6           0        0.395708   -2.056366    0.131306
      6          6           0       -0.708622   -1.211220    0.056778
      7          6           0       -2.091364   -1.823860    0.166416
      8          6           0       -3.167594   -0.851243    0.634657
      9         16           0       -3.244946    0.589213   -0.487218
     10          6           0       -1.556847    1.207887   -0.157260
     11          6           0       -0.457035    0.165999   -0.119964
     12          6           0        0.872813    0.608014   -0.209340
     13          6           0        1.233117    2.069903   -0.335138
     14          7           0        0.919480    2.778859    0.921392
     15          1           0        4.104231   -1.647763   -0.920301
     16          1           0        4.147814   -1.459303    0.844478
     17          1           0        5.136037   -0.373345   -0.189355
     18          1           0        0.242216   -3.125596    0.276609
     19          1           0       -2.045292   -2.675950    0.858386
     20          1           0       -2.393856   -2.228498   -0.808280
     21          1           0       -2.976304   -0.504529    1.656635
     22          1           0       -4.155158   -1.320018    0.615337
     23          1           0       -1.358597    1.934374   -0.950116
     24          1           0       -1.537111    1.774112    0.778902
     25          1           0        2.283103    2.150367   -0.640197
     26          1           0        0.634937    2.535108   -1.128373
     27          1           0        1.167304    3.762881    0.821447
     28          1           0        1.519802    2.409884    1.658145
 ---------------------------------------------------------------------

 SCF Done:  E(UB3LYP) =  -972.637408265     A.U. after   33 cycles
 SCF Done:  E(UB3LYP) =  -972.637408265     a.u. after    1 cycles

 The electronic state is 2-A.
 Alpha  occ. eigenvalues --  -88.73012 -19.04161 -14.17834 -14.17217 -10.13828
 Alpha  occ. eigenvalues --  -10.11438 -10.09532 -10.08494 -10.07617 -10.07468
 Alpha  occ. eigenvalues --  -10.07294 -10.06829 -10.06111 -10.05349  -7.81649
 Alpha  occ. eigenvalues --   -5.78029  -5.77701  -5.77015  -0.96389  -0.81660
 Alpha  occ. eigenvalues --   -0.76500  -0.73254  -0.67998  -0.65674  -0.63949
 Alpha  occ. eigenvalues --   -0.58988  -0.55592  -0.53914  -0.50755  -0.47699
 Alpha  occ. eigenvalues --   -0.44671  -0.41031  -0.40242  -0.37957  -0.36242
 Alpha  occ. eigenvalues --   -0.35825  -0.33717  -0.33187  -0.32584  -0.32272
 Alpha  occ. eigenvalues --   -0.30812  -0.29140  -0.28789  -0.27744  -0.27341
 Alpha  occ. eigenvalues --   -0.26438  -0.26051  -0.23698  -0.22056  -0.21031
 Alpha  occ. eigenvalues --   -0.20795  -0.15338  -0.14840  -0.12995  -0.11580
 Alpha  occ. eigenvalues --   -0.11002   0.04821
 Alpha virt. eigenvalues --    0.06925   0.07320   0.08254   0.08976   0.09545
 Alpha virt. eigenvalues --    0.10137   0.10181   0.10760   0.11074   0.11596
 Alpha virt. eigenvalues --    0.11949   0.12258   0.13016   0.13755   0.14087

  Beta  occ. eigenvalues --  -88.73010 -19.04161 -14.17703 -14.17133 -10.13856
  Beta  occ. eigenvalues --  -10.11427 -10.09514 -10.08502 -10.07613 -10.07311
  Beta  occ. eigenvalues --  -10.07278 -10.06634 -10.06172 -10.05254  -7.81647
  Beta  occ. eigenvalues --   -5.78025  -5.77698  -5.77013  -0.96382  -0.81431
  Beta  occ. eigenvalues --   -0.76334  -0.73145  -0.67789  -0.65601  -0.63868
  Beta  occ. eigenvalues --   -0.58900  -0.55361  -0.53839  -0.50677  -0.47550
  Beta  occ. eigenvalues --   -0.44613  -0.40929  -0.40168  -0.37837  -0.36203
  Beta  occ. eigenvalues --   -0.35769  -0.33640  -0.33040  -0.32514  -0.32172
  Beta  occ. eigenvalues --   -0.30700  -0.29064  -0.28618  -0.27636  -0.27212
  Beta  occ. eigenvalues --   -0.26343  -0.25957  -0.23668  -0.22004  -0.20765
  Beta  occ. eigenvalues --   -0.20711  -0.14754  -0.14415  -0.12917  -0.11530
  Beta  occ. eigenvalues --   -0.10595
  Beta virt. eigenvalues --    0.07079   0.07406   0.08233   0.09083   0.09109
  Beta virt. eigenvalues --    0.10143   0.10354   0.10586   0.10993   0.11162
  Beta virt. eigenvalues --    0.11721   0.12200   0.12323   0.13113   0.13868

 Mulliken charges and spin densities:
               1          2
     1  C    0.048951  -0.342806
     2  O   -0.174453   0.030842
     3  C   -0.537971  -0.519758
     4  N   -0.074629   0.075475
     5  C   -0.480937   0.406861
     6  C   -0.014468  -0.214278
     7  C   -0.435110  -0.362262
     8  C   -0.051159  -0.446170
     9  S   -0.094156   0.006506
    10  C   -0.279234  -0.118887
    11  C    0.666306   0.476585
    12  C    0.564374   0.486672
    13  C    0.179345  -0.943171
    14  N   -0.297072  -0.037135
    15  H    0.094307   0.071748
    16  H    0.073843   0.097928
    17  H   -0.106854   0.238177
    18  H    0.052681   0.098693
    19  H   -0.126999   0.265073
    20  H    0.145568  -0.030113
    21  H    0.040811   0.130894
    22  H   -0.083805   0.297169
    23  H    0.232388  -0.100875
    24  H    0.173501   0.124667
    25  H    0.060940   0.127195
    26  H   -0.171374   0.328442
    27  H   -0.348940   0.577734
    28  H   -0.055854   0.274793
 Sum of Mulliken charges =  -1.00000   1.00000

 Dipole moment (field-independent basis, Debye):
    X=             -1.0129    Y=             -4.3601    Z=             -2.6080  Tot=              5.1806
 Quadrupole moment (field-independent basis, Debye-Ang):
   XX=           -139.8867   YY=           -139.5847   ZZ=           -113.1964
   XY=             -5.5949   XZ=             -1.1199   YZ=             -4.4637

 Summary of Natural Population Analysis:

                                       Natural Population
                Natural  -----------------------------------------------
    Atom  No    Charge         Core      Valence    Rydberg      Total
 -----------------------------------------------------------------------
      C    1   -0.09907      0.99959     2.09132    0.00816     3.09907
      O    2   -0.28026      0.99985     3.27131    0.00910     4.28026
      C    3    0.26607      0.99939     1.71734    0.01720     2.73393
      N    4   -0.25694      0.99966     2.74690    0.01039     3.75694
      C    5    0.06295      0.99954     1.92361    0.01391     2.93705
      C    6   -0.06247      0.99945     2.05379    0.00922     3.06247
      C    7   -0.19739      0.99959     2.18702    0.01078     3.19739
      C    8   -0.24882      0.99960     2.23794    0.01128     3.24882
      S    9    0.08068      4.99964     2.90225    0.01742     7.91932
      C   10   -0.26155      0.99953     2.25116    0.01085     3.26155
      C   11    0.04019      0.99944     1.95102    0.00934     2.95981
      C   12   -0.03942      0.99943     2.02906    0.01093     3.03942
      C   13   -0.09897      0.99960     2.08702    0.01235     3.09897
      N   14   -0.42146      0.99977     2.91065    0.01103     3.92146
      H   15    0.08688      0.00000     0.41161    0.00152     0.41312
      H   16    0.08840      0.00000     0.40981    0.00179     0.41160
      H   17    0.08554      0.00000     0.41341    0.00105     0.41446
      H   18    0.08113      0.00000     0.41757    0.00130     0.41887
      H   19    0.10167      0.00000     0.39677    0.00157     0.39833
      H   20    0.09986      0.00000     0.39866    0.00148     0.40014
      H   21    0.10130      0.00000     0.39722    0.00148     0.39870
      H   22    0.10349      0.00000     0.39555    0.00096     0.39651
      H   23    0.11053      0.00000     0.38836    0.00111     0.38947
      H   24    0.12262      0.00000     0.37522    0.00216     0.37738
      H   25    0.09453      0.00000     0.40324    0.00223     0.40547
      H   26    0.08929      0.00000     0.40926    0.00145     0.41071
      H   27    0.17661      0.00000     0.31639    0.00700     0.32339
      H   28    0.17461      0.00000     0.32261    0.00278     0.32539
 =======================================================================
   * Total *   -0.00000     17.99410    37.81605    0.18984    56.00000

 Normal termination of Gaussian 16 at Thu Dec 10 09:45:42 2020.
