 Gaussian 16, Revision A.03,

 -----------------------------------------------------------
 # opt freq B3LYP/6-31G(d) empiricaldispersion=gd3bj scf=xqc
 -----------------------------------------------------------

 ------------------------------
 CID_70115242_JID_3238_neutraal
 ------------------------------
 Symbolic Z-matrix:
 Charge =  0 Multiplicity = 1

 SCF Done:  E(RB3LYP) =  -643.663829468     A.U. after   15 cycles
 SCF Done:  E(RB3LYP) =  -643.665939664     A.U. after   12 cycles
 SCF Done:  E(RB3LYP) =  -643.665849588     A.U. after   12 cycles
 SCF Done:  E(RB3LYP) =  -643.666365427     A.U. after   11 cycles
 SCF Done:  E(RB3LYP) =  -643.666442609     A.U. after   11 cycles
 SCF Done:  E(RB3LYP) =  -643.666464682     A.U. after   10 cycles
 SCF Done:  E(RB3LYP) =  -643.666494465     A.U. after   11 cycles
 SCF Done:  E(RB3LYP) =  -643.666505287     A.U. after   10 cycles
 SCF Done:  E(RB3LYP) =  -643.666512616     A.U. after   10 cycles
 SCF Done:  E(RB3LYP) =  -643.666513353     A.U. after    9 cycles
 SCF Done:  E(RB3LYP) =  -643.666513418     A.U. after    8 cycles
 Optimization completed.
    -- Stationary point found.
 Normal termination of Gaussian 16 at Wed Dec  9 22:26:24 2020.

 --------------------------------------------------------------------
 #N Geom=AllCheck Guess=TCheck SCRF=Check GenChk RB3LYP/6-31G(d) Freq
 --------------------------------------------------------------------

 Structure from the checkpoint file:  "JID_3238.chk"
 ------------------------------
 CID_70115242_JID_3238_neutraal
 ------------------------------
 Charge =  0 Multiplicity = 1

 SCF Done:  E(RB3LYP) =  -643.666513418     A.U. after    1 cycles

  Exact polarizability: 165.507   5.994  98.621  -6.569   2.548  44.875
 Approx polarizability: 249.008  15.349 171.259 -16.390   2.236  72.110

                      1                      2                      3
                      A                      A                      A
 Frequencies --     32.5174                54.5900                82.9947
 Red. masses --      7.6181                 5.6070                 7.5916
 Frc consts  --      0.0047                 0.0098                 0.0308
 IR Inten    --      1.5947                 3.2677                 2.5198

                      4                      5                      6
                      A                      A                      A
 Frequencies --    136.4793               161.9657               207.1466
 Red. masses --      9.5399                 7.7281                 5.2921
 Frc consts  --      0.1047                 0.1194                 0.1338
 IR Inten    --      8.8297                10.9227                 2.2262

                      7                      8                      9
                      A                      A                      A
 Frequencies --    282.9808               320.6991               335.4731
 Red. masses --      8.0695                 4.0499                 4.0919
 Frc consts  --      0.3807                 0.2454                 0.2713
 IR Inten    --      4.4221                 8.2849                38.2002

                     10                     11                     12
                      A                      A                      A
 Frequencies --    351.1606               368.3686               442.7320
 Red. masses --      1.3528                 1.2331                 6.2908
 Frc consts  --      0.0983                 0.0986                 0.7265
 IR Inten    --    220.3881               163.8145                 2.5076

                     13                     14                     15
                      A                      A                      A
 Frequencies --    460.6676               488.7092               495.3682
 Red. masses --      3.7312                 4.8810                 3.2551
 Frc consts  --      0.4665                 0.6868                 0.4706
 IR Inten    --      0.0818                 4.7065                 3.3337

                     16                     17                     18
                      A                      A                      A
 Frequencies --    532.1364               553.8978               601.0515
 Red. masses --      1.3251                 5.2812                 7.1980
 Frc consts  --      0.2211                 0.9546                 1.5321
 IR Inten    --      9.4286                 4.1865                 6.8869

                     19                     20                     21
                      A                      A                      A
 Frequencies --    636.1302               662.9460               703.1737
 Red. masses --      5.0879                 4.7298                 5.3434
 Frc consts  --      1.2131                 1.2248                 1.5567
 IR Inten    --      9.2619                17.5816                 0.6785

                     22                     23                     24
                      A                      A                      A
 Frequencies --    735.3926               753.1453               803.7352
 Red. masses --      6.4133                 9.9076                 2.7457
 Frc consts  --      2.0435                 3.3111                 1.0450
 IR Inten    --      2.3102                25.6440                 6.7981

                     25                     26                     27
                      A                      A                      A
 Frequencies --    836.2936               850.6620               942.6041
 Red. masses --      1.8295                 1.5083                 1.3281
 Frc consts  --      0.7539                 0.6430                 0.6953
 IR Inten    --      3.9700                45.1552                 3.5677

                     28                     29                     30
                      A                      A                      A
 Frequencies --    962.0614               987.5642              1129.6062
 Red. masses --      4.1634                 5.2453                 1.9016
 Frc consts  --      2.2704                 3.0141                 1.4296
 IR Inten    --     73.8603                41.8088                19.4609

                     31                     32                     33
                      A                      A                      A
 Frequencies --   1149.4088              1193.6108              1210.0471
 Red. masses --      1.9667                 2.0482                 1.2519
 Frc consts  --      1.5308                 1.7193                 1.0800
 IR Inten    --     98.1239                18.6966                60.7037

                     34                     35                     36
                      A                      A                      A
 Frequencies --   1275.2678              1336.1932              1342.5976
 Red. masses --      3.5481                 1.4827                 3.8838
 Frc consts  --      3.3998                 1.5597                 4.1248
 IR Inten    --    471.7559                69.6954                96.2733

                     37                     38                     39
                      A                      A                      A
 Frequencies --   1359.4053              1377.7220              1473.3498
 Red. masses --      3.4110                 4.5554                 4.2477
 Frc consts  --      3.7139                 5.0945                 5.4327
 IR Inten    --    475.6421                41.5517               116.2012

                     40                     41                     42
                      A                      A                      A
 Frequencies --   1571.1058              1637.8157              1649.0240
 Red. masses --      2.9323                 1.3004                 6.4514
 Frc consts  --      4.2646                 2.0552                10.3361
 IR Inten    --     98.5921               167.8839                33.6536

                     43                     44                     45
                      A                      A                      A
 Frequencies --   1665.1558              1869.6603              2351.0403
 Red. masses --      4.9744                10.5114                12.6787
 Frc consts  --      8.1264                21.6489                41.2899
 IR Inten    --     17.6181               324.3141                42.7870

                     46                     47                     48
                      A                      A                      A
 Frequencies --   3197.8432              3230.3351              3260.3770
 Red. masses --      1.0915                 1.0910                 1.0936
 Frc consts  --      6.5763                 6.7075                 6.8492
 IR Inten    --      5.2101                 1.5466                 0.5615

                     49                     50                     51
                      A                      A                      A
 Frequencies --   3609.0651              3733.3493              3752.6646
 Red. masses --      1.0457                 1.1048                 1.0660
 Frc consts  --      8.0247                 9.0728                 8.8452
 IR Inten    --     73.7584                58.6637                53.5138

 - Thermochemistry -
 -------------------
 Temperature   298.150 Kelvin.  Pressure   1.00000 Atm.
 Atom     1 has atomic number  6 and mass  12.00000

 Molecular mass:   178.03784 amu.
 Principal axes and moments of inertia in atomic units:
                           1         2         3
     Eigenvalues --   895.314364140.582344876.21801
           X            1.00000  -0.00056  -0.00093
           Y            0.00057   0.99987   0.01602
           Z            0.00092  -0.01602   0.99987
 This molecule is an asymmetric top.
 Rotational symmetry number  1.
 Warning -- assumption of classical behavior for rotation
           may cause significant error
 Rotational temperatures (Kelvin)      0.09674     0.02092     0.01776
 Rotational constants (GHZ):           2.01576     0.43587     0.37011
 Zero-point vibrational energy     353839.2 (Joules/Mol)
                                   84.56959 (Kcal/Mol)
 Warning -- explicit consideration of  18 degrees of freedom as
           vibrations may cause significant error
 Vibrational temperatures:     46.79    78.54   119.41   196.36   233.03
          (Kelvin)            298.04   407.15   461.41   482.67   505.24
                              530.00   636.99   662.80   703.14   712.72
                              765.63   796.94   864.78   915.25   953.83
                             1011.71  1058.07  1083.61  1156.40  1203.24
                             1223.91  1356.20  1384.19  1420.88  1625.25
                             1653.74  1717.34  1740.99  1834.83  1922.48
                             1931.70  1955.88  1982.23  2119.82  2260.47
                             2356.45  2372.58  2395.79  2690.02  3382.62
                             4600.98  4647.73  4690.96  5192.64  5371.46
                             5399.25

 Zero-point correction=                           0.134770 (Hartree/Particle)
 Thermal correction to Energy=                    0.146410
 Thermal correction to Enthalpy=                  0.147354
 Thermal correction to Gibbs Free Energy=         0.096094
 Sum of electronic and zero-point Energies=           -643.531743
 Sum of electronic and thermal Energies=              -643.520103
 Sum of electronic and thermal Enthalpies=            -643.519159
 Sum of electronic and thermal Free Energies=         -643.570420

                     E (Thermal)             CV                S
                      KCal/Mol        Cal/Mol-Kelvin    Cal/Mol-Kelvin
 Total                   91.874             43.254            107.887
 Electronic               0.000              0.000              0.000
 Translational            0.889              2.981             41.437
 Rotational               0.889              2.981             31.270
 Vibrational             90.096             37.292             35.180
 Vibration     1          0.594              1.983              5.670
 Vibration     2          0.596              1.976              4.644
 Vibration     3          0.600              1.961              3.819
 Vibration     4          0.614              1.917              2.853
 Vibration     5          0.622              1.889              2.527
 Vibration     6          0.641              1.830              2.069
 Vibration     7          0.682              1.705              1.516
 Vibration     8          0.706              1.634              1.307
 Vibration     9          0.717              1.605              1.234
 Vibration    10          0.728              1.573              1.161
 Vibration    11          0.741              1.537              1.087
 Vibration    12          0.802              1.377              0.818
 Vibration    13          0.818              1.337              0.764
 Vibration    14          0.845              1.275              0.687
 Vibration    15          0.851              1.260              0.670
 Vibration    16          0.887              1.179              0.582
 Vibration    17          0.909              1.131              0.536
 Vibration    18          0.959              1.030              0.448

                           ! Non-Optimized Parameters !
 Normal termination of Gaussian 16 at Wed Dec  9 22:30:36 2020.

 ----------------------------------------------------------------------
 # B3LYP/6-311++G(d,p) empiricaldispersion=gd3bj scf=xqc pop=npa geom=c
 heck
 ----------------------------------------------------------------------

 --------------------------------------
 CID_70115242_JID_3238_Energie_neutraal
 --------------------------------------
 Structure from the checkpoint file:  "JID_3238.chk"
 Charge =  0 Multiplicity = 1

 SCF Done:  E(RB3LYP) =  -643.864027085     A.U. after   15 cycles
 Normal termination of Gaussian 16 at Wed Dec  9 22:32:24 2020.

 ----------------------------------------------------------------------
 # B3LYP/6-311++G(d,p) empiricaldispersion=gd3bj scf=xqc pop=npa geom=c
 heck
 ----------------------------------------------------------------------

 ------------------------------------
 CID_70115242_JID_3238_Energie_kation
 ------------------------------------
 Structure from the checkpoint file:  "JID_3238.chk"
 Charge =  1 Multiplicity = 2

 SCF Done:  E(UB3LYP) =  -643.540600557     A.U. after   24 cycles
 Normal termination of Gaussian 16 at Wed Dec  9 22:36:15 2020.
 Gaussian 16:  ES64L-G16RevA.03 25-Dec-2016

 ----------------------------------------------------------------------
 # B3LYP/6-311++G(d,p) empiricaldispersion=gd3bj scf=xqc pop=npa geom=c
 heck
 ----------------------------------------------------------------------

 -----------------------------------
 CID_70115242_JID_3238_Energie_anion
 -----------------------------------
 Structure from the checkpoint file:  "JID_3238.chk"
 Charge = -1 Multiplicity = 2

                         Standard orientation:
 ---------------------------------------------------------------------
 Center     Atomic      Atomic             Coordinates (Angstroms)
 Number     Number       Type             X           Y           Z
 ---------------------------------------------------------------------
      1          6           0       -1.449106   -1.339249   -0.307191
      2          6           0       -0.072222   -1.178379   -0.435525
      3          6           0        0.501047    0.079880   -0.280203
      4          6           0       -0.297380    1.202229    0.003395
      5          6           0       -1.675007    1.044249    0.122007
      6          6           0       -2.253239   -0.226194   -0.029775
      7          6           0       -3.671434   -0.373626    0.098692
      8          7           0       -4.824277   -0.489024    0.202505
      9          8           0        0.333114    2.400678    0.145822
     10          8           0        1.845823    0.327220   -0.457890
     11          6           0        2.775393   -0.485770    0.163333
     12          8           0        2.515333   -1.447058    0.849114
     13          7           0        4.018255   -0.036925   -0.162708
     14          1           0       -1.900774   -2.317526   -0.423003
     15          1           0        0.565676   -2.027180   -0.641976
     16          1           0       -2.305850    1.901852    0.338110
     17          1           0       -0.330731    3.080155    0.341792
     18          1           0        4.121939    0.887738   -0.553707
     19          1           0        4.789420   -0.428962    0.355435
 ---------------------------------------------------------------------

 SCF Done:  E(UB3LYP) =  -643.869824455     A.U. after   33 cycles
 SCF Done:  E(UB3LYP) =  -643.869824455     a.u. after    1 cycles

 The electronic state is 2-A.
 Alpha  occ. eigenvalues --  -19.05797 -19.04976 -18.99323 -14.23254 -14.16959
 Alpha  occ. eigenvalues --  -10.21628 -10.12144 -10.10165 -10.07144 -10.06868
 Alpha  occ. eigenvalues --  -10.05651 -10.05472 -10.05375  -1.00405  -0.96028
 Alpha  occ. eigenvalues --   -0.91802  -0.81389  -0.77364  -0.73684  -0.64957
 Alpha  occ. eigenvalues --   -0.63104  -0.56221  -0.52124  -0.48570  -0.45683
 Alpha  occ. eigenvalues --   -0.44563  -0.41057  -0.39799  -0.37227  -0.36319
 Alpha  occ. eigenvalues --   -0.33918  -0.32577  -0.31923  -0.30451  -0.28557
 Alpha  occ. eigenvalues --   -0.26502  -0.25965  -0.25599  -0.23239  -0.22172
 Alpha  occ. eigenvalues --   -0.20216  -0.19797  -0.18516  -0.17828  -0.13517
 Alpha  occ. eigenvalues --   -0.11365   0.04110
 Alpha virt. eigenvalues --    0.05816   0.07088   0.09599   0.09863   0.10974
 Alpha virt. eigenvalues --    0.11501   0.12511   0.13829   0.14372   0.14990
 Alpha virt. eigenvalues --    0.15278   0.15805   0.16358   0.16507   0.17315

  Beta  occ. eigenvalues --  -19.05803 -19.04977 -18.99304 -14.23189 -14.16726
  Beta  occ. eigenvalues --  -10.21577 -10.12227 -10.09830 -10.07133 -10.06639
  Beta  occ. eigenvalues --  -10.05610 -10.05361 -10.05267  -1.00307  -0.96029
  Beta  occ. eigenvalues --   -0.91739  -0.81285  -0.77000  -0.73361  -0.64464
  Beta  occ. eigenvalues --   -0.62846  -0.55864  -0.52008  -0.48227  -0.45548
  Beta  occ. eigenvalues --   -0.44415  -0.40922  -0.39655  -0.37016  -0.36175
  Beta  occ. eigenvalues --   -0.33782  -0.32404  -0.31746  -0.30266  -0.28452
  Beta  occ. eigenvalues --   -0.26366  -0.25807  -0.24685  -0.22889  -0.21877
  Beta  occ. eigenvalues --   -0.20073  -0.19168  -0.18367  -0.17771  -0.12368
  Beta  occ. eigenvalues --   -0.10303
  Beta virt. eigenvalues --    0.06842   0.07453   0.08979   0.09715   0.10581
  Beta virt. eigenvalues --    0.11123   0.11530   0.12463   0.14053   0.14431
  Beta virt. eigenvalues --    0.15044   0.15267   0.15885   0.16359   0.16638

 Mulliken charges and spin densities:
               1          2
     1  C   -0.767458   0.160153
     2  C    0.275125  -0.295910
     3  C    0.479327  -0.384351
     4  C   -0.620254   0.365810
     5  C   -0.286546   0.458808
     6  C    2.025535   0.060221
     7  C   -1.426042  -0.121356
     8  N   -0.304473   0.124947
     9  O   -0.240380  -0.002430
    10  O   -0.122941  -0.027499
    11  C    0.535903  -0.413034
    12  O   -0.310357  -0.005425
    13  N   -0.411592   0.034535
    14  H    0.144296   0.000675
    15  H    0.135715   0.029402
    16  H    0.061756   0.039679
    17  H    0.113487   0.145294
    18  H   -0.114626   0.386273
    19  H   -0.166474   0.444207
 Sum of Mulliken charges =  -1.00000   1.00000

 Dipole moment (field-independent basis, Debye):
    X=              2.2200    Y=              1.5515    Z=             -0.6596  Tot=              2.7876
 Quadrupole moment (field-independent basis, Debye-Ang):
   XX=           -160.3699   YY=            -85.6311   ZZ=            -87.1602
   XY=             -6.3889   XZ=             -0.7422   YZ=              5.0735

 Summary of Natural Population Analysis:

                                       Natural Population
                Natural  -----------------------------------------------
    Atom  No    Charge         Core      Valence    Rydberg      Total
 -----------------------------------------------------------------------
      C    1   -0.08044      0.99955     2.07264    0.00825     3.08044
      C    2   -0.11322      0.99954     2.10533    0.00836     3.11322
      C    3    0.18431      0.99933     1.80273    0.01363     2.81569
      C    4    0.12643      0.99935     1.86008    0.01414     2.87357
      C    5   -0.08298      0.99951     2.07360    0.00987     3.08298
      C    6   -0.05940      0.99943     2.05068    0.00930     3.05940
      C    7    0.15175      0.99964     1.83047    0.01814     2.84825
      N    8   -0.17356      0.99979     2.66285    0.01093     3.67356
      O    9   -0.33725      0.99987     3.33066    0.00672     4.33725
      O   10   -0.28090      0.99984     3.27199    0.00908     4.28090
      C   11    0.46203      0.99973     1.51278    0.02546     2.53797
      O   12   -0.32071      0.99987     3.31546    0.00538     4.32071
      N   13   -0.40800      0.99971     2.90044    0.00786     3.90800
      H   14    0.09956      0.00000     0.39967    0.00077     0.40044
      H   15    0.10869      0.00000     0.39042    0.00090     0.39131
      H   16    0.09548      0.00000     0.40341    0.00112     0.40452
      H   17    0.23102      0.00000     0.26626    0.00272     0.26898
      H   18    0.20058      0.00000     0.29558    0.00383     0.29942
      H   19    0.19663      0.00000     0.30057    0.00281     0.30337
 =======================================================================
   * Total *   -0.00000     12.99515    32.84560    0.15925    46.00000

 Normal termination of Gaussian 16 at Wed Dec  9 22:41:32 2020.
