 Gaussian 16, Revision A.03,

 -----------------------------------------------------------
 # opt freq B3LYP/6-31G(d) empiricaldispersion=gd3bj scf=xqc
 -----------------------------------------------------------

 -------------------------------
 CID_103563891_JID_3554_neutraal
 -------------------------------
 Symbolic Z-matrix:
 Charge =  0 Multiplicity = 1

 SCF Done:  E(RB3LYP) =  -898.406983852     A.U. after   15 cycles
 SCF Done:  E(RB3LYP) =  -898.414371354     A.U. after   12 cycles
 SCF Done:  E(RB3LYP) =  -898.415161875     A.U. after   12 cycles
 SCF Done:  E(RB3LYP) =  -898.415379359     A.U. after   12 cycles
 SCF Done:  E(RB3LYP) =  -898.415658580     A.U. after   12 cycles
 SCF Done:  E(RB3LYP) =  -898.415732602     A.U. after   11 cycles
 SCF Done:  E(RB3LYP) =  -898.415797531     A.U. after   10 cycles
 SCF Done:  E(RB3LYP) =  -898.415831397     A.U. after   11 cycles
 SCF Done:  E(RB3LYP) =  -898.415841259     A.U. after   10 cycles
 SCF Done:  E(RB3LYP) =  -898.415852247     A.U. after    9 cycles
 SCF Done:  E(RB3LYP) =  -898.415855758     A.U. after    9 cycles
 SCF Done:  E(RB3LYP) =  -898.415857191     A.U. after    9 cycles
 SCF Done:  E(RB3LYP) =  -898.415858389     A.U. after   10 cycles
 SCF Done:  E(RB3LYP) =  -898.415858583     A.U. after    7 cycles
 SCF Done:  E(RB3LYP) =  -898.415858608     A.U. after    7 cycles
 Optimization completed.
    -- Stationary point found.
 Normal termination of Gaussian 16 at Wed Dec  9 23:39:31 2020.

 --------------------------------------------------------------------
 #N Geom=AllCheck Guess=TCheck SCRF=Check GenChk RB3LYP/6-31G(d) Freq
 --------------------------------------------------------------------

 Structure from the checkpoint file:  "JID_3554.chk"
 -------------------------------
 CID_103563891_JID_3554_neutraal
 -------------------------------
 Charge =  0 Multiplicity = 1

 SCF Done:  E(RB3LYP) =  -898.415858608     A.U. after    1 cycles

  Exact polarizability: 160.098  -1.221 127.012  -1.347 -10.697 102.766
 Approx polarizability: 212.452  -0.334 209.609  -5.508 -34.981 164.277

                      1                      2                      3
                      A                      A                      A
 Frequencies --     21.2506                66.2850                96.8531
 Red. masses --      4.3762                 3.1418                 3.1502
 Frc consts  --      0.0012                 0.0081                 0.0174
 IR Inten    --      0.0361                 0.2778                 0.3101

                      4                      5                      6
                      A                      A                      A
 Frequencies --    129.7311               135.2099               157.3452
 Red. masses --      2.2992                 1.3315                 1.3683
 Frc consts  --      0.0228                 0.0143                 0.0200
 IR Inten    --      0.6863                 0.1590                 1.0222

                      7                      8                      9
                      A                      A                      A
 Frequencies --    199.1033               210.5093               225.2187
 Red. masses --      2.7065                 1.9979                 2.8296
 Frc consts  --      0.0632                 0.0522                 0.0846
 IR Inten    --      1.6438                 2.4132                 2.0835

                     10                     11                     12
                      A                      A                      A
 Frequencies --    256.5075               270.5922               291.2896
 Red. masses --      1.5173                 1.9703                 3.3481
 Frc consts  --      0.0588                 0.0850                 0.1674
 IR Inten    --      0.3150                 0.3511                 1.6627

                     13                     14                     15
                      A                      A                      A
 Frequencies --    331.1937               375.2928               397.7986
 Red. masses --      2.9902                 2.1109                 2.5291
 Frc consts  --      0.1932                 0.1752                 0.2358
 IR Inten    --      6.4624                 0.5556                 2.2877

                     16                     17                     18
                      A                      A                      A
 Frequencies --    418.1820               465.3392               491.7551
 Red. masses --      2.4272                 3.8675                 3.3222
 Frc consts  --      0.2501                 0.4934                 0.4733
 IR Inten    --      2.5933                 3.6961                10.8318

                     19                     20                     21
                      A                      A                      A
 Frequencies --    558.8301               599.7331               666.0254
 Red. masses --      6.5841                 4.0839                 6.1888
 Frc consts  --      1.2115                 0.8654                 1.6175
 IR Inten    --      3.0224                 0.3930                 0.8839

                     22                     23                     24
                      A                      A                      A
 Frequencies --    698.6847               733.3549               744.3741
 Red. masses --      7.4620                 1.4979                 1.2178
 Frc consts  --      2.1462                 0.4746                 0.3976
 IR Inten    --      2.6494               102.0600                26.1716

                     25                     26                     27
                      A                      A                      A
 Frequencies --    774.5903               840.2021               847.6314
 Red. masses --      2.7919                 2.3655                 1.5784
 Frc consts  --      0.9870                 0.9839                 0.6681
 IR Inten    --     27.8763                 2.7301                 9.6244

                     28                     29                     30
                      A                      A                      A
 Frequencies --    851.8652               867.5288               922.1692
 Red. masses --      3.1261                 3.4263                 2.1509
 Frc consts  --      1.3366                 1.5193                 1.0777
 IR Inten    --     12.5522                 7.3332                 0.1488

                     31                     32                     33
                      A                      A                      A
 Frequencies --    950.8310               976.0057              1000.4869
 Red. masses --      1.7274                 2.7531                 2.6875
 Frc consts  --      0.9201                 1.5452                 1.5850
 IR Inten    --      7.2907                 0.1214                41.8779

                     34                     35                     36
                      A                      A                      A
 Frequencies --   1028.7020              1041.3495              1076.3990
 Red. masses --      1.5846                 2.6421                 1.1780
 Frc consts  --      0.9880                 1.6881                 0.8042
 IR Inten    --      7.1790                 1.9434                 3.1736

                     37                     38                     39
                      A                      A                      A
 Frequencies --   1079.3282              1080.8894              1102.9328
 Red. masses --      1.5096                 2.1160                 2.5749
 Frc consts  --      1.0362                 1.4566                 1.8455
 IR Inten    --      3.2175                 8.9183                22.7392

                     40                     41                     42
                      A                      A                      A
 Frequencies --   1161.1926              1165.5222              1176.3472
 Red. masses --      1.2570                 1.5584                 1.4944
 Frc consts  --      0.9986                 1.2473                 1.2184
 IR Inten    --      1.2721                10.9868                 1.2041

                     43                     44                     45
                      A                      A                      A
 Frequencies --   1198.7253              1231.9467              1237.8926
 Red. masses --      2.6651                 2.9208                 1.9646
 Frc consts  --      2.2563                 2.6118                 1.7738
 IR Inten    --     17.9472                25.2834                 7.7495

                     46                     47                     48
                      A                      A                      A
 Frequencies --   1253.6897              1292.9460              1302.0609
 Red. masses --      1.4770                 1.5746                 1.8654
 Frc consts  --      1.3678                 1.5509                 1.8633
 IR Inten    --      1.2335                11.5361                 8.3842

                     49                     50                     51
                      A                      A                      A
 Frequencies --   1307.5183              1347.4938              1386.5506
 Red. masses --      1.6129                 4.3085                 1.4368
 Frc consts  --      1.6246                 4.6092                 1.6275
 IR Inten    --      9.0768                24.0949                 6.2722

                     52                     53                     54
                      A                      A                      A
 Frequencies --   1433.9206              1441.7097              1478.9401
 Red. masses --      1.2790                 1.2737                 1.1955
 Frc consts  --      1.5494                 1.5598                 1.5407
 IR Inten    --      4.4650                 0.9720                 4.4326

                     55                     56                     57
                      A                      A                      A
 Frequencies --   1485.8927              1497.4075              1505.5585
 Red. masses --      1.1508                 1.1360                 1.0444
 Frc consts  --      1.4970                 1.5008                 1.3948
 IR Inten    --      5.2329                 4.7184                 5.8966

                     58                     59                     60
                      A                      A                      A
 Frequencies --   1512.5106              1513.4799              1520.5459
 Red. masses --      1.1978                 1.1378                 1.0561
 Frc consts  --      1.6145                 1.5356                 1.4386
 IR Inten    --      5.6041                 4.1077                 4.0661

                     61                     62                     63
                      A                      A                      A
 Frequencies --   1524.8717              1539.0506              1548.0974
 Red. masses --      1.0533                 1.0510                 2.3976
 Frc consts  --      1.4430                 1.4668                 3.3855
 IR Inten    --      2.5668                 1.3633                 5.3350

                     64                     65                     66
                      A                      A                      A
 Frequencies --   1551.2939              1596.0559              3002.5713
 Red. masses --      1.4576                 4.8502                 1.0533
 Frc consts  --      2.0666                 7.2795                 5.5950
 IR Inten    --     14.3202                32.5175                58.4449

                     67                     68                     69
                      A                      A                      A
 Frequencies --   3038.6468              3052.7916              3064.6249
 Red. masses --      1.0367                 1.0365                 1.0774
 Frc consts  --      5.6400                 5.6911                 5.9619
 IR Inten    --     40.9433                27.4196                31.8643

                     70                     71                     72
                      A                      A                      A
 Frequencies --   3070.8175              3090.1927              3094.6284
 Red. masses --      1.0683                 1.0722                 1.0720
 Frc consts  --      5.9352                 6.0323                 6.0485
 IR Inten    --     31.6201                 6.2122                41.5588

                     73                     74                     75
                      A                      A                      A
 Frequencies --   3099.0607              3108.2636              3127.1317
 Red. masses --      1.1003                 1.1013                 1.1021
 Frc consts  --      6.2264                 6.2688                 6.3499
 IR Inten    --     47.0789                15.5550                20.1667

                     76                     77                     78
                      A                      A                      A
 Frequencies --   3131.1800              3132.2503              3138.6237
 Red. masses --      1.1035                 1.1057                 1.1019
 Frc consts  --      6.3747                 6.3915                 6.3957
 IR Inten    --     14.9337                37.9568                16.5491

                     79                     80                     81
                      A                      A                      A
 Frequencies --   3159.6073              3272.4917              3487.6814
 Red. masses --      1.1050                 1.0946                 1.0741
 Frc consts  --      6.4993                 6.9066                 7.6980
 IR Inten    --     10.5062                 1.7899                 1.2228

 - Thermochemistry -
 -------------------
 Temperature   298.150 Kelvin.  Pressure   1.00000 Atm.
 Atom     1 has atomic number  6 and mass  12.00000

 Molecular mass:   196.10342 amu.
 Principal axes and moments of inertia in atomic units:
                           1         2         3
     Eigenvalues --  1445.970353913.048594506.70325
           X            0.99989  -0.01330   0.00596
           Y            0.01309   0.99931   0.03463
           Z           -0.00641  -0.03455   0.99938
 This molecule is an asymmetric top.
 Rotational symmetry number  1.
 Warning -- assumption of classical behavior for rotation
           may cause significant error
 Rotational temperatures (Kelvin)      0.05990     0.02213     0.01922
 Rotational constants (GHZ):           1.24812     0.46121     0.40046
 Zero-point vibrational energy     653538.8 (Joules/Mol)
                                  156.19952 (Kcal/Mol)
 Warning -- explicit consideration of  20 degrees of freedom as
           vibrations may cause significant error
 Vibrational temperatures:     30.57    95.37   139.35   186.65   194.54
          (Kelvin)            226.38   286.47   302.88   324.04   369.06
                              389.32   419.10   476.51   539.96   572.34
                              601.67   669.52   707.53   804.03   862.88
                              958.26  1005.25  1055.13  1070.99  1114.46
                             1208.86  1219.55  1225.64  1248.18  1326.80
                             1368.03  1404.25  1439.48  1480.07  1498.27
                             1548.70  1552.91  1555.16  1586.87  1670.70
                             1676.93  1692.50  1724.70  1772.50  1781.05
                             1803.78  1860.26  1873.38  1881.23  1938.74
                             1994.94  2063.09  2074.30  2127.86  2137.87
                             2154.44  2166.16  2176.17  2177.56  2187.73
                             2193.95  2214.35  2227.37  2231.97  2296.37
                             4320.03  4371.94  4392.29  4409.31  4418.22
                             4446.10  4452.48  4458.86  4472.10  4499.25
                             4505.07  4506.61  4515.78  4545.97  4708.39
                             5018.00

 Zero-point correction=                           0.248920 (Hartree/Particle)
 Thermal correction to Energy=                    0.262669
 Thermal correction to Enthalpy=                  0.263613
 Thermal correction to Gibbs Free Energy=         0.208029
 Sum of electronic and zero-point Energies=           -898.166939
 Sum of electronic and thermal Energies=              -898.153190
 Sum of electronic and thermal Enthalpies=            -898.152246
 Sum of electronic and thermal Free Energies=         -898.207829

                     E (Thermal)             CV                S
                      KCal/Mol        Cal/Mol-Kelvin    Cal/Mol-Kelvin
 Total                  164.827             51.911            116.985
 Electronic               0.000              0.000              0.000
 Translational            0.889              2.981             41.725
 Rotational               0.889              2.981             31.612
 Vibrational            163.050             45.949             43.648
 Vibration     1          0.593              1.985              6.514
 Vibration     2          0.598              1.970              4.261
 Vibration     3          0.603              1.951              3.517
 Vibration     4          0.612              1.924              2.950
 Vibration     5          0.613              1.918              2.871
 Vibration     6          0.621              1.894              2.581
 Vibration     7          0.637              1.841              2.141
 Vibration     8          0.643              1.825              2.039
 Vibration     9          0.650              1.803              1.917
 Vibration    10          0.666              1.752              1.685
 Vibration    11          0.674              1.727              1.592
 Vibration    12          0.687              1.690              1.466
 Vibration    13          0.714              1.613              1.254
 Vibration    14          0.746              1.523              1.058
 Vibration    15          0.764              1.475              0.971
 Vibration    16          0.781              1.431              0.898
 Vibration    17          0.823              1.327              0.751
 Vibration    18          0.847              1.268              0.679
 Vibration    19          0.914              1.120              0.526
 Vibration    20          0.958              1.032              0.450

 Optimization completed.
    -- Stationary point found.
 Normal termination of Gaussian 16 at Wed Dec  9 23:46:41 2020.

 ----------------------------------------------------------------------
 # B3LYP/6-311++G(d,p) empiricaldispersion=gd3bj scf=xqc pop=npa geom=c
 heck
 ----------------------------------------------------------------------

 ---------------------------------------
 CID_103563891_JID_3554_Energie_neutraal
 ---------------------------------------
 Structure from the checkpoint file:  "JID_3554.chk"
 Charge =  0 Multiplicity = 1

 SCF Done:  E(RB3LYP) =  -898.578204716     A.U. after   15 cycles
 Normal termination of Gaussian 16 at Wed Dec  9 23:49:39 2020.

 ----------------------------------------------------------------------
 # B3LYP/6-311++G(d,p) empiricaldispersion=gd3bj scf=xqc pop=npa geom=c
 heck
 ----------------------------------------------------------------------

 -------------------------------------
 CID_103563891_JID_3554_Energie_kation
 -------------------------------------
 Structure from the checkpoint file:  "JID_3554.chk"
 Charge =  1 Multiplicity = 2

 SCF Done:  E(UB3LYP) =  -898.280174108     A.U. after   27 cycles
 Normal termination of Gaussian 16 at Wed Dec  9 23:56:42 2020.
 Gaussian 16:  ES64L-G16RevA.03 25-Dec-2016

 ----------------------------------------------------------------------
 # B3LYP/6-311++G(d,p) empiricaldispersion=gd3bj scf=xqc pop=npa geom=c
 heck
 ----------------------------------------------------------------------

 ------------------------------------
 CID_103563891_JID_3554_Energie_anion
 ------------------------------------
 Structure from the checkpoint file:  "JID_3554.chk"
 Charge = -1 Multiplicity = 2

                         Standard orientation:
 ---------------------------------------------------------------------
 Center     Atomic      Atomic             Coordinates (Angstroms)
 Number     Number       Type             X           Y           Z
 ---------------------------------------------------------------------
      1          6           0       -3.974960   -0.838431   -0.230756
      2          6           0       -2.547183   -1.361088   -0.339861
      3          6           0       -1.626185   -0.987398    0.854995
      4          6           0       -0.940829    0.104874   -0.016645
      5          6           0       -1.623422   -0.528680   -1.272263
      6          6           0        0.567938    0.057860   -0.039459
      7          7           0        1.306673   -0.906097    0.422046
      8          6           0        2.653911   -0.700938    0.172362
      9          6           0        2.940490    0.451589   -0.502092
     10         16           0        1.486856    1.338295   -0.845792
     11          6           0        3.645784   -1.718241    0.648428
     12          7           0       -1.502051    1.429465    0.232690
     13          6           0       -1.097980    2.058153    1.487142
     14          1           0       -4.522078   -1.357960    0.565750
     15          1           0       -3.971254    0.232242   -0.002495
     16          1           0       -4.523005   -0.989085   -1.169241
     17          1           0       -2.556520   -2.431351   -0.572888
     18          1           0       -2.125633   -0.614885    1.753787
     19          1           0       -0.923235   -1.775468    1.128344
     20          1           0       -0.928202   -1.143072   -1.850044
     21          1           0       -2.112193    0.190835   -1.938156
     22          1           0        3.909647    0.828437   -0.797843
     23          1           0        3.588284   -1.834990    1.736765
     24          1           0        3.436722   -2.699122    0.206175
     25          1           0        4.666796   -1.429166    0.383988
     26          1           0       -1.305217    2.042904   -0.556409
     27          1           0       -0.011370    2.199892    1.600490
     28          1           0       -1.585647    3.034504    1.565992
     29          1           0       -1.444538    1.443791    2.324192
 ---------------------------------------------------------------------

 SCF Done:  E(UB3LYP) =  -898.561911247     A.U. after   33 cycles
 SCF Done:  E(UB3LYP) =  -898.561911247     a.u. after    1 cycles

 The electronic state is 2-A.
 Alpha  occ. eigenvalues --  -88.77308 -14.21153 -14.20654 -10.12865 -10.12146
 Alpha  occ. eigenvalues --  -10.10501 -10.09297 -10.09096 -10.07808 -10.07279
 Alpha  occ. eigenvalues --  -10.06647 -10.06502 -10.06133  -7.85948  -5.82212
 Alpha  occ. eigenvalues --   -5.81873  -5.81564  -0.86239  -0.82411  -0.73888
 Alpha  occ. eigenvalues --   -0.69051  -0.67462  -0.63061  -0.58627  -0.57763
 Alpha  occ. eigenvalues --   -0.56539  -0.52177  -0.47586  -0.45150  -0.42928
 Alpha  occ. eigenvalues --   -0.40484  -0.39461  -0.36997  -0.35148  -0.33963
 Alpha  occ. eigenvalues --   -0.32811  -0.32463  -0.32303  -0.30839  -0.29579
 Alpha  occ. eigenvalues --   -0.28968  -0.28598  -0.28261  -0.27550  -0.25479
 Alpha  occ. eigenvalues --   -0.23893  -0.23141  -0.21660  -0.20818  -0.17954
 Alpha  occ. eigenvalues --   -0.17494  -0.13904  -0.13177   0.04539
 Alpha virt. eigenvalues --    0.06114   0.06900   0.06968   0.07862   0.08315
 Alpha virt. eigenvalues --    0.08729   0.09652   0.09663   0.10246   0.10429
 Alpha virt. eigenvalues --    0.11283   0.11791   0.12161   0.12831   0.13197

  Beta  occ. eigenvalues --  -88.77297 -14.21144 -14.20635 -10.12805 -10.12150
  Beta  occ. eigenvalues --  -10.10503 -10.09278 -10.09041 -10.07801 -10.07266
  Beta  occ. eigenvalues --  -10.06611 -10.06489 -10.06116  -7.85937  -5.82198
  Beta  occ. eigenvalues --   -5.81866  -5.81540  -0.86181  -0.82393  -0.73866
  Beta  occ. eigenvalues --   -0.68987  -0.67406  -0.63032  -0.58581  -0.57693
  Beta  occ. eigenvalues --   -0.56496  -0.52114  -0.47520  -0.45095  -0.42894
  Beta  occ. eigenvalues --   -0.40427  -0.39418  -0.36962  -0.35100  -0.33899
  Beta  occ. eigenvalues --   -0.32771  -0.32424  -0.32266  -0.30790  -0.29547
  Beta  occ. eigenvalues --   -0.28913  -0.28568  -0.28190  -0.27503  -0.25407
  Beta  occ. eigenvalues --   -0.23854  -0.23111  -0.21637  -0.20785  -0.17826
  Beta  occ. eigenvalues --   -0.17463  -0.13853  -0.13016
  Beta virt. eigenvalues --    0.06411   0.07259   0.07348   0.07373   0.08187
  Beta virt. eigenvalues --    0.09035   0.09125   0.09855   0.09970   0.10464
  Beta virt. eigenvalues --    0.10884   0.11442   0.11965   0.12392   0.13002

 Mulliken charges and spin densities:
               1          2
     1  C    0.681090  -1.460956
     2  C   -0.210495   0.958076
     3  C   -0.524276  -0.103070
     4  C    0.284733  -0.719495
     5  C   -0.557791  -0.101716
     6  C   -0.320849   0.737910
     7  N   -0.002026   0.204405
     8  C   -0.836836   0.365217
     9  C   -1.160648   1.634162
    10  S    0.980243  -1.437490
    11  C    3.270971  -3.975992
    12  N   -0.052408   0.018476
    13  C    0.151820  -0.510438
    14  H   -0.092288   0.216762
    15  H    0.048500   0.150906
    16  H   -0.089913   0.205840
    17  H   -0.275536   0.493130
    18  H   -0.105798   0.238339
    19  H    0.135118   0.053531
    20  H    0.018934   0.157983
    21  H   -0.114536   0.243660
    22  H   -1.526071   1.796031
    23  H   -0.145937   0.300878
    24  H   -0.163128   0.314849
    25  H   -0.384730   0.538071
    26  H    0.238601   0.032333
    27  H   -0.035064   0.169928
    28  H   -0.183080   0.310234
    29  H   -0.028599   0.168438
 Sum of Mulliken charges =  -1.00000   1.00000

 Dipole moment (field-independent basis, Debye):
    X=             -4.8676    Y=              1.2331    Z=             -0.4031  Tot=              5.0375
 Quadrupole moment (field-independent basis, Debye-Ang):
   XX=           -182.4426   YY=           -126.9500   ZZ=           -118.1647
   XY=             -1.7728   XZ=              1.9072   YZ=              0.2484

 Summary of Natural Population Analysis:

                                       Natural Population
                Natural  -----------------------------------------------
    Atom  No    Charge         Core      Valence    Rydberg      Total
 -----------------------------------------------------------------------
      C    1   -0.28460      0.99965     2.27983    0.00512     3.28460
      C    2   -0.11146      0.99962     2.10040    0.01144     3.11146
      C    3   -0.18320      0.99959     2.17384    0.00977     3.18320
      C    4    0.03510      0.99949     1.94894    0.01647     2.96490
      C    5   -0.17497      0.99959     2.16624    0.00915     3.17497
      C    6    0.05746      0.99952     1.92312    0.01990     2.94254
      N    7   -0.24861      0.99962     2.73730    0.01168     3.74861
      C    8    0.06260      0.99948     1.92283    0.01508     2.93740
      C    9   -0.20047      0.99945     2.18930    0.01172     3.20047
      S   10    0.17452      4.99943     2.80628    0.01976     7.82548
      C   11   -0.29119      0.99962     2.28628    0.00528     3.29119
      N   12   -0.33892      0.99972     2.82734    0.01186     3.83892
      C   13   -0.18093      0.99965     2.17431    0.00697     3.18093
      H   14    0.09618      0.00000     0.40268    0.00115     0.40382
      H   15    0.10523      0.00000     0.39317    0.00160     0.39477
      H   16    0.09520      0.00000     0.40366    0.00114     0.40480
      H   17    0.09407      0.00000     0.40480    0.00113     0.40593
      H   18    0.09860      0.00000     0.40038    0.00102     0.40140
      H   19    0.11426      0.00000     0.38378    0.00196     0.38574
      H   20    0.10491      0.00000     0.39387    0.00123     0.39509
      H   21    0.09748      0.00000     0.40140    0.00112     0.40252
      H   22    0.11512      0.00000     0.38108    0.00380     0.38488
      H   23    0.10590      0.00000     0.39254    0.00156     0.39410
      H   24    0.10540      0.00000     0.39313    0.00146     0.39460
      H   25    0.10533      0.00000     0.39292    0.00175     0.39467
      H   26    0.17392      0.00000     0.32341    0.00267     0.32608
      H   27    0.08579      0.00000     0.41249    0.00172     0.41421
      H   28    0.09420      0.00000     0.40477    0.00103     0.40580
      H   29    0.09307      0.00000     0.40571    0.00122     0.40693
 =======================================================================
   * Total *    0.00000     16.99442    35.82580    0.17978    53.00000

 Normal termination of Gaussian 16 at Thu Dec 10 00:05:24 2020.
