 Gaussian 16, Revision A.03,

 -----------------------------------------------------------
 # opt freq B3LYP/6-31G(d) empiricaldispersion=gd3bj scf=xqc
 -----------------------------------------------------------

 --------------------------------
 CID_153734110_JID_10432_neutraal
 --------------------------------
 Symbolic Z-matrix:
 Charge =  0 Multiplicity = 1

 SCF Done:  E(RB3LYP) =  -874.276148580     A.U. after   17 cycles
 SCF Done:  E(RB3LYP) =  -874.282189786     A.U. after   13 cycles
 SCF Done:  E(RB3LYP) =  -874.282849568     A.U. after   13 cycles
 SCF Done:  E(RB3LYP) =  -874.283540423     A.U. after   13 cycles
 SCF Done:  E(RB3LYP) =  -874.284107400     A.U. after   13 cycles
 SCF Done:  E(RB3LYP) =  -874.285034705     A.U. after   15 cycles
 SCF Done:  E(RB3LYP) =  -874.285923112     A.U. after   13 cycles
 SCF Done:  E(RB3LYP) =  -874.286630153     A.U. after   14 cycles
 SCF Done:  E(RB3LYP) =  -874.286858128     A.U. after   12 cycles
 SCF Done:  E(RB3LYP) =  -874.287102746     A.U. after   13 cycles
 SCF Done:  E(RB3LYP) =  -874.290207751     A.U. after   11 cycles
 SCF Done:  E(RB3LYP) =  -874.290208439     A.U. after    8 cycles
 SCF Done:  E(RB3LYP) =  -874.290210100     A.U. after    9 cycles
 SCF Done:  E(RB3LYP) =  -874.290210994     A.U. after    8 cycles
 Optimization completed.
    -- Stationary point found.
 Normal termination of Gaussian 16 at Mon Dec 14 17:56:14 2020.

 --------------------------------------------------------------------
 #N Geom=AllCheck Guess=TCheck SCRF=Check GenChk RB3LYP/6-31G(d) Freq
 --------------------------------------------------------------------

 Structure from the checkpoint file:  "JID_10432.chk"
 --------------------------------
 CID_153734110_JID_10432_neutraal
 --------------------------------
 Charge =  0 Multiplicity = 1

 SCF Done:  E(RB3LYP) =  -874.290210994     A.U. after    1 cycles

  Exact polarizability: 202.265  23.464 233.912 -23.387  18.778 102.566
 Approx polarizability: 303.156  59.359 382.368 -39.128  44.689 173.791

                      1                      2                      3
                      A                      A                      A
 Frequencies --     14.7597                21.0611                33.5699
 Red. masses --      5.4591                 5.0965                 4.9117
 Frc consts  --      0.0007                 0.0013                 0.0033
 IR Inten    --      0.0556                 0.2589                 0.2059

                      4                      5                      6
                      A                      A                      A
 Frequencies --     49.8074                58.2845                74.6816
 Red. masses --      4.0892                 4.9980                 8.9441
 Frc consts  --      0.0060                 0.0100                 0.0294
 IR Inten    --      0.1316                 1.0049                 1.8807

                      7                      8                      9
                      A                      A                      A
 Frequencies --     95.2440               116.2543               135.5766
 Red. masses --      8.9928                 6.5163                 7.4879
 Frc consts  --      0.0481                 0.0519                 0.0811
 IR Inten    --      0.4337                 0.4138                 0.2623

                     10                     11                     12
                      A                      A                      A
 Frequencies --    206.4794               224.6295               233.5151
 Red. masses --      4.6892                 4.7769                 7.3329
 Frc consts  --      0.1178                 0.1420                 0.2356
 IR Inten    --      0.0378                 2.6725                 3.0068

                     13                     14                     15
                      A                      A                      A
 Frequencies --    284.1301               327.2907               375.0519
 Red. masses --      5.0388                 4.1822                 2.8128
 Frc consts  --      0.2397                 0.2640                 0.2331
 IR Inten    --      4.9965                 0.8897                 6.5991

                     16                     17                     18
                      A                      A                      A
 Frequencies --    411.3132               416.2884               419.4027
 Red. masses --      2.1489                 2.9519                 3.0158
 Frc consts  --      0.2142                 0.3014                 0.3125
 IR Inten    --      7.0655                 0.0936                 0.0115

                     19                     20                     21
                      A                      A                      A
 Frequencies --    465.1327               478.9521               510.8973
 Red. masses --      3.4671                 3.7413                11.3349
 Frc consts  --      0.4419                 0.5057                 1.7431
 IR Inten    --      1.6929                 1.4077                 0.8143

                     22                     23                     24
                      A                      A                      A
 Frequencies --    544.8542               576.5250               599.8739
 Red. masses --      4.9639                13.9380                 5.4384
 Frc consts  --      0.8682                 2.7295                 1.1530
 IR Inten    --     23.9598                 8.2765                 8.8193

                     25                     26                     27
                      A                      A                      A
 Frequencies --    625.2122               636.9550               637.6046
 Red. masses --      4.1716                 6.1319                 6.1985
 Frc consts  --      0.9607                 1.4658                 1.4847
 IR Inten    --     18.2820                 0.0277                 0.3141

                     28                     29                     30
                      A                      A                      A
 Frequencies --    698.4829               717.4546               718.9983
 Red. masses --      4.8703                 2.1535                 1.9486
 Frc consts  --      1.4000                 0.6531                 0.5935
 IR Inten    --     17.9296                53.3938                13.3446

                     31                     32                     33
                      A                      A                      A
 Frequencies --    726.7900               768.8523               774.0582
 Red. masses --      3.6622                 2.1954                 2.0791
 Frc consts  --      1.1397                 0.7646                 0.7340
 IR Inten    --     25.1672                 2.9269                33.1299

                     34                     35                     36
                      A                      A                      A
 Frequencies --    832.0311               837.4271               862.0022
 Red. masses --      3.8401                 3.8761                 1.2544
 Frc consts  --      1.5663                 1.6015                 0.5492
 IR Inten    --      0.6368                11.8488                 0.9577

                     37                     38                     39
                      A                      A                      A
 Frequencies --    864.1291               869.8181               923.9165
 Red. masses --      6.6227                 1.2560                 1.3948
 Frc consts  --      2.9137                 0.5599                 0.7015
 IR Inten    --      8.1331                 0.6502                 4.9768

                     40                     41                     42
                      A                      A                      A
 Frequencies --    931.2473               961.0200               970.1393
 Red. masses --      1.5090                 2.0278                 1.3668
 Frc consts  --      0.7710                 1.1034                 0.7579
 IR Inten    --      2.2332                15.2239                 0.3128

                     43                     44                     45
                      A                      A                      A
 Frequencies --    976.4687               978.0246               998.3778
 Red. masses --      1.8798                 1.4855                 1.2653
 Frc consts  --      1.0560                 0.8372                 0.7431
 IR Inten    --      5.6643                 1.8996                 0.7975

                     46                     47                     48
                      A                      A                      A
 Frequencies --   1002.8238              1022.6510              1023.1071
 Red. masses --      1.2660                 6.2500                 6.2125
 Frc consts  --      0.7501                 3.8511                 3.8314
 IR Inten    --      1.4732                 0.1544                 1.0125

                     49                     50                     51
                      A                      A                      A
 Frequencies --   1042.9736              1060.3193              1061.4521
 Red. masses --      2.9070                 2.2016                 2.2092
 Frc consts  --      1.8631                 1.4583                 1.4665
 IR Inten    --     79.2208                 3.9426                 6.4983

                     52                     53                     54
                      A                      A                      A
 Frequencies --   1117.7685              1120.2296              1194.0703
 Red. masses --      1.5465                 1.6062                 1.2311
 Frc consts  --      1.1384                 1.1876                 1.0342
 IR Inten    --     11.4388                27.6058                 2.6755

                     55                     56                     57
                      A                      A                      A
 Frequencies --   1194.5484              1196.4119              1214.0183
 Red. masses --      1.1030                 2.0454                 1.1371
 Frc consts  --      0.9273                 1.7250                 0.9874
 IR Inten    --      0.2104                18.1399                 0.7750

                     58                     59                     60
                      A                      A                      A
 Frequencies --   1216.5863              1237.4901              1239.5117
 Red. masses --      1.1462                 2.7183                 2.9826
 Frc consts  --      0.9996                 2.4526                 2.6999
 IR Inten    --      4.1985                21.2187                14.6495

                     61                     62                     63
                      A                      A                      A
 Frequencies --   1250.5669              1300.0106              1328.4579
 Red. masses --      1.6295                 1.9062                 6.5032
 Frc consts  --      1.5015                 1.8981                 6.7620
 IR Inten    --    256.5964               168.1194               308.4643

                     64                     65                     66
                      A                      A                      A
 Frequencies --   1354.8751              1365.3992              1369.3724
 Red. masses --      2.8174                 3.3481                 1.8440
 Frc consts  --      3.0472                 3.6777                 2.0373
 IR Inten    --    113.6433                 3.0313                 3.1084

                     67                     68                     69
                      A                      A                      A
 Frequencies --   1372.8731              1403.1180              1416.9938
 Red. masses --      1.3990                 1.3195                 1.4134
 Frc consts  --      1.5536                 1.5306                 1.6720
 IR Inten    --      8.4792                12.8573                16.0623

                     70                     71                     72
                      A                      A                      A
 Frequencies --   1464.0321              1504.7549              1507.6948
 Red. masses --      2.7538                 2.0950                 1.9056
 Frc consts  --      3.4777                 2.7950                 2.5521
 IR Inten    --    287.8163                 3.1709                10.7650

                     73                     74                     75
                      A                      A                      A
 Frequencies --   1512.6647              1519.3817              1548.9998
 Red. masses --      1.1804                 1.1409                 2.2068
 Frc consts  --      1.5914                 1.5518                 3.1198
 IR Inten    --     11.5010                13.6629                 7.7032

                     76                     77                     78
                      A                      A                      A
 Frequencies --   1549.6713              1648.8908              1650.2444
 Red. masses --      2.1841                 5.5590                 5.5719
 Frc consts  --      3.0903                 8.9049                 8.9403
 IR Inten    --     10.4948                 1.2833                 0.9386

                     79                     80                     81
                      A                      A                      A
 Frequencies --   1668.6031              1669.1822              1777.7271
 Red. masses --      5.5120                 5.5533                11.2881
 Frc consts  --      9.0420                 9.1161                21.0185
 IR Inten    --      2.2258                 1.6829               355.0707

                     82                     83                     84
                      A                      A                      A
 Frequencies --   2306.0935              3057.7016              3089.5276
 Red. masses --     13.9902                 1.0706                 1.0657
 Frc consts  --     43.8356                 5.8978                 5.9933
 IR Inten    --    710.2554                22.0329                19.9032

                     85                     86                     87
                      A                      A                      A
 Frequencies --   3152.2095              3160.4616              3178.5758
 Red. masses --      1.0925                 1.0991                 1.0861
 Frc consts  --      6.3959                 6.4684                 6.4653
 IR Inten    --      2.3844                 2.0321                11.4587

                     88                     89                     90
                      A                      A                      A
 Frequencies --   3180.6185              3185.3312              3186.5826
 Red. masses --      1.0856                 1.0868                 1.0873
 Frc consts  --      6.4707                 6.4972                 6.5051
 IR Inten    --      2.5597                 0.9829                 0.9590

                     91                     92                     93
                      A                      A                      A
 Frequencies --   3194.0367              3195.1877              3202.2628
 Red. masses --      1.0904                 1.0909                 1.0942
 Frc consts  --      6.5543                 6.5620                 6.6111
 IR Inten    --     16.5980                12.1372                25.4105

                     94                     95                     96
                      A                      A                      A
 Frequencies --   3203.1486              3211.6766              3212.6908
 Red. masses --      1.0942                 1.0980                 1.0980
 Frc consts  --      6.6144                 6.6731                 6.6773
 IR Inten    --     29.6544                23.1670                19.6054

 - Thermochemistry -
 -------------------
 Temperature   298.150 Kelvin.  Pressure   1.00000 Atm.
 Atom     1 has atomic number  6 and mass  12.00000

 Molecular mass:   266.11676 amu.
 Principal axes and moments of inertia in atomic units:
                           1         2         3
     Eigenvalues --  5534.909295777.61546**********
           X            0.97935  -0.20208  -0.00558
           Y            0.20212   0.97934   0.00708
           Z            0.00404  -0.00806   0.99996
 This molecule is an asymmetric top.
 Rotational symmetry number  1.
 Warning -- assumption of classical behavior for rotation
           may cause significant error
 Rotational temperatures (Kelvin)      0.01565     0.01499     0.00829
 Rotational constants (GHZ):           0.32607     0.31237     0.17280
 Zero-point vibrational energy     710738.3 (Joules/Mol)
                                  169.87053 (Kcal/Mol)
 Warning -- explicit consideration of  24 degrees of freedom as
           vibrations may cause significant error
 Vibrational temperatures:     21.24    30.30    48.30    71.66    83.86
          (Kelvin)            107.45   137.03   167.26   195.06   297.08
                              323.19   335.98   408.80   470.90   539.62
                              591.79   598.95   603.43   669.22   689.11
                              735.07   783.92   829.49   863.08   899.54
                              916.44   917.37  1004.96  1032.26  1034.48
                             1045.69  1106.21  1113.70  1197.11  1204.87
                             1240.23  1243.29  1251.47  1329.31  1339.86
                             1382.69  1395.81  1404.92  1407.16  1436.44
                             1442.84  1471.37  1472.02  1500.61  1525.56
                             1527.19  1608.22  1611.76  1718.00  1718.69
                             1721.37  1746.70  1750.40  1780.47  1783.38
                             1799.29  1870.43  1911.35  1949.36  1964.50
                             1970.22  1975.26  2018.77  2038.74  2106.42
                             2165.01  2169.24  2176.39  2186.05  2228.67
                             2229.63  2372.39  2374.33  2400.75  2401.58
                             2557.75  3317.95  4399.35  4445.14  4535.33
                             4547.20  4573.26  4576.20  4582.98  4584.78
                             4595.51  4597.16  4607.34  4608.62  4620.89
                             4622.35

 Zero-point correction=                           0.270706 (Hartree/Particle)
 Thermal correction to Energy=                    0.287761
 Thermal correction to Enthalpy=                  0.288706
 Thermal correction to Gibbs Free Energy=         0.221844
 Sum of electronic and zero-point Energies=           -874.019505
 Sum of electronic and thermal Energies=              -874.002450
 Sum of electronic and thermal Enthalpies=            -874.001505
 Sum of electronic and thermal Free Energies=         -874.068367

                     E (Thermal)             CV                S
                      KCal/Mol        Cal/Mol-Kelvin    Cal/Mol-Kelvin
 Total                  180.573             64.388            140.721
 Electronic               0.000              0.000              0.000
 Translational            0.889              2.981             42.636
 Rotational               0.889              2.981             34.168
 Vibrational            178.796             58.427             63.918
 Vibration     1          0.593              1.986              7.238
 Vibration     2          0.593              1.985              6.532
 Vibration     3          0.594              1.983              5.606
 Vibration     4          0.595              1.978              4.825
 Vibration     5          0.596              1.974              4.514
 Vibration     6          0.599              1.966              4.026
 Vibration     7          0.603              1.953              3.549
 Vibration     8          0.608              1.936              3.162
 Vibration     9          0.613              1.918              2.865
 Vibration    10          0.641              1.831              2.075
 Vibration    11          0.649              1.804              1.921
 Vibration    12          0.654              1.790              1.852
 Vibration    13          0.683              1.703              1.509
 Vibration    14          0.711              1.621              1.273
 Vibration    15          0.746              1.523              1.059
 Vibration    16          0.775              1.446              0.922
 Vibration    17          0.780              1.435              0.905
 Vibration    18          0.782              1.428              0.894
 Vibration    19          0.823              1.327              0.751
 Vibration    20          0.835              1.297              0.713
 Vibration    21          0.866              1.226              0.631
 Vibration    22          0.900              1.151              0.555
 Vibration    23          0.933              1.082              0.492
 Vibration    24          0.958              1.032              0.450

                           ! Non-Optimized Parameters !
 Normal termination of Gaussian 16 at Mon Dec 14 18:12:56 2020.

 ----------------------------------------------------------------------
 # B3LYP/6-311++G(d,p) empiricaldispersion=gd3bj scf=xqc pop=npa geom=c
 heck
 ----------------------------------------------------------------------

 ----------------------------------------
 CID_153734110_JID_10432_Energie_neutraal
 ----------------------------------------
 Structure from the checkpoint file:  "JID_10432.chk"
 Charge =  0 Multiplicity = 1

 SCF Done:  E(RB3LYP) =  -874.522361123     A.U. after   16 cycles
 Normal termination of Gaussian 16 at Mon Dec 14 18:20:27 2020.

 ----------------------------------------------------------------------
 # B3LYP/6-311++G(d,p) empiricaldispersion=gd3bj scf=xqc pop=npa geom=c
 heck
 ----------------------------------------------------------------------

 --------------------------------------
 CID_153734110_JID_10432_Energie_kation
 --------------------------------------
 Structure from the checkpoint file:  "JID_10432.chk"
 Charge =  1 Multiplicity = 2

 SCF Done:  E(UB3LYP) =  -874.214337449     A.U. after   33 cycles
 SCF Done:  E(UB3LYP) =  -874.214337449     a.u. after    1 cycles
 Normal termination of Gaussian 16 at Mon Dec 14 18:43:25 2020.
 Gaussian 16:  ES64L-G16RevA.03 25-Dec-2016

 ----------------------------------------------------------------------
 # B3LYP/6-311++G(d,p) empiricaldispersion=gd3bj scf=xqc pop=npa geom=c
 heck
 ----------------------------------------------------------------------

 -------------------------------------
 CID_153734110_JID_10432_Energie_anion
 -------------------------------------
 Structure from the checkpoint file:  "JID_10432.chk"
 Charge = -1 Multiplicity = 2

                         Standard orientation:
 ---------------------------------------------------------------------
 Center     Atomic      Atomic             Coordinates (Angstroms)
 Number     Number       Type             X           Y           Z
 ---------------------------------------------------------------------
      1          6           0        3.220422   -3.160681   -0.533200
      2          6           0        1.908413   -3.520900   -0.228054
      3          6           0        1.043541   -2.585542    0.344358
      4          6           0        1.483124   -1.287891    0.619427
      5          6           0        2.802414   -0.932129    0.309647
      6          6           0        3.665654   -1.863579   -0.262973
      7          6           0        0.542958   -0.259167    1.207512
      8          7           0        0.189371    0.783509    0.236025
      9          6           0       -0.615528    0.362492   -0.912165
     10          6           0       -1.967604   -0.171948   -0.491986
     11          6           0       -2.369539   -1.458470   -0.858922
     12          6           0       -3.619208   -1.948786   -0.473915
     13          6           0       -4.474153   -1.154909    0.289504
     14          6           0       -4.076037    0.131106    0.664940
     15          6           0       -2.830584    0.618803    0.275832
     16          6           0        0.797716    1.993722    0.352091
     17          8           0        1.610859    2.300960    1.210882
     18          7           0        0.348450    2.915953   -0.662643
     19          7           0        0.890219    4.031267   -0.592389
     20          7           0        1.320682    5.079778   -0.619692
     21          1           0        3.895347   -3.886189   -0.978571
     22          1           0        1.556349   -4.527594   -0.435846
     23          1           0        0.018359   -2.861866    0.578743
     24          1           0        3.142845    0.077045    0.525540
     25          1           0        4.688572   -1.580671   -0.495432
     26          1           0       -0.385224   -0.735614    1.536595
     27          1           0        0.996487    0.246753    2.060051
     28          1           0       -0.728788    1.221780   -1.573258
     29          1           0       -0.064806   -0.411051   -1.461183
     30          1           0       -1.697540   -2.079749   -1.445860
     31          1           0       -3.919986   -2.951153   -0.765536
     32          1           0       -5.445088   -1.535033    0.594043
     33          1           0       -4.738337    0.753287    1.260355
     34          1           0       -2.515659    1.616097    0.571626
 ---------------------------------------------------------------------

 SCF Done:  E(UB3LYP) =  -874.520404879     A.U. after   33 cycles
 SCF Done:  E(UB3LYP) =  -874.520404880     a.u. after    2 cycles

 The electronic state is 2-A.
 Alpha  occ. eigenvalues --  -18.99138 -14.34198 -14.25642 -14.24981 -14.24424
 Alpha  occ. eigenvalues --  -10.19898 -10.11406 -10.11345 -10.09324 -10.09144
 Alpha  occ. eigenvalues --  -10.09103 -10.08989 -10.08915 -10.08854 -10.08809
 Alpha  occ. eigenvalues --  -10.08567 -10.08536 -10.08485 -10.08451 -10.08333
 Alpha  occ. eigenvalues --   -1.02345  -0.95260  -0.85682  -0.85021  -0.77307
 Alpha  occ. eigenvalues --   -0.76868  -0.69039  -0.67959  -0.66205  -0.65890
 Alpha  occ. eigenvalues --   -0.62045  -0.60560  -0.54166  -0.52280  -0.52017
 Alpha  occ. eigenvalues --   -0.50515  -0.49346  -0.44849  -0.43453  -0.42284
 Alpha  occ. eigenvalues --   -0.40326  -0.39513  -0.38369  -0.37888  -0.37472
 Alpha  occ. eigenvalues --   -0.37041  -0.35565  -0.34784  -0.34249  -0.33684
 Alpha  occ. eigenvalues --   -0.33396  -0.32991  -0.32317  -0.30897  -0.30003
 Alpha  occ. eigenvalues --   -0.29869  -0.27940  -0.27585  -0.26425  -0.25940
 Alpha  occ. eigenvalues --   -0.25621  -0.25516  -0.23210  -0.17380  -0.17298
 Alpha  occ. eigenvalues --   -0.16874  -0.16541  -0.16346  -0.16170  -0.14605
 Alpha  occ. eigenvalues --    0.03978
 Alpha virt. eigenvalues --    0.05326   0.05896   0.06363   0.06758   0.07053
 Alpha virt. eigenvalues --    0.07109   0.07404   0.08038   0.08460   0.09091
 Alpha virt. eigenvalues --    0.09324   0.10045   0.10100   0.10822   0.11464

  Beta  occ. eigenvalues --  -18.99142 -14.33791 -14.25204 -14.24980 -14.24471
  Beta  occ. eigenvalues --  -10.19817 -10.11401 -10.11335 -10.09291 -10.09146
  Beta  occ. eigenvalues --  -10.09071 -10.08971 -10.08883 -10.08857 -10.08807
  Beta  occ. eigenvalues --  -10.08556 -10.08508 -10.08463 -10.08430 -10.08309
  Beta  occ. eigenvalues --   -1.01674  -0.95157  -0.85534  -0.84852  -0.77263
  Beta  occ. eigenvalues --   -0.76816  -0.68975  -0.67879  -0.66174  -0.65840
  Beta  occ. eigenvalues --   -0.61931  -0.60483  -0.53927  -0.52258  -0.51976
  Beta  occ. eigenvalues --   -0.50443  -0.49219  -0.44700  -0.43405  -0.42204
  Beta  occ. eigenvalues --   -0.40075  -0.39074  -0.37955  -0.37735  -0.37197
  Beta  occ. eigenvalues --   -0.36711  -0.35377  -0.34712  -0.34014  -0.33517
  Beta  occ. eigenvalues --   -0.33287  -0.32291  -0.32264  -0.30846  -0.29933
  Beta  occ. eigenvalues --   -0.29779  -0.27856  -0.27480  -0.26379  -0.25906
  Beta  occ. eigenvalues --   -0.25591  -0.25473  -0.22488  -0.17267  -0.17211
  Beta  occ. eigenvalues --   -0.16759  -0.16426  -0.16197  -0.15948  -0.14528
  Beta virt. eigenvalues --    0.05931   0.06377   0.06547   0.06824   0.07106
  Beta virt. eigenvalues --    0.07429   0.07545   0.08327   0.08592   0.09247
  Beta virt. eigenvalues --    0.09434   0.09766   0.10261   0.10417   0.10951

 Mulliken charges and spin densities:
               1          2
     1  C    0.246713  -0.526725
     2  C   -0.069072  -0.246140
     3  C   -0.506199   0.068118
     4  C    0.870401   0.263506
     5  C   -0.306407   0.355328
     6  C   -0.340893  -0.074144
     7  C   -0.559358  -0.539104
     8  N    0.324237   0.054583
     9  C    0.163708  -1.654128
    10  C    0.662213   0.756309
    11  C   -1.147449   0.801449
    12  C    0.544088  -0.869406
    13  C    0.530737  -0.824968
    14  C   -0.280426  -0.136287
    15  C   -0.596552   0.470817
    16  C    0.094250   0.022939
    17  O   -0.323275  -0.004982
    18  N   -0.355035  -0.018710
    19  N    0.597153   0.155419
    20  N   -0.412006   0.296244
    21  H   -0.091910   0.235758
    22  H   -0.430165   0.614061
    23  H    0.230474  -0.071916
    24  H    0.192245  -0.000762
    25  H    0.105652   0.059703
    26  H    0.158501   0.009161
    27  H    0.253350  -0.014516
    28  H    0.045665   0.225529
    29  H    0.296078  -0.145707
    30  H   -0.149441   0.314945
    31  H   -0.628335   0.811331
    32  H   -0.244145   0.396486
    33  H    0.021309   0.146161
    34  H    0.103895   0.069650
 Sum of Mulliken charges =  -1.00000   1.00000

 Dipole moment (field-independent basis, Debye):
    X=              1.2047    Y=             -1.1328    Z=              1.3313  Tot=              2.1230
 Quadrupole moment (field-independent basis, Debye-Ang):
   XX=           -173.6852   YY=           -202.9005   ZZ=           -138.2470
   XY=            -18.7768   XZ=             -6.1953   YZ=             -3.6806

 Summary of Natural Population Analysis:

                                       Natural Population
                Natural  -----------------------------------------------
    Atom  No    Charge         Core      Valence    Rydberg      Total
 -----------------------------------------------------------------------
      C    1   -0.10177      0.99957     2.09201    0.01019     3.10177
      C    2   -0.09987      0.99957     2.09014    0.01017     3.09987
      C    3   -0.10228      0.99951     2.09363    0.00914     3.10228
      C    4   -0.02056      0.99950     2.01138    0.00969     3.02056
      C    5   -0.09737      0.99951     2.08879    0.00907     3.09737
      C    6   -0.10175      0.99957     2.09327    0.00891     3.10175
      C    7   -0.09496      0.99957     2.08484    0.01055     3.09496
      N    8   -0.25213      0.99962     2.74280    0.00970     3.75213
      C    9   -0.09594      0.99956     2.08579    0.01058     3.09594
      C   10   -0.02143      0.99949     2.01185    0.01008     3.02143
      C   11   -0.10261      0.99951     2.09338    0.00973     3.10261
      C   12   -0.09622      0.99956     2.08615    0.01050     3.09622
      C   13   -0.10127      0.99956     2.09137    0.01033     3.10127
      C   14   -0.10183      0.99956     2.09303    0.00923     3.10183
      C   15   -0.09487      0.99951     2.08727    0.00809     3.09487
      C   16    0.40419      0.99964     1.57114    0.02503     2.59581
      O   17   -0.33739      0.99987     3.33258    0.00494     4.33739
      N   18   -0.24278      0.99967     2.73096    0.01215     3.74278
      N   19    0.16511      0.99971     2.31911    0.01606     3.33489
      N   20    0.02824      0.99981     2.45982    0.01213     3.47176
      H   21    0.09953      0.00000     0.39968    0.00079     0.40047
      H   22    0.10212      0.00000     0.39680    0.00108     0.39788
      H   23    0.10335      0.00000     0.39515    0.00150     0.39665
      H   24    0.10960      0.00000     0.38905    0.00135     0.39040
      H   25    0.09919      0.00000     0.40008    0.00073     0.40081
      H   26    0.10145      0.00000     0.39734    0.00121     0.39855
      H   27    0.11886      0.00000     0.38009    0.00105     0.38114
      H   28    0.12521      0.00000     0.37336    0.00143     0.37479
      H   29    0.09844      0.00000     0.40017    0.00139     0.40156
      H   30    0.10277      0.00000     0.39551    0.00172     0.39723
      H   31    0.10264      0.00000     0.39578    0.00158     0.39736
      H   32    0.10044      0.00000     0.39858    0.00098     0.39956
      H   33    0.09923      0.00000     0.40001    0.00076     0.40077
      H   34    0.10466      0.00000     0.39395    0.00139     0.39534
 =======================================================================
   * Total *   -0.00000     19.99189    49.77484    0.23326    70.00000

 Normal termination of Gaussian 16 at Mon Dec 14 19:41:52 2020.
