 Gaussian 16, Revision A.03,

 -----------------------------------------------------------
 # opt freq B3LYP/6-31G(d) empiricaldispersion=gd3bj scf=xqc
 -----------------------------------------------------------

 ------------------------------
 CID_82290191_JID_7030_neutraal
 ------------------------------
 Symbolic Z-matrix:
 Charge =  0 Multiplicity = 1

 SCF Done:  E(RB3LYP) =  -715.492794996     A.U. after   13 cycles
 SCF Done:  E(RB3LYP) =  -715.496562057     A.U. after   12 cycles
 SCF Done:  E(RB3LYP) =  -715.497675646     A.U. after   13 cycles
 SCF Done:  E(RB3LYP) =  -715.498684607     A.U. after   11 cycles
 SCF Done:  E(RB3LYP) =  -715.499262874     A.U. after   12 cycles
 SCF Done:  E(RB3LYP) =  -715.499405938     A.U. after   11 cycles
 SCF Done:  E(RB3LYP) =  -715.499417360     A.U. after   10 cycles
 SCF Done:  E(RB3LYP) =  -715.499439048     A.U. after   11 cycles
 SCF Done:  E(RB3LYP) =  -715.499441585     A.U. after    9 cycles
 SCF Done:  E(RB3LYP) =  -715.499442015     A.U. after    7 cycles
 SCF Done:  E(RB3LYP) =  -715.499466547     A.U. after    8 cycles
 SCF Done:  E(RB3LYP) =  -715.499466819     A.U. after    8 cycles
 SCF Done:  E(RB3LYP) =  -715.499467126     A.U. after    9 cycles
 SCF Done:  E(RB3LYP) =  -715.499467144     A.U. after    8 cycles
 SCF Done:  E(RB3LYP) =  -715.499467152     A.U. after    5 cycles
 Optimization completed on the basis of negligible forces.
    -- Stationary point found.
 Normal termination of Gaussian 16 at Mon Dec 14 19:09:27 2020.

 --------------------------------------------------------------------
 #N Geom=AllCheck Guess=TCheck SCRF=Check GenChk RB3LYP/6-31G(d) Freq
 --------------------------------------------------------------------

 Structure from the checkpoint file:  "JID_7030.chk"
 ------------------------------
 CID_82290191_JID_7030_neutraal
 ------------------------------
 Charge =  0 Multiplicity = 1

 SCF Done:  E(RB3LYP) =  -715.499467152     A.U. after    1 cycles

  Exact polarizability: 164.655 -25.367 165.997   3.741   5.296 144.744
 Approx polarizability: 223.479 -45.022 241.524  11.771  11.264 246.887

                      1                      2                      3
                      A                      A                      A
 Frequencies --     22.1250                32.4406                40.9911
 Red. masses --      1.0718                 3.7913                 3.3805
 Frc consts  --      0.0003                 0.0024                 0.0033
 IR Inten    --      0.1905                 0.0314                 0.0940

                      4                      5                      6
                      A                      A                      A
 Frequencies --     63.8802                86.6706               125.7252
 Red. masses --      3.5218                 3.6456                 3.3329
 Frc consts  --      0.0085                 0.0161                 0.0310
 IR Inten    --      0.1556                 1.9467                 0.0820

                      7                      8                      9
                      A                      A                      A
 Frequencies --    158.4830               164.4302               221.2329
 Red. masses --      3.9460                 2.5800                 1.0824
 Frc consts  --      0.0584                 0.0411                 0.0312
 IR Inten    --      0.1886                 1.3973                 0.0356

                     10                     11                     12
                      A                      A                      A
 Frequencies --    238.1429               248.0531               280.0302
 Red. masses --      1.8999                 1.8395                 1.7657
 Frc consts  --      0.0635                 0.0667                 0.0816
 IR Inten    --      1.5845                 0.7445                 0.5329

                     13                     14                     15
                      A                      A                      A
 Frequencies --    302.9097               312.9573               327.8897
 Red. masses --      2.5481                 2.3456                 2.7122
 Frc consts  --      0.1378                 0.1354                 0.1718
 IR Inten    --      1.8987                 0.7720                 1.5894

                     16                     17                     18
                      A                      A                      A
 Frequencies --    364.1542               380.0530               393.3350
 Red. masses --      2.5057                 2.6535                 2.4495
 Frc consts  --      0.1958                 0.2258                 0.2233
 IR Inten    --      1.7795                 3.1418                 0.2282

                     19                     20                     21
                      A                      A                      A
 Frequencies --    420.0127               426.5237               447.4159
 Red. masses --      3.0125                 2.6165                 2.6993
 Frc consts  --      0.3131                 0.2805                 0.3184
 IR Inten    --      0.1029                 0.8727                 6.5970

                     22                     23                     24
                      A                      A                      A
 Frequencies --    467.5118               471.2604               491.6087
 Red. masses --      3.1762                 3.9128                 2.3840
 Frc consts  --      0.4090                 0.5120                 0.3395
 IR Inten    --      0.6244                 1.1957                 1.5166

                     25                     26                     27
                      A                      A                      A
 Frequencies --    534.8156               586.8850               602.1431
 Red. masses --      2.8185                 2.1410                 3.2016
 Frc consts  --      0.4750                 0.4345                 0.6839
 IR Inten    --     13.2556                 0.5319                 0.8412

                     28                     29                     30
                      A                      A                      A
 Frequencies --    660.8022               712.6895               731.9129
 Red. masses --      6.7718                 3.5117                 2.9551
 Frc consts  --      1.7422                 1.0509                 0.9327
 IR Inten    --      0.1065                 0.1410                 0.9823

                     31                     32                     33
                      A                      A                      A
 Frequencies --    781.6710               797.3423               822.5713
 Red. masses --      2.5164                 2.1329                 1.5462
 Frc consts  --      0.9059                 0.7989                 0.6164
 IR Inten    --     55.8498                22.0749                27.6240

                     34                     35                     36
                      A                      A                      A
 Frequencies --    831.5888               858.7422               895.7018
 Red. masses --      3.5718                 1.2629                 2.1848
 Frc consts  --      1.4553                 0.5487                 1.0327
 IR Inten    --      2.9000                 0.4316                 2.9697

                     37                     38                     39
                      A                      A                      A
 Frequencies --    901.2024               915.6896               920.6869
 Red. masses --      2.1944                 1.9557                 2.2896
 Frc consts  --      1.0501                 0.9661                 1.1435
 IR Inten    --      4.2197                 3.7625                 4.4525

                     40                     41                     42
                      A                      A                      A
 Frequencies --    955.2796               961.9799               964.4737
 Red. masses --      1.7025                 1.3620                 1.4831
 Frc consts  --      0.9154                 0.7426                 0.8128
 IR Inten    --      4.3904                 3.3243                 5.3289

                     43                     44                     45
                      A                      A                      A
 Frequencies --    968.8299               981.5328               999.2690
 Red. masses --      1.3373                 2.3430                 2.0277
 Frc consts  --      0.7396                 1.3299                 1.1929
 IR Inten    --      1.2202                16.6235                 1.6390

                     46                     47                     48
                      A                      A                      A
 Frequencies --   1018.5085              1034.5122              1044.6555
 Red. masses --      1.4453                 1.8130                 2.8124
 Frc consts  --      0.8834                 1.1432                 1.8083
 IR Inten    --      2.4863                 5.6746                 0.4685

                     49                     50                     51
                      A                      A                      A
 Frequencies --   1058.5957              1076.1711              1079.6548
 Red. masses --      1.6500                 1.5262                 1.9104
 Frc consts  --      1.0894                 1.0414                 1.3120
 IR Inten    --      4.0953                10.9684                 2.2297

                     52                     53                     54
                      A                      A                      A
 Frequencies --   1104.4034              1133.0838              1155.1062
 Red. masses --      1.9773                 3.9493                 1.4263
 Frc consts  --      1.4210                 2.9874                 1.1212
 IR Inten    --      6.5228               100.7545                 9.3116

                     55                     56                     57
                      A                      A                      A
 Frequencies --   1170.4039              1216.7255              1221.9596
 Red. masses --      2.8949                 1.3857                 1.1665
 Frc consts  --      2.3364                 1.2087                 1.0262
 IR Inten    --      2.6288                 2.1186                 0.4414

                     58                     59                     60
                      A                      A                      A
 Frequencies --   1223.7025              1238.0977              1247.4620
 Red. masses --      2.1993                 3.3112                 1.6385
 Frc consts  --      1.9404                 2.9905                 1.5023
 IR Inten    --      0.6752                 1.1231                 1.2328

                     61                     62                     63
                      A                      A                      A
 Frequencies --   1248.6380              1265.7168              1289.6568
 Red. masses --      2.3245                 2.4568                 1.3753
 Frc consts  --      2.1353                 2.3190                 1.3478
 IR Inten    --      2.5601                 8.0982                36.5321

                     64                     65                     66
                      A                      A                      A
 Frequencies --   1302.5982              1330.1510              1353.0589
 Red. masses --      1.5578                 1.5065                 2.3305
 Frc consts  --      1.5573                 1.5705                 2.5138
 IR Inten    --      2.4399                 4.9397                 0.5456

                     67                     68                     69
                      A                      A                      A
 Frequencies --   1358.4024              1363.7454              1384.3271
 Red. masses --      1.4127                 1.5475                 1.3096
 Frc consts  --      1.5359                 1.6956                 1.4787
 IR Inten    --      8.1772                 5.1834                 2.4391

                     70                     71                     72
                      A                      A                      A
 Frequencies --   1396.5064              1406.3188              1410.2224
 Red. masses --      1.3869                 1.4010                 1.3068
 Frc consts  --      1.5936                 1.6325                 1.5312
 IR Inten    --      3.0700                 4.3533                 6.5809

                     73                     74                     75
                      A                      A                      A
 Frequencies --   1424.7422              1439.1443              1443.3626
 Red. masses --      1.2991                 1.3193                 1.2501
 Frc consts  --      1.5537                 1.6099                 1.5344
 IR Inten    --      7.6094                 9.5643                 0.1664

                     76                     77                     78
                      A                      A                      A
 Frequencies --   1448.4701              1463.3106              1504.1113
 Red. masses --      1.3362                 2.3823                 1.0842
 Frc consts  --      1.6517                 3.0056                 1.4452
 IR Inten    --      8.0547                 1.8235                 4.5295

                     79                     80                     81
                      A                      A                      A
 Frequencies --   1505.9536              1509.6461              1516.4448
 Red. masses --      1.0655                 1.0861                 1.0481
 Frc consts  --      1.4237                 1.4584                 1.4201
 IR Inten    --      2.1380                 4.0225                 4.7258

                     82                     83                     84
                      A                      A                      A
 Frequencies --   1519.2807              1521.5572              1524.4342
 Red. masses --      1.0704                 1.0831                 1.1001
 Frc consts  --      1.4557                 1.4773                 1.5062
 IR Inten    --      1.2523                 3.9108                 8.5523

                     85                     86                     87
                      A                      A                      A
 Frequencies --   1526.0516              1527.8105              1541.1635
 Red. masses --      1.1017                 1.0607                 1.1045
 Frc consts  --      1.5117                 1.4587                 1.5457
 IR Inten    --      4.3136                 2.7983                18.1359

                     88                     89                     90
                      A                      A                      A
 Frequencies --   1550.9236              1567.3682              1632.6398
 Red. masses --      1.1385                 2.4558                 5.4974
 Frc consts  --      1.6134                 3.5545                 8.6336
 IR Inten    --      5.7218                20.2668                 0.6236

                     91                     92                     93
                      A                      A                      A
 Frequencies --   1678.0529              2970.0743              3001.6891
 Red. masses --      5.8309                 1.0700                 1.0665
 Frc consts  --      9.6737                 5.5614                 5.6616
 IR Inten    --      0.6878                43.3850                49.5676

                     94                     95                     96
                      A                      A                      A
 Frequencies --   3033.9964              3040.2260              3042.2964
 Red. masses --      1.0719                 1.0698                 1.0381
 Frc consts  --      5.8136                 5.8257                 5.6609
 IR Inten    --      2.9775                44.1512                19.9590

                     97                     98                     99
                      A                      A                      A
 Frequencies --   3043.4306              3051.3784              3057.8767
 Red. masses --      1.0388                 1.0649                 1.0390
 Frc consts  --      5.6693                 5.8417                 5.7241
 IR Inten    --     39.8105                61.6102                24.1219

                    100                    101                    102
                      A                      A                      A
 Frequencies --   3078.0335              3091.2386              3093.2470
 Red. masses --      1.1006                 1.0959                 1.0950
 Frc consts  --      6.1436                 6.1700                 6.1732
 IR Inten    --      4.6040                59.6787                43.8461

                    103                    104                    105
                      A                      A                      A
 Frequencies --   3095.5626              3098.0032              3108.6222
 Red. masses --      1.0996                 1.0985                 1.0994
 Frc consts  --      6.2082                 6.2118                 6.2594
 IR Inten    --     37.4303                20.1608                43.4041

                    106                    107                    108
                      A                      A                      A
 Frequencies --   3123.1539              3126.3054              3128.7902
 Red. masses --      1.1006                 1.1018                 1.1017
 Frc consts  --      6.3252                 6.3446                 6.3543
 IR Inten    --     12.2854                13.9695                40.2529

                    109                    110                    111
                      A                      A                      A
 Frequencies --   3142.5903              3174.5216              3174.9675
 Red. masses --      1.1028                 1.0868                 1.0867
 Frc consts  --      6.4169                 6.4530                 6.4542
 IR Inten    --     20.7563                22.8508                 1.9370

                    112                    113                    114
                      A                      A                      A
 Frequencies --   3190.9221              3194.1375              3528.5104
 Red. masses --      1.0937                 1.0946                 1.0727
 Frc consts  --      6.5613                 6.5796                 7.8685
 IR Inten    --     38.1747                 0.6122                19.4746

 - Thermochemistry -
 -------------------
 Temperature   298.150 Kelvin.  Pressure   1.00000 Atm.
 Atom     1 has atomic number  6 and mass  12.00000

 Molecular mass:   233.17796 amu.
 Principal axes and moments of inertia in atomic units:
                           1         2         3
     Eigenvalues --  2655.178625092.748906217.51873
           X            0.99985  -0.01532  -0.00807
           Y            0.01532   0.99988  -0.00105
           Z            0.00808   0.00093   0.99997
 This molecule is an asymmetric top.
 Rotational symmetry number  1.
 Warning -- assumption of classical behavior for rotation
           may cause significant error
 Rotational temperatures (Kelvin)      0.03262     0.01701     0.01393
 Rotational constants (GHZ):           0.67971     0.35437     0.29027
 Zero-point vibrational energy     941700.8 (Joules/Mol)
                                  225.07188 (Kcal/Mol)
 Warning -- explicit consideration of  27 degrees of freedom as
           vibrations may cause significant error
 Vibrational temperatures:     31.83    46.67    58.98    91.91   124.70
          (Kelvin)            180.89   228.02   236.58   318.30   342.63
                              356.89   402.90   435.82   450.28   471.76
                              523.94   546.81   565.92   604.30   613.67
                              643.73   672.65   678.04   707.32   769.48
                              844.40   866.35   950.75  1025.40  1053.06
                             1124.65  1147.20  1183.50  1196.47  1235.54
                             1288.72  1296.63  1317.47  1324.66  1374.43
                             1384.07  1387.66  1393.93  1412.21  1437.73
                             1465.41  1488.43  1503.03  1523.08  1548.37
                             1553.38  1588.99  1630.25  1661.94  1683.95
                             1750.60  1758.13  1760.63  1781.35  1794.82
                             1796.51  1821.08  1855.53  1874.15  1913.79
                             1946.75  1954.44  1962.13  1991.74  2009.26
                             2023.38  2029.00  2049.89  2070.61  2076.68
                             2084.03  2105.38  2164.08  2166.73  2172.04
                             2181.83  2185.91  2189.18  2193.32  2195.65
                             2198.18  2217.39  2231.43  2255.09  2349.00
                             2414.34  4273.27  4318.76  4365.24  4374.21
                             4377.19  4378.82  4390.25  4399.60  4428.60
                             4447.60  4450.49  4453.82  4457.34  4472.61
                             4493.52  4498.06  4501.63  4521.49  4567.43
                             4568.07  4591.03  4595.65  5076.74

 Zero-point correction=                           0.358675 (Hartree/Particle)
 Thermal correction to Energy=                    0.375593
 Thermal correction to Enthalpy=                  0.376538
 Thermal correction to Gibbs Free Energy=         0.313195
 Sum of electronic and zero-point Energies=           -715.140792
 Sum of electronic and thermal Energies=              -715.123874
 Sum of electronic and thermal Enthalpies=            -715.122930
 Sum of electronic and thermal Free Energies=         -715.186273

                     E (Thermal)             CV                S
                      KCal/Mol        Cal/Mol-Kelvin    Cal/Mol-Kelvin
 Total                  235.688             66.266            133.317
 Electronic               0.000              0.000              0.000
 Translational            0.889              2.981             42.242
 Rotational               0.889              2.981             32.797
 Vibrational            233.911             60.305             58.278
 Vibration     1          0.593              1.985              6.434
 Vibration     2          0.594              1.983              5.674
 Vibration     3          0.594              1.981              5.211
 Vibration     4          0.597              1.972              4.334
 Vibration     5          0.601              1.958              3.734
 Vibration     6          0.611              1.927              3.010
 Vibration     7          0.621              1.893              2.568
 Vibration     8          0.623              1.886              2.498
 Vibration     9          0.648              1.809              1.949
 Vibration    10          0.656              1.782              1.817
 Vibration    11          0.662              1.766              1.744
 Vibration    12          0.680              1.711              1.533
 Vibration    13          0.694              1.668              1.401
 Vibration    14          0.701              1.649              1.347
 Vibration    15          0.711              1.620              1.270
 Vibration    16          0.738              1.546              1.104
 Vibration    17          0.750              1.513              1.039
 Vibration    18          0.761              1.484              0.987
 Vibration    19          0.783              1.427              0.892
 Vibration    20          0.788              1.413              0.870
 Vibration    21          0.807              1.367              0.804
 Vibration    22          0.825              1.322              0.745
 Vibration    23          0.828              1.314              0.734
 Vibration    24          0.847              1.269              0.679
 Vibration    25          0.890              1.173              0.577
 Vibration    26          0.944              1.060              0.473
 Vibration    27          0.960              1.027              0.446

 Optimization completed on the basis of negligible forces.
    -- Stationary point found.
 Normal termination of Gaussian 16 at Mon Dec 14 19:27:32 2020.

 ----------------------------------------------------------------------
 # B3LYP/6-311++G(d,p) empiricaldispersion=gd3bj scf=xqc pop=npa geom=c
 heck
 ----------------------------------------------------------------------

 --------------------------------------
 CID_82290191_JID_7030_Energie_neutraal
 --------------------------------------
 Structure from the checkpoint file:  "JID_7030.chk"
 Charge =  0 Multiplicity = 1

 SCF Done:  E(RB3LYP) =  -715.694312983     A.U. after   14 cycles
 Normal termination of Gaussian 16 at Mon Dec 14 19:36:22 2020.

 ----------------------------------------------------------------------
 # B3LYP/6-311++G(d,p) empiricaldispersion=gd3bj scf=xqc pop=npa geom=c
 heck
 ----------------------------------------------------------------------

 ------------------------------------
 CID_82290191_JID_7030_Energie_kation
 ------------------------------------
 Structure from the checkpoint file:  "JID_7030.chk"
 Charge =  1 Multiplicity = 2

 SCF Done:  E(UB3LYP) =  -715.416859233     A.U. after   23 cycles
 Normal termination of Gaussian 16 at Mon Dec 14 19:57:29 2020.
 Gaussian 16:  ES64L-G16RevA.03 25-Dec-2016

 ----------------------------------------------------------------------
 # B3LYP/6-311++G(d,p) empiricaldispersion=gd3bj scf=xqc pop=npa geom=c
 heck
 ----------------------------------------------------------------------

 -----------------------------------
 CID_82290191_JID_7030_Energie_anion
 -----------------------------------
 Structure from the checkpoint file:  "JID_7030.chk"
 Charge = -1 Multiplicity = 2

                         Standard orientation:
 ---------------------------------------------------------------------
 Center     Atomic      Atomic             Coordinates (Angstroms)
 Number     Number       Type             X           Y           Z
 ---------------------------------------------------------------------
      1          6           0       -4.072932    1.888289    0.216823
      2          6           0       -3.135696    0.706918    0.159407
      3          6           0       -2.479229    0.242540    1.302943
      4          6           0       -1.618297   -0.854957    1.242685
      5          6           0       -1.377637   -1.520287    0.036486
      6          6           0       -2.053369   -1.067040   -1.106065
      7          6           0       -2.911561    0.026116   -1.045963
      8          6           0       -0.369212   -2.644548   -0.055924
      9          6           0        0.888329   -2.317032   -0.896956
     10          6           0        1.743529   -1.115202   -0.461400
     11          6           0        2.136068   -1.146987    1.020885
     12          8           0        2.899297    0.001758    1.369385
     13          6           0        2.153276    1.191638    1.146592
     14          6           0        1.784424    1.362613   -0.339521
     15          7           0        1.096548    0.151483   -0.836917
     16          6           0        3.052773    1.605540   -1.168971
     17          6           0        0.811497    2.532837   -0.499312
     18          1           0       -3.963076    2.439383    1.155961
     19          1           0       -3.887766    2.585585   -0.608103
     20          1           0       -5.120632    1.569805    0.141029
     21          1           0       -2.639398    0.746323    2.253160
     22          1           0       -1.113730   -1.188469    2.146033
     23          1           0       -1.883697   -1.562842   -2.058525
     24          1           0       -3.412157    0.364374   -1.950284
     25          1           0       -0.072922   -2.947909    0.954462
     26          1           0       -0.843957   -3.524865   -0.509190
     27          1           0        1.524483   -3.211509   -0.900052
     28          1           0        0.591037   -2.137574   -1.936949
     29          1           0        2.679497   -1.170804   -1.032637
     30          1           0        1.237224   -1.190860    1.656636
     31          1           0        2.763854   -2.015508    1.248882
     32          1           0        2.781412    2.015621    1.501466
     33          1           0        1.229041    1.170535    1.751082
     34          1           0        0.150239    0.155228   -0.465441
     35          1           0        2.805299    1.612835   -2.234721
     36          1           0        3.505344    2.568121   -0.904627
     37          1           0        3.799999    0.828303   -0.986440
     38          1           0       -0.106593    2.360060    0.076902
     39          1           0        1.261112    3.470229   -0.153513
     40          1           0        0.533397    2.646861   -1.552045
 ---------------------------------------------------------------------

 SCF Done:  E(UB3LYP) =  -715.680536111     A.U. after   33 cycles
 SCF Done:  E(UB3LYP) =  -715.680536111     a.u. after    1 cycles

 The electronic state is 2-A.
 Alpha  occ. eigenvalues --  -19.03237 -14.19553 -10.11964 -10.11781 -10.11285
 Alpha  occ. eigenvalues --  -10.10168 -10.08662 -10.08363 -10.07857 -10.07782
 Alpha  occ. eigenvalues --  -10.07713 -10.07680 -10.07657 -10.07536 -10.07231
 Alpha  occ. eigenvalues --  -10.06785 -10.06483  -0.94830  -0.81517  -0.76781
 Alpha  occ. eigenvalues --   -0.72043  -0.69323  -0.65464  -0.65143  -0.62442
 Alpha  occ. eigenvalues --   -0.60222  -0.59769  -0.56656  -0.54152  -0.51494
 Alpha  occ. eigenvalues --   -0.49446  -0.47174  -0.46551  -0.40406  -0.39623
 Alpha  occ. eigenvalues --   -0.39428  -0.38596  -0.37798  -0.37099  -0.36164
 Alpha  occ. eigenvalues --   -0.35250  -0.33227  -0.32707  -0.32597  -0.32228
 Alpha  occ. eigenvalues --   -0.31931  -0.30071  -0.29576  -0.29127  -0.28659
 Alpha  occ. eigenvalues --   -0.28411  -0.27783  -0.27193  -0.25957  -0.25122
 Alpha  occ. eigenvalues --   -0.24752  -0.24232  -0.23645  -0.22872  -0.21714
 Alpha  occ. eigenvalues --   -0.18403  -0.16266  -0.14374  -0.12122   0.04184
 Alpha virt. eigenvalues --    0.05916   0.06501   0.06980   0.07693   0.07836
 Alpha virt. eigenvalues --    0.07962   0.08522   0.08634   0.09280   0.09505
 Alpha virt. eigenvalues --    0.10612   0.10827   0.10959   0.11364   0.11451

  Beta  occ. eigenvalues --  -19.03233 -14.19549 -10.11957 -10.11769 -10.11283
  Beta  occ. eigenvalues --  -10.10163 -10.08637 -10.08338 -10.07843 -10.07768
  Beta  occ. eigenvalues --  -10.07702 -10.07668 -10.07645 -10.07517 -10.07200
  Beta  occ. eigenvalues --  -10.06770 -10.06472  -0.94822  -0.81508  -0.76740
  Beta  occ. eigenvalues --   -0.72016  -0.69278  -0.65425  -0.65108  -0.62417
  Beta  occ. eigenvalues --   -0.60192  -0.59732  -0.56621  -0.54116  -0.51453
  Beta  occ. eigenvalues --   -0.49396  -0.47129  -0.46528  -0.40362  -0.39605
  Beta  occ. eigenvalues --   -0.39402  -0.38571  -0.37772  -0.37083  -0.36112
  Beta  occ. eigenvalues --   -0.35220  -0.33181  -0.32679  -0.32538  -0.32201
  Beta  occ. eigenvalues --   -0.31900  -0.30048  -0.29550  -0.29096  -0.28636
  Beta  occ. eigenvalues --   -0.28381  -0.27746  -0.27162  -0.25927  -0.25096
  Beta  occ. eigenvalues --   -0.24728  -0.24198  -0.23614  -0.22839  -0.21693
  Beta  occ. eigenvalues --   -0.18393  -0.16216  -0.14251  -0.12110
  Beta virt. eigenvalues --    0.06141   0.06795   0.06968   0.07453   0.07830
  Beta virt. eigenvalues --    0.08145   0.08426   0.08875   0.09159   0.09398
  Beta virt. eigenvalues --    0.09823   0.10976   0.11030   0.11341   0.11559

 Mulliken charges and spin densities:
               1          2
     1  C    2.882693  -3.477497
     2  C    0.200743   0.279489
     3  C   -0.547201   0.141769
     4  C   -0.365347   0.093256
     5  C    0.836141  -0.401793
     6  C   -1.278089   0.988735
     7  C   -1.340528   1.014959
     8  C    0.651759  -1.164487
     9  C    0.602398  -1.148751
    10  C   -0.258966   0.405866
    11  C   -0.292898  -0.260927
    12  O   -0.095066   0.006283
    13  C    0.129595  -0.637222
    14  C   -0.771080   0.781139
    15  N    0.265508  -0.107785
    16  C   -0.230779  -0.152225
    17  C   -0.311498  -0.261788
    18  H   -0.344265   0.490778
    19  H   -0.069631   0.213932
    20  H   -0.093562   0.258378
    21  H   -0.559385   0.740508
    22  H   -0.377830   0.518552
    23  H   -0.353672   0.505935
    24  H   -0.466159   0.647993
    25  H   -0.124214   0.282615
    26  H   -0.228965   0.418111
    27  H   -0.343352   0.509960
    28  H    0.057496   0.121526
    29  H    0.101617   0.077718
    30  H    0.401193  -0.247027
    31  H   -0.214603   0.398452
    32  H    0.058735   0.120951
    33  H    0.030316   0.085779
    34  H    1.148216  -0.874188
    35  H    0.046402   0.123086
    36  H    0.084032   0.048320
    37  H    0.091158   0.079059
    38  H    0.180289  -0.016209
    39  H   -0.167335   0.304730
    40  H    0.066134   0.092020
 Sum of Mulliken charges =  -1.00000   1.00000

 Dipole moment (field-independent basis, Debye):
    X=              3.6992    Y=              1.3339    Z=             -0.2872  Tot=              3.9428
 Quadrupole moment (field-independent basis, Debye-Ang):
   XX=           -180.8848   YY=           -163.7646   ZZ=           -146.8693
   XY=              9.1002   XZ=              1.1301   YZ=             -4.2539

 Summary of Natural Population Analysis:

                                       Natural Population
                Natural  -----------------------------------------------
    Atom  No    Charge         Core      Valence    Rydberg      Total
 -----------------------------------------------------------------------
      C    1   -0.29282      0.99964     2.28745    0.00573     3.29282
      C    2   -0.01578      0.99951     2.00653    0.00973     3.01578
      C    3   -0.10118      0.99951     2.09124    0.01044     3.10118
      C    4   -0.10079      0.99950     2.09138    0.00991     3.10079
      C    5   -0.02654      0.99950     2.01532    0.01172     3.02654
      C    6   -0.09435      0.99950     2.08534    0.00951     3.09435
      C    7   -0.09650      0.99951     2.08748    0.00950     3.09650
      C    8   -0.19913      0.99959     2.18920    0.01033     3.19913
      C    9   -0.18666      0.99960     2.17736    0.00970     3.18666
      C   10   -0.02402      0.99958     2.01178    0.01265     3.02402
      C   11   -0.01789      0.99954     2.00613    0.01222     3.01789
      O   12   -0.30145      0.99989     3.29255    0.00901     4.30145
      C   13   -0.01574      0.99950     2.00304    0.01320     3.01574
      C   14    0.04441      0.99958     1.94348    0.01253     2.95559
      N   15   -0.35332      0.99972     2.84162    0.01198     3.85332
      C   16   -0.28977      0.99961     2.28401    0.00615     3.28977
      C   17   -0.28846      0.99962     2.28138    0.00745     3.28846
      H   18    0.10295      0.00000     0.39585    0.00120     0.39705
      H   19    0.10305      0.00000     0.39590    0.00105     0.39695
      H   20    0.10595      0.00000     0.39260    0.00145     0.39405
      H   21    0.10090      0.00000     0.39788    0.00122     0.39910
      H   22    0.09953      0.00000     0.39881    0.00166     0.40047
      H   23    0.10139      0.00000     0.39704    0.00158     0.39861
      H   24    0.09933      0.00000     0.39925    0.00142     0.40067
      H   25    0.09916      0.00000     0.39940    0.00144     0.40084
      H   26    0.10716      0.00000     0.39135    0.00149     0.39284
      H   27    0.10253      0.00000     0.39593    0.00154     0.39747
      H   28    0.10307      0.00000     0.39549    0.00144     0.39693
      H   29    0.09401      0.00000     0.40408    0.00191     0.40599
      H   30    0.07893      0.00000     0.41924    0.00183     0.42107
      H   31    0.09218      0.00000     0.40645    0.00136     0.40782
      H   32    0.09074      0.00000     0.40814    0.00112     0.40926
      H   33    0.08174      0.00000     0.41671    0.00155     0.41826
      H   34    0.18478      0.00000     0.30971    0.00551     0.31522
      H   35    0.10335      0.00000     0.39571    0.00094     0.39665
      H   36    0.09680      0.00000     0.40246    0.00074     0.40320
      H   37    0.10371      0.00000     0.39510    0.00119     0.39629
      H   38    0.10375      0.00000     0.39502    0.00123     0.39625
      H   39    0.09929      0.00000     0.39992    0.00080     0.40071
      H   40    0.10569      0.00000     0.39336    0.00095     0.39431
 =======================================================================
   * Total *   -0.00000     16.99291    46.80069    0.20639    64.00000

 Normal termination of Gaussian 16 at Mon Dec 14 20:26:30 2020.
