 Gaussian 16, Revision A.03,

 -----------------------------------------------------------
 # opt freq B3LYP/6-31G(d) empiricaldispersion=gd3bj scf=xqc
 -----------------------------------------------------------

 -------------------------------
 CID_130678586_JID_3315_neutraal
 -------------------------------
 Symbolic Z-matrix:
 Charge =  0 Multiplicity = 1

 SCF Done:  E(RB3LYP) =  -933.129618067     A.U. after   16 cycles
 SCF Done:  E(RB3LYP) =  -933.135122105     A.U. after   12 cycles
 SCF Done:  E(RB3LYP) =  -933.136038226     A.U. after   12 cycles
 SCF Done:  E(RB3LYP) =  -933.136177408     A.U. after   11 cycles
 SCF Done:  E(RB3LYP) =  -933.136195242     A.U. after   11 cycles
 SCF Done:  E(RB3LYP) =  -933.136240708     A.U. after   10 cycles
 SCF Done:  E(RB3LYP) =  -933.136270226     A.U. after   10 cycles
 SCF Done:  E(RB3LYP) =  -933.136282068     A.U. after   10 cycles
 SCF Done:  E(RB3LYP) =  -933.136286296     A.U. after    9 cycles
 SCF Done:  E(RB3LYP) =  -933.136287662     A.U. after    9 cycles
 SCF Done:  E(RB3LYP) =  -933.136287769     A.U. after    7 cycles
 SCF Done:  E(RB3LYP) =  -933.136287805     A.U. after    7 cycles
 Optimization completed.
    -- Stationary point found.
 Normal termination of Gaussian 16 at Wed Dec  9 22:52:19 2020.

 --------------------------------------------------------------------
 #N Geom=AllCheck Guess=TCheck SCRF=Check GenChk RB3LYP/6-31G(d) Freq
 --------------------------------------------------------------------

 Structure from the checkpoint file:  "JID_3315.chk"
 -------------------------------
 CID_130678586_JID_3315_neutraal
 -------------------------------
 Charge =  0 Multiplicity = 1

 SCF Done:  E(RB3LYP) =  -933.136287805     A.U. after    1 cycles

  Exact polarizability: 173.578  -8.765 107.232   1.543  -0.397  87.742
 Approx polarizability: 246.067 -16.583 186.743   2.617  -8.970 129.593

                      1                      2                      3
                      A                      A                      A
 Frequencies --     29.1118                64.2289                80.8327
 Red. masses --      4.0559                 3.4535                 5.0938
 Frc consts  --      0.0020                 0.0084                 0.0196
 IR Inten    --      0.9940                 0.7577                 0.3387

                      4                      5                      6
                      A                      A                      A
 Frequencies --    134.0408               151.8408               184.5121
 Red. masses --      2.9643                 1.3143                 3.1304
 Frc consts  --      0.0314                 0.0179                 0.0628
 IR Inten    --      0.0623                 0.6115                 2.9510

                      7                      8                      9
                      A                      A                      A
 Frequencies --    248.9099               266.9954               279.6982
 Red. masses --      3.8431                 2.3523                 2.6600
 Frc consts  --      0.1403                 0.0988                 0.1226
 IR Inten    --      0.2589                 1.7861                 3.8118

                     10                     11                     12
                      A                      A                      A
 Frequencies --    322.9391               339.0370               394.2776
 Red. masses --      5.6691                 3.1305                 4.1467
 Frc consts  --      0.3483                 0.2120                 0.3798
 IR Inten    --      1.6622                 6.0763                 1.0012

                     13                     14                     15
                      A                      A                      A
 Frequencies --    437.0495               473.7138               513.2251
 Red. masses --      8.3004                 2.5164                 7.4624
 Frc consts  --      0.9341                 0.3327                 1.1581
 IR Inten    --      1.6064                 1.6122                10.7948

                     16                     17                     18
                      A                      A                      A
 Frequencies --    555.5380               561.9384               600.6587
 Red. masses --      3.9178                 7.8323                 2.8698
 Frc consts  --      0.7124                 1.4572                 0.6100
 IR Inten    --      5.1671                 0.2889                16.9863

                     19                     20                     21
                      A                      A                      A
 Frequencies --    636.7696               666.2854               702.4795
 Red. masses --     12.0794                 5.5154                 2.5113
 Frc consts  --      2.8858                 1.4426                 0.7302
 IR Inten    --     10.0414                14.6673                44.1793

                     22                     23                     24
                      A                      A                      A
 Frequencies --    741.7287               788.1401               833.8006
 Red. masses --      1.5720                 6.2951                 2.4244
 Frc consts  --      0.5096                 2.3039                 0.9931
 IR Inten    --      7.5864                16.4395                 9.4623

                     25                     26                     27
                      A                      A                      A
 Frequencies --    879.1012               923.6331               945.6950
 Red. masses --      2.4835                 1.7582                 2.6448
 Frc consts  --      1.1308                 0.8837                 1.3936
 IR Inten    --      1.7766                 6.6239                 9.7225

                     28                     29                     30
                      A                      A                      A
 Frequencies --    956.2318              1000.7306              1017.2120
 Red. masses --      2.5085                 1.2360                 2.3504
 Frc consts  --      1.3514                 0.7293                 1.4329
 IR Inten    --      9.1076                 0.4300                 3.5794

                     31                     32                     33
                      A                      A                      A
 Frequencies --   1040.7531              1070.6268              1078.8952
 Red. masses --      2.1189                 1.4054                 1.6901
 Frc consts  --      1.3523                 0.9491                 1.1591
 IR Inten    --     13.1689                 0.8293                 1.7420

                     34                     35                     36
                      A                      A                      A
 Frequencies --   1085.3863              1115.8407              1164.4597
 Red. masses --      2.1734                 1.9119                 1.4813
 Frc consts  --      1.5086                 1.4026                 1.1834
 IR Inten    --      0.6306                 1.0457                 9.2271

                     37                     38                     39
                      A                      A                      A
 Frequencies --   1192.6155              1227.1376              1238.7025
 Red. masses --      1.8972                 4.0165                 1.4423
 Frc consts  --      1.5899                 3.5636                 1.3039
 IR Inten    --      1.6465               110.3298                 2.1823

                     40                     41                     42
                      A                      A                      A
 Frequencies --   1265.1138              1295.3607              1312.1739
 Red. masses --      1.2886                 1.2661                 8.6090
 Frc consts  --      1.2152                 1.2517                 8.7334
 IR Inten    --      3.6726                 1.6354               145.2696

                     43                     44                     45
                      A                      A                      A
 Frequencies --   1353.1696              1382.0488              1389.8201
 Red. masses --      1.2963                 1.5560                 1.4252
 Frc consts  --      1.3984                 1.7511                 1.6219
 IR Inten    --      2.2509                 4.0807                 1.7095

                     46                     47                     48
                      A                      A                      A
 Frequencies --   1396.5376              1410.2632              1438.8936
 Red. masses --      1.4726                 1.4896                 1.4668
 Frc consts  --      1.6921                 1.7455                 1.7893
 IR Inten    --      2.7523                11.6329                 0.8045

                     49                     50                     51
                      A                      A                      A
 Frequencies --   1440.6204              1503.4970              1505.2828
 Red. masses --      1.3543                 1.0422                 1.0882
 Frc consts  --      1.6560                 1.3881                 1.4527
 IR Inten    --      7.0280                 9.4522                 2.2192

                     52                     53                     54
                      A                      A                      A
 Frequencies --   1508.8358              1522.3190              1530.8833
 Red. masses --      1.0873                 1.0919                 1.0952
 Frc consts  --      1.4584                 1.4909                 1.5123
 IR Inten    --      8.0723                 3.3271                 4.5308

                     55                     56                     57
                      A                      A                      A
 Frequencies --   1643.9015              1742.8400              1812.5192
 Red. masses --      7.7321                 6.7147                12.6090
 Frc consts  --     12.3112                12.0169                24.4060
 IR Inten    --     14.4972                 5.8557               422.9976

                     58                     59                     60
                      A                      A                      A
 Frequencies --   3017.6342              3036.4149              3056.6147
 Red. masses --      1.0679                 1.0673                 1.0362
 Frc consts  --      5.7293                 5.7980                 5.7042
 IR Inten    --     26.9943                21.3954                20.9760

                     61                     62                     63
                      A                      A                      A
 Frequencies --   3059.3790              3066.2277              3068.1582
 Red. masses --      1.0914                 1.0631                 1.0839
 Frc consts  --      6.0188                 5.8890                 6.0117
 IR Inten    --     52.8954                17.4966                 5.4972

                     64                     65                     66
                      A                      A                      A
 Frequencies --   3089.3949              3113.6467              3119.2388
 Red. masses --      1.0976                 1.1019                 1.1033
 Frc consts  --      6.1725                 6.2938                 6.3247
 IR Inten    --     46.9376                 9.4899                17.5506

                     67                     68                     69
                      A                      A                      A
 Frequencies --   3154.7966              3162.8722              3186.4299
 Red. masses --      1.1017                 1.0851                 1.0967
 Frc consts  --      6.4604                 6.3955                 6.5606
 IR Inten    --      4.9781                11.1169                26.4465

 - Thermochemistry -
 -------------------
 Temperature   298.150 Kelvin.  Pressure   1.00000 Atm.
 Atom     1 has atomic number  6 and mass  12.00000

 Molecular mass:   196.06703 amu.
 Principal axes and moments of inertia in atomic units:
                           1         2         3
     Eigenvalues --  1067.656574376.192194783.50842
           X            0.99987  -0.01470   0.00652
           Y            0.01447   0.99929   0.03492
           Z           -0.00702  -0.03482   0.99937
 This molecule is an asymmetric top.
 Rotational symmetry number  1.
 Warning -- assumption of classical behavior for rotation
           may cause significant error
 Rotational temperatures (Kelvin)      0.08113     0.01979     0.01811
 Rotational constants (GHZ):           1.69038     0.41240     0.37728
 Zero-point vibrational energy     535506.3 (Joules/Mol)
                                  127.98908 (Kcal/Mol)
 Warning -- explicit consideration of  18 degrees of freedom as
           vibrations may cause significant error
 Vibrational temperatures:     41.89    92.41   116.30   192.85   218.47
          (Kelvin)            265.47   358.13   384.15   402.42   464.64
                              487.80   567.28   628.82   681.57   738.42
                              799.30   808.50   864.21   916.17   958.64
                             1010.71  1067.18  1133.96  1199.65  1264.83
                             1328.90  1360.64  1375.80  1439.83  1463.54
                             1497.41  1540.39  1552.29  1561.63  1605.45
                             1675.40  1715.91  1765.58  1782.22  1820.22
                             1863.74  1887.93  1946.91  1988.46  1999.64
                             2009.31  2029.05  2070.25  2072.73  2163.20
                             2165.77  2170.88  2190.28  2202.60  2365.21
                             2507.56  2607.81  4341.70  4368.72  4397.79
                             4401.76  4411.62  4414.40  4444.95  4479.84
                             4487.89  4539.05  4550.67  4584.56

 Zero-point correction=                           0.203964 (Hartree/Particle)
 Thermal correction to Energy=                    0.216104
 Thermal correction to Enthalpy=                  0.217048
 Thermal correction to Gibbs Free Energy=         0.164614
 Sum of electronic and zero-point Energies=           -932.932324
 Sum of electronic and thermal Energies=              -932.920184
 Sum of electronic and thermal Enthalpies=            -932.919240
 Sum of electronic and thermal Free Energies=         -932.971674

                     E (Thermal)             CV                S
                      KCal/Mol        Cal/Mol-Kelvin    Cal/Mol-Kelvin
 Total                  135.607             45.927            110.356
 Electronic               0.000              0.000              0.000
 Translational            0.889              2.981             41.725
 Rotational               0.889              2.981             31.481
 Vibrational            133.830             39.965             37.150
 Vibration     1          0.593              1.984              5.889
 Vibration     2          0.597              1.971              4.323
 Vibration     3          0.600              1.962              3.871
 Vibration     4          0.613              1.919              2.887
 Vibration     5          0.619              1.901              2.649
 Vibration     6          0.631              1.861              2.282
 Vibration     7          0.662              1.765              1.738
 Vibration     8          0.672              1.734              1.616
 Vibration     9          0.680              1.711              1.536
 Vibration    10          0.708              1.630              1.295
 Vibration    11          0.719              1.597              1.217
 Vibration    12          0.761              1.482              0.984
 Vibration    13          0.797              1.389              0.836
 Vibration    14          0.831              1.308              0.727
 Vibration    15          0.868              1.221              0.626
 Vibration    16          0.911              1.128              0.533
 Vibration    17          0.918              1.114              0.520
 Vibration    18          0.959              1.030              0.449

                           ! Non-Optimized Parameters !
 Normal termination of Gaussian 16 at Wed Dec  9 22:58:07 2020.

 ----------------------------------------------------------------------
 # B3LYP/6-311++G(d,p) empiricaldispersion=gd3bj scf=xqc pop=npa geom=c
 heck
 ----------------------------------------------------------------------

 ---------------------------------------
 CID_130678586_JID_3315_Energie_neutraal
 ---------------------------------------
 Structure from the checkpoint file:  "JID_3315.chk"
 Charge =  0 Multiplicity = 1

 SCF Done:  E(RB3LYP) =  -933.309073338     A.U. after   16 cycles
 Normal termination of Gaussian 16 at Wed Dec  9 23:00:40 2020.

 ----------------------------------------------------------------------
 # B3LYP/6-311++G(d,p) empiricaldispersion=gd3bj scf=xqc pop=npa geom=c
 heck
 ----------------------------------------------------------------------

 -------------------------------------
 CID_130678586_JID_3315_Energie_kation
 -------------------------------------
 Structure from the checkpoint file:  "JID_3315.chk"
 Charge =  1 Multiplicity = 2

 SCF Done:  E(UB3LYP) =  -933.004553293     A.U. after   25 cycles
 Normal termination of Gaussian 16 at Wed Dec  9 23:05:40 2020.
 Gaussian 16:  ES64L-G16RevA.03 25-Dec-2016

 ----------------------------------------------------------------------
 # B3LYP/6-311++G(d,p) empiricaldispersion=gd3bj scf=xqc pop=npa geom=c
 heck
 ----------------------------------------------------------------------

 ------------------------------------
 CID_130678586_JID_3315_Energie_anion
 ------------------------------------
 Structure from the checkpoint file:  "JID_3315.chk"
 Charge = -1 Multiplicity = 2

                         Standard orientation:
 ---------------------------------------------------------------------
 Center     Atomic      Atomic             Coordinates (Angstroms)
 Number     Number       Type             X           Y           Z
 ---------------------------------------------------------------------
      1          6           0        3.865333   -1.398429    0.224352
      2          6           0        2.598514   -0.617071    0.103281
      3          7           0        1.434399   -1.159959    0.232307
      4          7           0        0.426862   -0.244661    0.083774
      5          6           0        0.758190    1.067109   -0.180436
      6          8           0        0.005400    1.999516   -0.352267
      7         16           0        2.583395    1.115127   -0.224962
      8          6           0       -0.967368   -0.713554    0.193265
      9          6           0       -1.706863   -0.591125   -1.146078
     10          6           0       -3.198230   -0.882297   -0.950139
     11          6           0       -3.831473    0.133537    0.011219
     12          6           0       -2.971603    0.370981    1.225324
     13          6           0       -1.692713    0.000113    1.309248
     14          1           0        3.617332   -2.443297    0.426606
     15          1           0        4.489105   -1.015980    1.040195
     16          1           0        4.453272   -1.343878   -0.698826
     17          1           0       -0.850265   -1.771465    0.453634
     18          1           0       -1.258595   -1.277106   -1.873353
     19          1           0       -1.577312    0.429101   -1.521389
     20          1           0       -3.715737   -0.866414   -1.915879
     21          1           0       -3.321889   -1.894327   -0.540673
     22          1           0       -3.989806    1.092322   -0.505944
     23          1           0       -4.828667   -0.206080    0.321012
     24          1           0       -3.431414    0.883293    2.068639
     25          1           0       -1.115087    0.192407    2.210729
 ---------------------------------------------------------------------

 SCF Done:  E(UB3LYP) =  -933.295156440     A.U. after   33 cycles
 SCF Done:  E(UB3LYP) =  -933.295156440     a.u. after    1 cycles

 The electronic state is 2-A.
 Alpha  occ. eigenvalues --  -88.78479 -19.01671 -14.29707 -14.26228 -10.21085
 Alpha  occ. eigenvalues --  -10.15390 -10.12999 -10.08523 -10.07902 -10.07808
 Alpha  occ. eigenvalues --  -10.07710 -10.07568 -10.07476  -7.87171  -5.83434
 Alpha  occ. eigenvalues --   -5.83147  -5.82699  -0.98295  -0.93707  -0.79027
 Alpha  occ. eigenvalues --   -0.73601  -0.70013  -0.66507  -0.65552  -0.62439
 Alpha  occ. eigenvalues --   -0.55988  -0.52101  -0.51664  -0.46025  -0.43035
 Alpha  occ. eigenvalues --   -0.41670  -0.39195  -0.38337  -0.36443  -0.34806
 Alpha  occ. eigenvalues --   -0.33889  -0.33738  -0.32241  -0.31909  -0.30757
 Alpha  occ. eigenvalues --   -0.30411  -0.30107  -0.29530  -0.27323  -0.25193
 Alpha  occ. eigenvalues --   -0.23940  -0.22785  -0.22015  -0.19841  -0.18395
 Alpha  occ. eigenvalues --   -0.15773  -0.14182   0.04311
 Alpha virt. eigenvalues --    0.05696   0.06736   0.07466   0.07752   0.08591
 Alpha virt. eigenvalues --    0.08859   0.09499   0.09575   0.10013   0.10736
 Alpha virt. eigenvalues --    0.10755   0.11098   0.11475   0.12105   0.12620

  Beta  occ. eigenvalues --  -88.78473 -19.01664 -14.29707 -14.26205 -10.21071
  Beta  occ. eigenvalues --  -10.15369 -10.12997 -10.08457 -10.07891 -10.07787
  Beta  occ. eigenvalues --  -10.07698 -10.07545 -10.07462  -7.87162  -5.83429
  Beta  occ. eigenvalues --   -5.83141  -5.82690  -0.98277  -0.93689  -0.79002
  Beta  occ. eigenvalues --   -0.73567  -0.69977  -0.66455  -0.65516  -0.62368
  Beta  occ. eigenvalues --   -0.55954  -0.52043  -0.51613  -0.45970  -0.42999
  Beta  occ. eigenvalues --   -0.41635  -0.39155  -0.38286  -0.36405  -0.34769
  Beta  occ. eigenvalues --   -0.33823  -0.33674  -0.32212  -0.31862  -0.30726
  Beta  occ. eigenvalues --   -0.30375  -0.30050  -0.29491  -0.27272  -0.25152
  Beta  occ. eigenvalues --   -0.23907  -0.22745  -0.21960  -0.19809  -0.18356
  Beta  occ. eigenvalues --   -0.15736  -0.14131
  Beta virt. eigenvalues --    0.06434   0.06951   0.07119   0.07913   0.08079
  Beta virt. eigenvalues --    0.08847   0.09320   0.09694   0.10115   0.10439
  Beta virt. eigenvalues --    0.10956   0.11325   0.11622   0.11650   0.12355

 Mulliken charges and spin densities:
               1          2
     1  C    2.961867  -3.481132
     2  C   -1.583918   1.563986
     3  N    0.077478   0.168121
     4  N    0.590963  -0.106626
     5  C   -0.662999   0.478567
     6  O   -0.261874  -0.011205
     7  S    0.291655  -0.339423
     8  C   -0.400325  -0.419638
     9  C   -0.308583   0.279318
    10  C   -0.397675   0.058333
    11  C    1.493109  -2.221694
    12  C   -0.186380   0.050531
    13  C   -0.058980   0.356610
    14  H   -0.265472   0.435431
    15  H   -0.531917   0.699558
    16  H   -0.753956   0.935688
    17  H    0.086986   0.125604
    18  H   -0.148885   0.331063
    19  H    0.032037   0.149726
    20  H   -0.349591   0.524682
    21  H   -0.063358   0.198032
    22  H    0.046718   0.102636
    23  H   -0.322996   0.475882
    24  H   -0.239067   0.413394
    25  H   -0.044838   0.232555
 Sum of Mulliken charges =  -1.00000   1.00000

 Dipole moment (field-independent basis, Debye):
    X=             -1.9337    Y=              2.5338    Z=              0.9090  Tot=              3.3145
 Quadrupole moment (field-independent basis, Debye-Ang):
   XX=           -185.6331   YY=           -122.5104   ZZ=           -116.0837
   XY=             11.2926   XZ=              0.9160   YZ=             -1.3235

 Summary of Natural Population Analysis:

                                       Natural Population
                Natural  -----------------------------------------------
    Atom  No    Charge         Core      Valence    Rydberg      Total
 -----------------------------------------------------------------------
      C    1   -0.30666      0.99961     2.29972    0.00733     3.30666
      C    2    0.04329      0.99964     1.94069    0.01638     2.95671
      N    3   -0.14116      0.99962     2.62818    0.01336     3.64116
      N    4   -0.15984      0.99960     2.64519    0.01505     3.65984
      C    5    0.26537      0.99967     1.70715    0.02782     2.73463
      O    6   -0.30422      0.99987     3.29727    0.00709     4.30422
      S    7    0.12436      4.99947     2.85855    0.01762     7.87564
      C    8   -0.01751      0.99955     2.00378    0.01418     3.01751
      C    9   -0.19570      0.99961     2.18665    0.00944     3.19570
      C   10   -0.18771      0.99964     2.17982    0.00826     3.18771
      C   11   -0.20807      0.99962     2.19924    0.00922     3.20807
      C   12   -0.07976      0.99953     2.06961    0.01062     3.07976
      C   13   -0.09968      0.99950     2.09069    0.00949     3.09968
      H   14    0.11588      0.00000     0.38205    0.00207     0.38412
      H   15    0.11041      0.00000     0.38778    0.00181     0.38959
      H   16    0.11498      0.00000     0.38001    0.00501     0.38502
      H   17    0.11341      0.00000     0.38437    0.00222     0.38659
      H   18    0.10298      0.00000     0.39589    0.00112     0.39702
      H   19    0.10732      0.00000     0.39109    0.00160     0.39268
      H   20    0.10202      0.00000     0.39668    0.00130     0.39798
      H   21    0.09504      0.00000     0.40356    0.00140     0.40496
      H   22    0.10282      0.00000     0.39600    0.00118     0.39718
      H   23    0.10401      0.00000     0.39444    0.00155     0.39599
      H   24    0.09735      0.00000     0.40170    0.00095     0.40265
      H   25    0.10109      0.00000     0.39787    0.00104     0.39891
 =======================================================================
   * Total *    0.00000     16.99492    34.81798    0.18711    52.00000

 Normal termination of Gaussian 16 at Wed Dec  9 23:12:11 2020.
