 Gaussian 16, Revision A.03,

 -----------------------------------------------------------
 # opt freq B3LYP/6-31G(d) empiricaldispersion=gd3bj scf=xqc
 -----------------------------------------------------------

 -------------------------------
 CID_105325716_JID_2426_neutraal
 -------------------------------
 Symbolic Z-matrix:
 Charge =  0 Multiplicity = 1

 SCF Done:  E(RB3LYP) =  -892.344413269     A.U. after   16 cycles
 SCF Done:  E(RB3LYP) =  -892.352579172     A.U. after   12 cycles
 SCF Done:  E(RB3LYP) =  -892.354421206     A.U. after   12 cycles
 SCF Done:  E(RB3LYP) =  -892.354670017     A.U. after   12 cycles
 SCF Done:  E(RB3LYP) =  -892.354746257     A.U. after   11 cycles
 SCF Done:  E(RB3LYP) =  -892.354853128     A.U. after   11 cycles
 SCF Done:  E(RB3LYP) =  -892.355033800     A.U. after   13 cycles
 SCF Done:  E(RB3LYP) =  -892.355351055     A.U. after   12 cycles
 SCF Done:  E(RB3LYP) =  -892.352255726     A.U. after   13 cycles
 SCF Done:  E(RB3LYP) =  -892.357356844     A.U. after   14 cycles
 SCF Done:  E(RB3LYP) =  -892.360127167     A.U. after   12 cycles
 SCF Done:  E(RB3LYP) =  -892.360158234     A.U. after   11 cycles
 SCF Done:  E(RB3LYP) =  -892.360167871     A.U. after   10 cycles
 SCF Done:  E(RB3LYP) =  -892.360170702     A.U. after   10 cycles
 SCF Done:  E(RB3LYP) =  -892.360171188     A.U. after    9 cycles
 SCF Done:  E(RB3LYP) =  -892.360171275     A.U. after    8 cycles
 Optimization completed.
    -- Stationary point found.
 Normal termination of Gaussian 16 at Wed Dec  9 17:36:53 2020.

 --------------------------------------------------------------------
 #N Geom=AllCheck Guess=TCheck SCRF=Check GenChk RB3LYP/6-31G(d) Freq
 --------------------------------------------------------------------

 Structure from the checkpoint file:  "JID_2426.chk"
 -------------------------------
 CID_105325716_JID_2426_neutraal
 -------------------------------
 Charge =  0 Multiplicity = 1

 SCF Done:  E(RB3LYP) =  -892.360171275     A.U. after    1 cycles

  Exact polarizability: 131.860  -6.940 107.031  -8.739  -2.960  95.942
 Approx polarizability: 187.628 -21.754 150.729 -21.887 -11.431 176.682

                      1                      2                      3
                      A                      A                      A
 Frequencies --     38.7611                48.8445                78.2403
 Red. masses --      6.2020                 2.7665                 5.0174
 Frc consts  --      0.0055                 0.0039                 0.0181
 IR Inten    --      0.7033                 0.1113                 0.1676

                      4                      5                      6
                      A                      A                      A
 Frequencies --     86.0164               119.2128               160.1407
 Red. masses --      2.5270                 3.0224                 3.1247
 Frc consts  --      0.0110                 0.0253                 0.0472
 IR Inten    --      1.7448                 3.0950                 0.2530

                      7                      8                      9
                      A                      A                      A
 Frequencies --    200.6865               208.8989               252.3662
 Red. masses --      1.8085                 1.3631                 1.4692
 Frc consts  --      0.0429                 0.0350                 0.0551
 IR Inten    --     10.6994                 5.7218                 0.3014

                     10                     11                     12
                      A                      A                      A
 Frequencies --    276.2462               319.7255               326.6050
 Red. masses --      3.4101                 3.6373                 2.2388
 Frc consts  --      0.1533                 0.2191                 0.1407
 IR Inten    --      4.4717                 4.6166                 0.7957

                     13                     14                     15
                      A                      A                      A
 Frequencies --    337.8266               364.8066               420.0037
 Red. masses --      1.3440                 3.3234                 2.1979
 Frc consts  --      0.0904                 0.2606                 0.2284
 IR Inten    --     40.3366                11.3161                 1.6275

                     16                     17                     18
                      A                      A                      A
 Frequencies --    494.6267               521.9501               557.1293
 Red. masses --      4.0219                 6.2808                 3.3749
 Frc consts  --      0.5797                 1.0081                 0.6172
 IR Inten    --      6.7746                21.2724                 2.3283

                     19                     20                     21
                      A                      A                      A
 Frequencies --    658.5977               708.3389               727.8091
 Red. masses --      5.4794                 6.0750                 4.7989
 Frc consts  --      1.4003                 1.7959                 1.4977
 IR Inten    --      3.9474                11.0234                 6.3427

                     22                     23                     24
                      A                      A                      A
 Frequencies --    787.7498               797.7513               821.4132
 Red. masses --      2.5412                 1.8205                 4.2910
 Frc consts  --      0.9291                 0.6826                 1.7058
 IR Inten    --     17.5783                 3.9668                30.5180

                     25                     26                     27
                      A                      A                      A
 Frequencies --    847.8134               869.0966               895.3561
 Red. masses --      2.3579                 2.2454                 1.4702
 Frc consts  --      0.9986                 0.9993                 0.6944
 IR Inten    --     19.7062                34.6813                11.7175

                     28                     29                     30
                      A                      A                      A
 Frequencies --    936.0982               978.7496               994.9491
 Red. masses --      2.1014                 1.4384                 1.5424
 Frc consts  --      1.0850                 0.8118                 0.8996
 IR Inten    --     43.3232                44.4015                46.5163

                     31                     32                     33
                      A                      A                      A
 Frequencies --   1004.9942              1037.3082              1061.1444
 Red. masses --      1.8800                 2.7618                 2.6001
 Frc consts  --      1.1187                 1.7509                 1.7250
 IR Inten    --      1.7725                 7.9787                 7.2585

                     34                     35                     36
                      A                      A                      A
 Frequencies --   1095.1348              1156.7532              1166.5613
 Red. masses --      1.9882                 2.0032                 2.1765
 Frc consts  --      1.4049                 1.5793                 1.7451
 IR Inten    --      7.3760                 4.7930                 2.7057

                     37                     38                     39
                      A                      A                      A
 Frequencies --   1183.2462              1193.4572              1228.2901
 Red. masses --      1.8173                 1.9747                 2.0790
 Frc consts  --      1.4991                 1.6572                 1.8480
 IR Inten    --     13.0810                14.8861                 9.7523

                     40                     41                     42
                      A                      A                      A
 Frequencies --   1275.2517              1319.0410              1324.1814
 Red. masses --      1.3733                 1.3253                 1.3073
 Frc consts  --      1.3158                 1.3586                 1.3506
 IR Inten    --      2.0045                 6.2508                 8.5426

                     43                     44                     45
                      A                      A                      A
 Frequencies --   1345.3965              1359.8999              1380.0152
 Red. masses --      1.3484                 1.2671                 2.8434
 Frc consts  --      1.4381                 1.3807                 3.1905
 IR Inten    --     14.8418                 1.7383                 0.9573

                     46                     47                     48
                      A                      A                      A
 Frequencies --   1385.8133              1406.0901              1417.8445
 Red. masses --      1.7943                 1.4985                 2.3294
 Frc consts  --      2.0303                 1.7455                 2.7590
 IR Inten    --      0.8968                 1.6988                 4.2561

                     49                     50                     51
                      A                      A                      A
 Frequencies --   1434.5152              1442.6560              1515.9539
 Red. masses --      1.2734                 1.2338                 1.0647
 Frc consts  --      1.5440                 1.5130                 1.4415
 IR Inten    --      8.1226                 1.1731                 1.8489

                     52                     53                     54
                      A                      A                      A
 Frequencies --   1522.4067              1531.5541              1533.2738
 Red. masses --      1.0515                 1.0657                 1.1251
 Frc consts  --      1.4359                 1.4728                 1.5584
 IR Inten    --      6.4835                 5.0014                 5.1712

                     55                     56                     57
                      A                      A                      A
 Frequencies --   1538.7847              1545.4790              1554.3048
 Red. masses --      1.0691                 1.0454                 6.0658
 Frc consts  --      1.4915                 1.4712                 8.6340
 IR Inten    --      5.3208                 4.2094                 2.1912

                     58                     59                     60
                      A                      A                      A
 Frequencies --   1701.3877              3002.4809              3023.4510
 Red. masses --      1.0822                 1.0812                 1.0670
 Frc consts  --      1.8458                 5.7429                 5.7469
 IR Inten    --     18.6223                 6.3254                28.5841

                     61                     62                     63
                      A                      A                      A
 Frequencies --   3047.8017              3049.7441              3071.4151
 Red. masses --      1.0427                 1.0394                 1.0860
 Frc consts  --      5.7066                 5.6959                 6.0359
 IR Inten    --     20.0890                35.3289                 7.7220

                     64                     65                     66
                      A                      A                      A
 Frequencies --   3075.3927              3112.4927              3117.1430
 Red. masses --      1.0931                 1.1013                 1.0961
 Frc consts  --      6.0914                 6.2857                 6.2752
 IR Inten    --     38.7065                38.5342                35.9788

                     67                     68                     69
                      A                      A                      A
 Frequencies --   3128.6311              3156.4311              3226.1854
 Red. masses --      1.0999                 1.1002                 1.0937
 Frc consts  --      6.3430                 6.4582                 6.7071
 IR Inten    --     42.5764                12.4140                 2.7603

                     70                     71                     72
                      A                      A                      A
 Frequencies --   3406.3325              3419.4816              3547.8264
 Red. masses --      1.0663                 1.0606                 1.0890
 Frc consts  --      7.2898                 7.3066                 8.0758
 IR Inten    --     13.5658                 3.2980                 0.1452

 - Thermochemistry -
 -------------------
 Temperature   298.150 Kelvin.  Pressure   1.00000 Atm.
 Atom     1 has atomic number  6 and mass  12.00000

 Molecular mass:   186.09392 amu.
 Principal axes and moments of inertia in atomic units:
                           1         2         3
     Eigenvalues --  1678.959003060.361664181.45344
           X            0.99852   0.05393   0.00660
           Y           -0.05391   0.99854  -0.00346
           Z           -0.00678   0.00310   0.99997
 This molecule is an asymmetric top.
 Rotational symmetry number  1.
 Warning -- assumption of classical behavior for rotation
           may cause significant error
 Rotational temperatures (Kelvin)      0.05159     0.02830     0.02071
 Rotational constants (GHZ):           1.07492     0.58972     0.43161
 Zero-point vibrational energy     579479.2 (Joules/Mol)
                                  138.49886 (Kcal/Mol)
 Warning -- explicit consideration of  18 degrees of freedom as
           vibrations may cause significant error
 Vibrational temperatures:     55.77    70.28   112.57   123.76   171.52
          (Kelvin)            230.41   288.74   300.56   363.10   397.46
                              460.01   469.91   486.06   524.88   604.29
                              711.66   750.97   801.58   947.58  1019.14
                             1047.15  1133.40  1147.79  1181.83  1219.81
                             1250.44  1288.22  1346.84  1408.20  1431.51
                             1445.96  1492.46  1526.75  1575.65  1664.31
                             1678.42  1702.43  1717.12  1767.24  1834.80
                             1897.81  1905.20  1935.73  1956.59  1985.53
                             1993.88  2023.05  2039.96  2063.95  2075.66
                             2181.12  2190.40  2203.56  2206.04  2213.97
                             2223.60  2236.30  2447.92  4319.90  4350.07
                             4385.11  4387.90  4419.08  4424.80  4478.18
                             4484.87  4501.40  4541.40  4641.76  4900.95
                             4919.87  5104.53

 Zero-point correction=                           0.220712 (Hartree/Particle)
 Thermal correction to Energy=                    0.233779
 Thermal correction to Enthalpy=                  0.234723
 Thermal correction to Gibbs Free Energy=         0.180191
 Sum of electronic and zero-point Energies=           -892.139459
 Sum of electronic and thermal Energies=              -892.126392
 Sum of electronic and thermal Enthalpies=            -892.125448
 Sum of electronic and thermal Free Energies=         -892.179980

                     E (Thermal)             CV                S
                      KCal/Mol        Cal/Mol-Kelvin    Cal/Mol-Kelvin
 Total                  146.698             47.716            114.772
 Electronic               0.000              0.000              0.000
 Translational            0.889              2.981             41.569
 Rotational               0.889              2.981             31.441
 Vibrational            144.921             41.754             41.762
 Vibration     1          0.594              1.981              5.321
 Vibration     2          0.595              1.978              4.864
 Vibration     3          0.600              1.964              3.935
 Vibration     4          0.601              1.959              3.749
 Vibration     5          0.609              1.933              3.113
 Vibration     6          0.622              1.891              2.548
 Vibration     7          0.638              1.839              2.127
 Vibration     8          0.642              1.827              2.053
 Vibration     9          0.664              1.759              1.714
 Vibration    10          0.678              1.717              1.557
 Vibration    11          0.706              1.636              1.312
 Vibration    12          0.710              1.622              1.277
 Vibration    13          0.718              1.600              1.222
 Vibration    14          0.738              1.545              1.102
 Vibration    15          0.783              1.427              0.892
 Vibration    16          0.850              1.262              0.672
 Vibration    17          0.877              1.201              0.605
 Vibration    18          0.913              1.124              0.530

                           ! Non-Optimized Parameters !
 Normal termination of Gaussian 16 at Wed Dec  9 17:44:06 2020.

 ----------------------------------------------------------------------
 # B3LYP/6-311++G(d,p) empiricaldispersion=gd3bj scf=xqc pop=npa geom=c
 heck
 ----------------------------------------------------------------------

 ---------------------------------------
 CID_105325716_JID_2426_Energie_neutraal
 ---------------------------------------
 Structure from the checkpoint file:  "JID_2426.chk"
 Charge =  0 Multiplicity = 1

 SCF Done:  E(RB3LYP) =  -892.533478600     A.U. after   15 cycles
 Normal termination of Gaussian 16 at Wed Dec  9 17:47:26 2020.

 ----------------------------------------------------------------------
 # B3LYP/6-311++G(d,p) empiricaldispersion=gd3bj scf=xqc pop=npa geom=c
 heck
 ----------------------------------------------------------------------

 -------------------------------------
 CID_105325716_JID_2426_Energie_kation
 -------------------------------------
 Structure from the checkpoint file:  "JID_2426.chk"
 Charge =  1 Multiplicity = 2

 SCF Done:  E(UB3LYP) =  -892.207649924     A.U. after   29 cycles
 Normal termination of Gaussian 16 at Wed Dec  9 17:54:07 2020.
 Gaussian 16:  ES64L-G16RevA.03 25-Dec-2016

 ----------------------------------------------------------------------
 # B3LYP/6-311++G(d,p) empiricaldispersion=gd3bj scf=xqc pop=npa geom=c
 heck
 ----------------------------------------------------------------------

 ------------------------------------
 CID_105325716_JID_2426_Energie_anion
 ------------------------------------
 Structure from the checkpoint file:  "JID_2426.chk"
 Charge = -1 Multiplicity = 2

                         Standard orientation:
 ---------------------------------------------------------------------
 Center     Atomic      Atomic             Coordinates (Angstroms)
 Number     Number       Type             X           Y           Z
 ---------------------------------------------------------------------
      1          6           0       -2.954314   -2.251308   -0.347272
      2          6           0       -1.832038   -1.406994    0.263075
      3          6           0       -1.776686    0.038341   -0.263802
      4          6           0       -3.091888    0.790043   -0.023671
      5          6           0       -0.595041    0.829495    0.355716
      6          6           0        0.719152    0.078559    0.236320
      7          7           0        1.432237    0.161835   -0.873446
      8         16           0        2.796001   -0.776235   -0.666835
      9          7           0        2.474668   -1.299230    0.882694
     10          6           0        1.329313   -0.754311    1.235173
     11          7           0       -0.519853    2.153746   -0.260443
     12          7           0        0.520107    2.922150    0.358549
     13          1           0       -3.945344   -1.878942   -0.069781
     14          1           0       -2.884775   -3.290700   -0.008678
     15          1           0       -2.892078   -2.252711   -1.442463
     16          1           0       -1.944915   -1.383942    1.357301
     17          1           0       -0.875664   -1.904368    0.062892
     18          1           0       -1.589403   -0.011652   -1.348238
     19          1           0       -3.364547    0.753782    1.039285
     20          1           0       -2.991899    1.839003   -0.309447
     21          1           0       -3.913199    0.347853   -0.595374
     22          1           0       -0.792946    0.990269    1.421875
     23          1           0        0.918910   -0.950953    2.220141
     24          1           0       -0.319929    2.015909   -1.254395
     25          1           0        1.420942    2.732327   -0.087220
     26          1           0        0.297725    3.901430    0.198747
 ---------------------------------------------------------------------

 SCF Done:  E(UB3LYP) =  -892.535215615     A.U. after   32 cycles

 The electronic state is 2-A.
 Alpha  occ. eigenvalues --  -88.73961 -14.20592 -14.20351 -14.15448 -14.15443
 Alpha  occ. eigenvalues --  -10.07545 -10.05758 -10.05184 -10.05022 -10.04817
 Alpha  occ. eigenvalues --  -10.04469 -10.04213  -7.82307  -5.78773  -5.78222
 Alpha  occ. eigenvalues --   -5.77824  -0.85028  -0.83234  -0.72047  -0.70134
 Alpha  occ. eigenvalues --   -0.65906  -0.60771  -0.60114  -0.54452  -0.50455
 Alpha  occ. eigenvalues --   -0.45931  -0.43572  -0.41376  -0.38960  -0.37658
 Alpha  occ. eigenvalues --   -0.35284  -0.34610  -0.32330  -0.31545  -0.29676
 Alpha  occ. eigenvalues --   -0.28287  -0.27475  -0.26562  -0.25939  -0.24486
 Alpha  occ. eigenvalues --   -0.21693  -0.21462  -0.21132  -0.20587  -0.16675
 Alpha  occ. eigenvalues --   -0.15436  -0.14470  -0.13175  -0.11943  -0.10528
 Alpha  occ. eigenvalues --    0.05356
 Alpha virt. eigenvalues --    0.07025   0.08385   0.09340   0.09587   0.10832
 Alpha virt. eigenvalues --    0.11636   0.12035   0.12564   0.12999   0.13796
 Alpha virt. eigenvalues --    0.13908   0.14548   0.14739   0.15236   0.15832

  Beta  occ. eigenvalues --  -88.73885 -14.20588 -14.20346 -14.14859 -14.14797
  Beta  occ. eigenvalues --  -10.07552 -10.05739 -10.05164 -10.05013 -10.04748
  Beta  occ. eigenvalues --  -10.04438 -10.04205  -7.82239  -5.78745  -5.78196
  Beta  occ. eigenvalues --   -5.77561  -0.84914  -0.82606  -0.71570  -0.69517
  Beta  occ. eigenvalues --   -0.65840  -0.60734  -0.59768  -0.54347  -0.50360
  Beta  occ. eigenvalues --   -0.45731  -0.43092  -0.40973  -0.38901  -0.37617
  Beta  occ. eigenvalues --   -0.35224  -0.34443  -0.32258  -0.31489  -0.29519
  Beta  occ. eigenvalues --   -0.27910  -0.27416  -0.26228  -0.24919  -0.24349
  Beta  occ. eigenvalues --   -0.21458  -0.21260  -0.21091  -0.20199  -0.16127
  Beta  occ. eigenvalues --   -0.14493  -0.12762  -0.12247  -0.11523  -0.09295
  Beta virt. eigenvalues --    0.07493   0.08336   0.09470   0.09531   0.10932
  Beta virt. eigenvalues --    0.11602   0.12047   0.12218   0.12612   0.12936
  Beta virt. eigenvalues --    0.13843   0.13998   0.14520   0.14823   0.15187

 Mulliken charges and spin densities:
               1          2
     1  C    0.316688  -0.989206
     2  C   -0.893210   0.623287
     3  C    0.023645   0.419971
     4  C    0.134155  -0.714997
     5  C   -0.715086  -0.167852
     6  C   -0.371443  -0.029933
     7  N   -0.045738   0.236205
     8  S    0.226936   0.204453
     9  N   -0.139258   0.242354
    10  C   -0.431918   0.151900
    11  N    0.058074   0.000249
    12  N   -0.508819  -0.006616
    13  H   -0.196110   0.341184
    14  H    0.007283   0.119290
    15  H   -0.001738   0.147005
    16  H    0.102735   0.010369
    17  H    0.253248  -0.018611
    18  H    0.096850   0.033471
    19  H    0.083799   0.046396
    20  H    0.146025   0.018545
    21  H   -0.150106   0.281488
    22  H    0.201219  -0.002982
    23  H    0.102647   0.009774
    24  H    0.242755   0.009387
    25  H    0.242248   0.009331
    26  H    0.215119   0.025539
 Sum of Mulliken charges =  -1.00000   1.00000

 Dipole moment (field-independent basis, Debye):
    X=             -1.1933    Y=              2.6935    Z=             -0.2132  Tot=              2.9537
 Quadrupole moment (field-independent basis, Debye-Ang):
   XX=           -138.3019   YY=           -101.9014   ZZ=            -95.5678
   XY=              2.6247   XZ=             -6.0183   YZ=             -2.8135

 Summary of Natural Population Analysis:

                                       Natural Population
                Natural  -----------------------------------------------
    Atom  No    Charge         Core      Valence    Rydberg      Total
 -----------------------------------------------------------------------
      C    1   -0.28546      0.99967     2.28075    0.00504     3.28546
      C    2   -0.19177      0.99962     2.18289    0.00926     3.19177
      C    3   -0.10759      0.99958     2.09708    0.01093     3.10759
      C    4   -0.29071      0.99965     2.28432    0.00674     3.29071
      C    5   -0.01694      0.99953     2.00216    0.01524     3.01694
      C    6    0.06497      0.99955     1.91865    0.01683     2.93503
      N    7   -0.26231      0.99968     2.74899    0.01364     3.76231
      S    8    0.36114      4.99953     2.60132    0.03801     7.63886
      N    9   -0.22633      0.99973     2.71373    0.01286     3.72633
      C   10   -0.01958      0.99957     2.00614    0.01387     3.01958
      N   11   -0.25665      0.99973     2.74180    0.01512     3.75665
      N   12   -0.32961      0.99977     2.81896    0.01087     3.82961
      H   13    0.09588      0.00000     0.40294    0.00118     0.40412
      H   14    0.09572      0.00000     0.40360    0.00069     0.40428
      H   15    0.09513      0.00000     0.40396    0.00091     0.40487
      H   16    0.08990      0.00000     0.40897    0.00114     0.41010
      H   17    0.10852      0.00000     0.39014    0.00133     0.39148
      H   18    0.09229      0.00000     0.40532    0.00238     0.40771
      H   19    0.09211      0.00000     0.40702    0.00086     0.40789
      H   20    0.10761      0.00000     0.39093    0.00146     0.39239
      H   21    0.09664      0.00000     0.40241    0.00094     0.40336
      H   22    0.09675      0.00000     0.40138    0.00188     0.40325
      H   23    0.08872      0.00000     0.40918    0.00210     0.41128
      H   24    0.16483      0.00000     0.33142    0.00376     0.33517
      H   25    0.17089      0.00000     0.32688    0.00223     0.32911
      H   26    0.16585      0.00000     0.33259    0.00156     0.33415
 =======================================================================
   * Total *   -0.00000     15.99563    33.81353    0.19085    50.00000

 Normal termination of Gaussian 16 at Wed Dec  9 18:01:15 2020.
