 Gaussian 16, Revision A.03,

 -----------------------------------------------------------
 # opt freq B3LYP/6-31G(d) empiricaldispersion=gd3bj scf=xqc
 -----------------------------------------------------------

 -------------------------------
 CID_116697138_JID_9656_neutraal
 -------------------------------
 Symbolic Z-matrix:
 Charge =  0 Multiplicity = 1

 SCF Done:  E(RB3LYP) =  -1255.70098642     A.U. after   15 cycles
 SCF Done:  E(RB3LYP) =  -1255.70998039     A.U. after   13 cycles
 SCF Done:  E(RB3LYP) =  -1255.71172175     A.U. after   13 cycles
 SCF Done:  E(RB3LYP) =  -1255.71218451     A.U. after   13 cycles
 SCF Done:  E(RB3LYP) =  -1255.71310576     A.U. after   13 cycles
 SCF Done:  E(RB3LYP) =  -1255.71356726     A.U. after   13 cycles
 SCF Done:  E(RB3LYP) =  -1255.71374574     A.U. after   13 cycles
 SCF Done:  E(RB3LYP) =  -1255.71386701     A.U. after   13 cycles
 SCF Done:  E(RB3LYP) =  -1255.71396352     A.U. after   11 cycles
 SCF Done:  E(RB3LYP) =  -1255.71401566     A.U. after   12 cycles
 SCF Done:  E(RB3LYP) =  -1255.71405633     A.U. after   11 cycles
 SCF Done:  E(RB3LYP) =  -1255.71407954     A.U. after   11 cycles
 SCF Done:  E(RB3LYP) =  -1255.71408281     A.U. after    9 cycles
 SCF Done:  E(RB3LYP) =  -1255.71408519     A.U. after    9 cycles
 SCF Done:  E(RB3LYP) =  -1255.71408542     A.U. after    8 cycles
 Optimization completed.
    -- Stationary point found.
 Normal termination of Gaussian 16 at Sun Dec 13 16:17:46 2020.

 --------------------------------------------------------------------
 #N Geom=AllCheck Guess=TCheck SCRF=Check GenChk RB3LYP/6-31G(d) Freq
 --------------------------------------------------------------------

 Structure from the checkpoint file:  "JID_9656.chk"
 -------------------------------
 CID_116697138_JID_9656_neutraal
 -------------------------------
 Charge =  0 Multiplicity = 1

 SCF Done:  E(RB3LYP) =  -1255.71408542     A.U. after    1 cycles

  Exact polarizability: 229.470   1.615 181.250  11.541  -7.905 108.637
 Approx polarizability: 297.421   2.033 309.219  29.581 -25.901 175.402

                      1                      2                      3
                      A                      A                      A
 Frequencies --     17.7499                24.1540                54.1836
 Red. masses --      5.0808                 4.6083                 7.7252
 Frc consts  --      0.0009                 0.0016                 0.0134
 IR Inten    --      0.1443                 0.1149                 0.2723

                      4                      5                      6
                      A                      A                      A
 Frequencies --     60.3346                75.2181                97.5020
 Red. masses --      4.6783                 9.9065                 3.4040
 Frc consts  --      0.0100                 0.0330                 0.0191
 IR Inten    --      0.4603                 6.2186                 0.7788

                      7                      8                      9
                      A                      A                      A
 Frequencies --    107.5392               135.0547               169.4272
 Red. masses --      3.0132                 9.0988                 2.2782
 Frc consts  --      0.0205                 0.0978                 0.0385
 IR Inten    --      0.3474                 0.4945                 0.6471

                     10                     11                     12
                      A                      A                      A
 Frequencies --    199.1175               211.5882               233.1883
 Red. masses --      1.9854                 2.2445                 3.1666
 Frc consts  --      0.0464                 0.0592                 0.1015
 IR Inten    --      0.1778                 4.9435                 4.0892

                     13                     14                     15
                      A                      A                      A
 Frequencies --    238.8147               261.0488               279.4656
 Red. masses --      5.6984                 3.0787                 1.8199
 Frc consts  --      0.1915                 0.1236                 0.0837
 IR Inten    --     10.3825                 0.0990                 1.8544

                     16                     17                     18
                      A                      A                      A
 Frequencies --    321.3706               332.7490               355.4150
 Red. masses --      1.9649                 2.0658                 3.5670
 Frc consts  --      0.1196                 0.1348                 0.2655
 IR Inten    --      0.0716                 4.4657                 2.3204

                     19                     20                     21
                      A                      A                      A
 Frequencies --    363.8794               385.0198               415.3151
 Red. masses --      4.3339                 4.4284                 5.1183
 Frc consts  --      0.3381                 0.3868                 0.5202
 IR Inten    --     11.3639                 4.9801                 4.4554

                     22                     23                     24
                      A                      A                      A
 Frequencies --    423.0574               484.1951               488.8848
 Red. masses --      2.5118                 3.0033                 3.9049
 Frc consts  --      0.2649                 0.4149                 0.5499
 IR Inten    --      1.0855                 3.9765                 4.9512

                     25                     26                     27
                      A                      A                      A
 Frequencies --    505.4722               522.7716               546.9713
 Red. masses --      3.2689                 4.2165                 7.1750
 Frc consts  --      0.4921                 0.6789                 1.2647
 IR Inten    --      4.1908                 3.8520                 9.0531

                     28                     29                     30
                      A                      A                      A
 Frequencies --    582.0118               605.5348               653.4173
 Red. masses --      2.1787                 3.3238                 3.8487
 Frc consts  --      0.4348                 0.7181                 0.9681
 IR Inten    --     19.3878                 2.6374                29.0479

                     31                     32                     33
                      A                      A                      A
 Frequencies --    671.4361               687.2474               731.6474
 Red. masses --      2.0845                 3.7296                11.2901
 Frc consts  --      0.5537                 1.0379                 3.5608
 IR Inten    --     76.3631                59.7933                 3.5891

                     34                     35                     36
                      A                      A                      A
 Frequencies --    742.2335               748.3084               773.8664
 Red. masses --      8.9619                 1.8167                 3.1525
 Frc consts  --      2.9089                 0.5994                 1.1123
 IR Inten    --     19.6329                 4.0877                55.5934

                     37                     38                     39
                      A                      A                      A
 Frequencies --    815.2375               839.7926               860.2874
 Red. masses --      1.6307                 1.6768                 3.8481
 Frc consts  --      0.6386                 0.6968                 1.6780
 IR Inten    --      5.9946                 8.7046                 1.5455

                     40                     41                     42
                      A                      A                      A
 Frequencies --    876.9182               902.2380               951.1746
 Red. masses --      2.1481                 3.7754                 2.0160
 Frc consts  --      0.9732                 1.8107                 1.0746
 IR Inten    --      6.7888                26.5314                 4.0345

                     43                     44                     45
                      A                      A                      A
 Frequencies --    975.5313               989.1007              1020.6730
 Red. masses --      4.2851                 2.2148                 2.2058
 Frc consts  --      2.4026                 1.2766                 1.3539
 IR Inten    --     15.1082                 6.0222                53.7823

                     46                     47                     48
                      A                      A                      A
 Frequencies --   1035.5602              1069.4479              1087.8005
 Red. masses --      2.8440                 2.0072                 2.1957
 Frc consts  --      1.7969                 1.3526                 1.5308
 IR Inten    --     10.7083                70.7939                38.9719

                     49                     50                     51
                      A                      A                      A
 Frequencies --   1102.8423              1117.9252              1131.0375
 Red. masses --      1.9801                 1.8222                 2.2020
 Frc consts  --      1.4190                 1.3417                 1.6596
 IR Inten    --      1.1216                 2.5192                15.9731

                     52                     53                     54
                      A                      A                      A
 Frequencies --   1146.1608              1149.7284              1186.3836
 Red. masses --      1.8917                 2.1570                 2.0456
 Frc consts  --      1.4642                 1.6799                 1.6964
 IR Inten    --    114.1393                11.5328                25.3175

                     55                     56                     57
                      A                      A                      A
 Frequencies --   1199.5607              1208.3157              1216.5988
 Red. masses --      2.3547                 1.9770                 2.0844
 Frc consts  --      1.9964                 1.7007                 1.8177
 IR Inten    --     51.1394               190.1584                29.2351

                     58                     59                     60
                      A                      A                      A
 Frequencies --   1280.5579              1282.8770              1299.0381
 Red. masses --      1.3833                 2.8342                 1.4267
 Frc consts  --      1.3365                 2.7483                 1.4185
 IR Inten    --      3.3467                 0.8241                65.5010

                     61                     62                     63
                      A                      A                      A
 Frequencies --   1310.3723              1328.1246              1338.4243
 Red. masses --      1.4947                 1.3517                 2.9632
 Frc consts  --      1.5121                 1.4048                 3.1275
 IR Inten    --    102.4228                25.8600                26.6862

                     64                     65                     66
                      A                      A                      A
 Frequencies --   1348.6346              1387.6682              1401.5183
 Red. masses --      1.4091                 1.2718                 1.3155
 Frc consts  --      1.5101                 1.4429                 1.5224
 IR Inten    --     23.7757                13.3098                15.1309

                     67                     68                     69
                      A                      A                      A
 Frequencies --   1405.6738              1417.5172              1422.9049
 Red. masses --      3.6697                 1.4377                 1.4069
 Frc consts  --      4.2721                 1.7020                 1.6783
 IR Inten    --     31.3507                 3.0090                10.4134

                     70                     71                     72
                      A                      A                      A
 Frequencies --   1432.5529              1445.1410              1486.5366
 Red. masses --      1.4866                 1.2329                 1.1892
 Frc consts  --      1.7974                 1.5171                 1.5483
 IR Inten    --      7.1334                 4.8740                 3.6210

                     73                     74                     75
                      A                      A                      A
 Frequencies --   1494.2532              1505.3381              1514.9731
 Red. masses --      2.8361                 1.1025                 1.0733
 Frc consts  --      3.7310                 1.4720                 1.4513
 IR Inten    --     88.0335                 8.6922                 5.8724

                     76                     77                     78
                      A                      A                      A
 Frequencies --   1524.5395              1526.4509              1531.1365
 Red. masses --      1.1009                 1.0477                 1.1395
 Frc consts  --      1.5076                 1.4384                 1.5740
 IR Inten    --      7.7011                 0.3544                 5.4844

                     79                     80                     81
                      A                      A                      A
 Frequencies --   1534.3700              1536.3888              1539.0965
 Red. masses --      1.0557                 1.0515                 7.0679
 Frc consts  --      1.4643                 1.4624                 9.8644
 IR Inten    --     17.8620                 0.7370               104.5326

                     82                     83                     84
                      A                      A                      A
 Frequencies --   1543.1312              1556.8926              1711.8382
 Red. masses --      1.0626                10.6968                10.7454
 Frc consts  --      1.4908                15.2765                18.5524
 IR Inten    --     10.9025               144.9403               262.2448

                     85                     86                     87
                      A                      A                      A
 Frequencies --   1822.7714              2907.2255              2926.3812
 Red. masses --      9.9701                 1.0810                 1.0719
 Frc consts  --     19.5170                 5.3832                 5.4083
 IR Inten    --    333.7545                26.0736                44.9195

                     88                     89                     90
                      A                      A                      A
 Frequencies --   2946.8938              3043.5332              3048.9374
 Red. masses --      1.0627                 1.0662                 1.0695
 Frc consts  --      5.4371                 5.8190                 5.8575
 IR Inten    --    102.1009                 4.9140                11.4389

                     91                     92                     93
                      A                      A                      A
 Frequencies --   3052.5024              3053.6328              3082.4198
 Red. masses --      1.0713                 1.0373                 1.0924
 Frc consts  --      5.8813                 5.6987                 6.1150
 IR Inten    --     81.9313                33.9910                 5.7970

                     94                     95                     96
                      A                      A                      A
 Frequencies --   3082.5424              3093.1304              3116.8177
 Red. masses --      1.0948                 1.0748                 1.1021
 Frc consts  --      6.1293                 6.0588                 6.3082
 IR Inten    --     26.9317                54.8235                40.7776

                     97                     98                     99
                      A                      A                      A
 Frequencies --   3128.4717              3146.8785              3179.1706
 Red. masses --      1.1018                 1.0987                 1.0937
 Frc consts  --      6.3538                 6.4106                 6.5128
 IR Inten    --     44.8488                23.3040                 5.9310

                    100                    101                    102
                      A                      A                      A
 Frequencies --   3203.3419              3289.9422              3692.4057
 Red. masses --      1.0934                 1.0945                 1.0640
 Frc consts  --      6.6103                 6.9796                 8.5469
 IR Inten    --     25.7765                 7.0380                74.9352

 - Thermochemistry -
 -------------------
 Temperature   298.150 Kelvin.  Pressure   1.00000 Atm.
 Atom     1 has atomic number  6 and mass  12.00000

 Molecular mass:   283.09906 amu.
 Principal axes and moments of inertia in atomic units:
                           1         2         3
     Eigenvalues --  2652.55247********************
           X            0.99998  -0.00194  -0.00659
           Y            0.00198   0.99999   0.00462
           Z            0.00658  -0.00464   0.99997
 This molecule is an asymmetric top.
 Rotational symmetry number  1.
 Warning -- assumption of classical behavior for rotation
           may cause significant error
 Rotational temperatures (Kelvin)      0.03265     0.00802     0.00675
 Rotational constants (GHZ):           0.68038     0.16707     0.14074
 Zero-point vibrational energy     773448.3 (Joules/Mol)
                                  184.85857 (Kcal/Mol)
 Warning -- explicit consideration of  29 degrees of freedom as
           vibrations may cause significant error
 Vibrational temperatures:     25.54    34.75    77.96    86.81   108.22
          (Kelvin)            140.28   154.72   194.31   243.77   286.49
                              304.43   335.51   343.60   375.59   402.09
                              462.38   478.75   511.36   523.54   553.96
                              597.55   608.69   696.65   703.40   727.26
                              752.15   786.97   837.39   871.23   940.12
                              966.05   988.80  1052.68  1067.91  1076.65
                             1113.42  1172.94  1208.27  1237.76  1261.69
                             1298.12  1368.53  1403.57  1423.10  1468.52
                             1489.94  1538.70  1565.10  1586.74  1608.45
                             1627.31  1649.07  1654.20  1706.94  1725.90
                             1738.50  1750.41  1842.44  1845.77  1869.03
                             1885.33  1910.88  1925.69  1940.38  1996.54
                             2016.47  2022.45  2039.49  2047.24  2061.12
                             2079.24  2138.79  2149.90  2165.85  2179.71
                             2193.47  2196.22  2202.96  2207.62  2210.52
                             2214.42  2220.22  2240.02  2462.95  2622.56
                             4182.85  4210.41  4239.92  4378.97  4386.74
                             4391.87  4393.50  4434.91  4435.09  4450.32
                             4484.41  4501.17  4527.66  4574.12  4608.89
                             4733.49  5312.55

 Zero-point correction=                           0.294591 (Hartree/Particle)
 Thermal correction to Energy=                    0.312886
 Thermal correction to Enthalpy=                  0.313830
 Thermal correction to Gibbs Free Energy=         0.246092
 Sum of electronic and zero-point Energies=          -1255.419495
 Sum of electronic and thermal Energies=             -1255.401199
 Sum of electronic and thermal Enthalpies=           -1255.400255
 Sum of electronic and thermal Free Energies=        -1255.467993

                     E (Thermal)             CV                S
                      KCal/Mol        Cal/Mol-Kelvin    Cal/Mol-Kelvin
 Total                  196.339             68.792            142.567
 Electronic               0.000              0.000              0.000
 Translational            0.889              2.981             42.820
 Rotational               0.889              2.981             34.262
 Vibrational            194.562             62.830             65.485
 Vibration     1          0.593              1.986              6.871
 Vibration     2          0.593              1.985              6.260
 Vibration     3          0.596              1.976              4.659
 Vibration     4          0.597              1.973              4.446
 Vibration     5          0.599              1.966              4.012
 Vibration     6          0.603              1.951              3.504
 Vibration     7          0.606              1.943              3.313
 Vibration     8          0.613              1.918              2.873
 Vibration     9          0.625              1.880              2.442
 Vibration    10          0.637              1.841              2.141
 Vibration    11          0.643              1.823              2.030
 Vibration    12          0.654              1.790              1.854
 Vibration    13          0.657              1.781              1.812
 Vibration    14          0.669              1.744              1.655
 Vibration    15          0.680              1.712              1.537
 Vibration    16          0.707              1.633              1.303
 Vibration    17          0.715              1.610              1.247
 Vibration    18          0.731              1.564              1.142
 Vibration    19          0.737              1.547              1.105
 Vibration    20          0.754              1.502              1.019
 Vibration    21          0.779              1.437              0.908
 Vibration    22          0.785              1.420              0.882
 Vibration    23          0.840              1.285              0.699
 Vibration    24          0.845              1.275              0.687
 Vibration    25          0.861              1.238              0.645
 Vibration    26          0.878              1.200              0.604
 Vibration    27          0.902              1.146              0.550
 Vibration    28          0.939              1.070              0.482
 Vibration    29          0.964              1.020              0.440

 Optimization completed.
    -- Stationary point found.
 Normal termination of Gaussian 16 at Sun Dec 13 16:35:37 2020.

 ----------------------------------------------------------------------
 # B3LYP/6-311++G(d,p) empiricaldispersion=gd3bj scf=xqc pop=npa geom=c
 heck
 ----------------------------------------------------------------------

 ---------------------------------------
 CID_116697138_JID_9656_Energie_neutraal
 ---------------------------------------
 Structure from the checkpoint file:  "JID_9656.chk"
 Charge =  0 Multiplicity = 1

 SCF Done:  E(RB3LYP) =  -1255.98633404     A.U. after   16 cycles
 Normal termination of Gaussian 16 at Sun Dec 13 16:44:38 2020.

 ----------------------------------------------------------------------
 # B3LYP/6-311++G(d,p) empiricaldispersion=gd3bj scf=xqc pop=npa geom=c
 heck
 ----------------------------------------------------------------------

 -------------------------------------
 CID_116697138_JID_9656_Energie_kation
 -------------------------------------
 Structure from the checkpoint file:  "JID_9656.chk"
 Charge =  1 Multiplicity = 2

 SCF Done:  E(UB3LYP) =  -1255.68686829     A.U. after   28 cycles
 Normal termination of Gaussian 16 at Sun Dec 13 17:07:22 2020.
 Gaussian 16:  ES64L-G16RevA.03 25-Dec-2016

 ----------------------------------------------------------------------
 # B3LYP/6-311++G(d,p) empiricaldispersion=gd3bj scf=xqc pop=npa geom=c
 heck
 ----------------------------------------------------------------------

 ------------------------------------
 CID_116697138_JID_9656_Energie_anion
 ------------------------------------
 Structure from the checkpoint file:  "JID_9656.chk"
 Charge = -1 Multiplicity = 2

                         Standard orientation:
 ---------------------------------------------------------------------
 Center     Atomic      Atomic             Coordinates (Angstroms)
 Number     Number       Type             X           Y           Z
 ---------------------------------------------------------------------
      1          6           0       -5.498633   -0.766711    1.036860
      2          6           0       -4.676754   -0.517016   -0.231676
      3          6           0       -3.223273   -0.060287    0.020568
      4          6           0       -2.293118   -0.780569   -0.966711
      5          7           0       -0.904912   -0.360046   -0.801942
      6          6           0       -0.737506    1.086581   -0.932952
      7          6           0       -1.659038    1.787169    0.060203
      8          7           0       -3.054204    1.394752   -0.135181
      9          6           0       -3.918159    2.172354    0.742698
     10          6           0        0.004125   -1.278217   -0.380872
     11          8           0       -0.269937   -2.469521   -0.202181
     12          6           0        1.428283   -0.884839   -0.124856
     13          7           0        2.027685    0.267757   -0.197960
     14          6           0        3.356952    0.159194    0.131662
     15          6           0        3.775369   -1.108490    0.463686
     16         16           0        2.472843   -2.220849    0.368146
     17          6           0        4.271400    1.320578    0.131210
     18          8           0        5.450596    1.251693    0.415465
     19          8           0        3.660149    2.473869   -0.218712
     20          1           0       -5.039328   -1.553820    1.645837
     21          1           0       -6.514891   -1.090385    0.786104
     22          1           0       -5.577000    0.127727    1.662735
     23          1           0       -4.652341   -1.449705   -0.809629
     24          1           0       -5.164920    0.221358   -0.878638
     25          1           0       -2.920340   -0.369826    1.041968
     26          1           0       -2.610373   -0.544382   -1.991019
     27          1           0       -2.339506   -1.857592   -0.815037
     28          1           0       -1.023799    1.367973   -1.954423
     29          1           0        0.299419    1.363432   -0.764897
     30          1           0       -1.581207    2.870496   -0.085875
     31          1           0       -1.308988    1.564759    1.088364
     32          1           0       -4.969167    1.983553    0.514580
     33          1           0       -3.751626    1.958823    1.816346
     34          1           0       -3.728292    3.237844    0.576875
     35          1           0        4.776554   -1.397406    0.750306
     36          1           0        4.355994    3.156683   -0.183843
 ---------------------------------------------------------------------

 SCF Done:  E(UB3LYP) =  -1256.00788504     A.U. after   28 cycles

 The electronic state is 2-A.
 Alpha  occ. eigenvalues --  -88.71446 -19.04817 -18.98164 -18.94058 -14.21875
 Alpha  occ. eigenvalues --  -14.21258 -14.16565 -10.17197 -10.12737 -10.10825
 Alpha  occ. eigenvalues --  -10.10693 -10.09619 -10.09085 -10.08772 -10.08684
 Alpha  occ. eigenvalues --  -10.08509 -10.07111 -10.06099 -10.03512  -7.80114
 Alpha  occ. eigenvalues --   -5.76390  -5.76031  -5.75791  -0.98595  -0.90071
 Alpha  occ. eigenvalues --   -0.89280  -0.84957  -0.81627  -0.80246  -0.70832
 Alpha  occ. eigenvalues --   -0.65148  -0.64769  -0.64122  -0.62028  -0.56849
 Alpha  occ. eigenvalues --   -0.56038  -0.52790  -0.52168  -0.48790  -0.46412
 Alpha  occ. eigenvalues --   -0.42806  -0.41921  -0.40097  -0.38306  -0.37454
 Alpha  occ. eigenvalues --   -0.36613  -0.36502  -0.35855  -0.35227  -0.34110
 Alpha  occ. eigenvalues --   -0.33837  -0.33072  -0.32900  -0.30744  -0.30487
 Alpha  occ. eigenvalues --   -0.29111  -0.28720  -0.27577  -0.27515  -0.27327
 Alpha  occ. eigenvalues --   -0.26224  -0.25408  -0.24974  -0.24632  -0.23906
 Alpha  occ. eigenvalues --   -0.23244  -0.21607  -0.20339  -0.16213  -0.14587
 Alpha  occ. eigenvalues --   -0.13929  -0.13616  -0.11985  -0.11867  -0.10851
 Alpha  occ. eigenvalues --    0.03746
 Alpha virt. eigenvalues --    0.05702   0.07146   0.07808   0.08398   0.08945
 Alpha virt. eigenvalues --    0.09336   0.09923   0.10048   0.11006   0.11085
 Alpha virt. eigenvalues --    0.11263   0.12618   0.12896   0.13104   0.14120

  Beta  occ. eigenvalues --  -88.71335 -19.04788 -18.98176 -18.93882 -14.21876
  Beta  occ. eigenvalues --  -14.21178 -14.16437 -10.17122 -10.12579 -10.10817
  Beta  occ. eigenvalues --  -10.10689 -10.09614 -10.09091 -10.08769 -10.08683
  Beta  occ. eigenvalues --  -10.08514 -10.06838 -10.06210 -10.02923  -7.80015
  Beta  occ. eigenvalues --   -5.76342  -5.75984  -5.75421  -0.98536  -0.89752
  Beta  occ. eigenvalues --   -0.89273  -0.84904  -0.81306  -0.80093  -0.70823
  Beta  occ. eigenvalues --   -0.65108  -0.64322  -0.63781  -0.61731  -0.56745
  Beta  occ. eigenvalues --   -0.56016  -0.52678  -0.51847  -0.48591  -0.46027
  Beta  occ. eigenvalues --   -0.42543  -0.41609  -0.40083  -0.38227  -0.37368
  Beta  occ. eigenvalues --   -0.36510  -0.36386  -0.35800  -0.35099  -0.34091
  Beta  occ. eigenvalues --   -0.33586  -0.33004  -0.32662  -0.30572  -0.30446
  Beta  occ. eigenvalues --   -0.28989  -0.28467  -0.27523  -0.27417  -0.26677
  Beta  occ. eigenvalues --   -0.26036  -0.25258  -0.24850  -0.24447  -0.23784
  Beta  occ. eigenvalues --   -0.22477  -0.21051  -0.20236  -0.16200  -0.13844
  Beta  occ. eigenvalues --   -0.13462  -0.12696  -0.11629  -0.11252  -0.09195
  Beta virt. eigenvalues --    0.05621   0.07078   0.07715   0.08343   0.09070
  Beta virt. eigenvalues --    0.09843   0.09902   0.10159   0.10585   0.10930
  Beta virt. eigenvalues --    0.11050   0.11188   0.12536   0.12809   0.13027

 Mulliken charges and spin densities:
               1          2
     1  C   -0.526630  -0.055863
     2  C   -0.383331  -0.006418
     3  C    0.321927  -0.011628
     4  C   -0.823885   0.017021
     5  N    0.255020   0.018163
     6  C   -0.720754  -0.008270
     7  C   -0.037034  -0.031434
     8  N    0.128431   0.009269
     9  C   -0.262881  -0.052189
    10  C   -0.212344   0.097955
    11  O   -0.360888   0.064911
    12  C    0.704435   0.187639
    13  N    0.102519   0.059026
    14  C   -0.661259  -0.117230
    15  C    0.268357   0.435329
    16  S   -0.477707   0.171243
    17  C   -0.368947   0.063876
    18  O   -0.380991  -0.002421
    19  O   -0.187861   0.003855
    20  H    0.134588   0.010154
    21  H    0.104488   0.022031
    22  H    0.124169   0.007769
    23  H    0.137702   0.012815
    24  H    0.154998   0.008750
    25  H    0.151046   0.007368
    26  H    0.121611   0.028475
    27  H    0.229653  -0.007481
    28  H    0.103543   0.021184
    29  H    0.288277  -0.009643
    30  H    0.114673   0.022470
    31  H    0.132304   0.008715
    32  H    0.100861   0.022020
    33  H    0.117879   0.004042
    34  H    0.094351   0.029198
    35  H    0.246022  -0.031482
    36  H    0.267659   0.000783
 Sum of Mulliken charges =  -1.00000   1.00000

 Dipole moment (field-independent basis, Debye):
    X=             -9.1090    Y=              4.6991    Z=             -0.1698  Tot=             10.2511
 Quadrupole moment (field-independent basis, Debye-Ang):
   XX=           -183.0511   YY=           -143.5462   ZZ=           -130.3495
   XY=              2.3506   XZ=             -5.1169   YZ=              0.6048

 Summary of Natural Population Analysis:

                                       Natural Population
                Natural  -----------------------------------------------
    Atom  No    Charge         Core      Valence    Rydberg      Total
 -----------------------------------------------------------------------
      C    1   -0.28489      0.99967     2.28069    0.00453     3.28489
      C    2   -0.19749      0.99962     2.18966    0.00821     3.19749
      C    3   -0.00913      0.99958     1.99690    0.01265     3.00913
      C    4   -0.08880      0.99959     2.07860    0.01061     3.08880
      N    5   -0.24381      0.99964     2.73242    0.01175     3.74381
      C    6   -0.09591      0.99961     2.08703    0.00927     3.09591
      C    7   -0.08763      0.99962     2.07812    0.00989     3.08763
      N    8   -0.28346      0.99970     2.76983    0.01394     3.78346
      C    9   -0.17661      0.99966     2.16985    0.00710     3.17661
      C   10    0.34162      0.99956     1.63823    0.02059     2.65838
      O   11   -0.32194      0.99989     3.31679    0.00527     4.32194
      C   12    0.03825      0.99959     1.94575    0.01641     2.96175
      N   13   -0.22661      0.99962     2.71590    0.01109     3.72661
      C   14   -0.04348      0.99943     2.03005    0.01400     3.04348
      C   15   -0.06002      0.99952     2.05059    0.00991     3.06002
      S   16    0.24705      4.99944     2.73087    0.02263     7.75295
      C   17    0.39791      0.99965     1.57844    0.02400     2.60209
      O   18   -0.33397      0.99987     3.32753    0.00657     4.33397
      O   19   -0.33922      0.99988     3.33301    0.00632     4.33922
      H   20    0.09861      0.00000     0.40040    0.00099     0.40139
      H   21    0.09476      0.00000     0.40424    0.00100     0.40524
      H   22    0.09554      0.00000     0.40341    0.00105     0.40446
      H   23    0.09845      0.00000     0.40001    0.00154     0.40155
      H   24    0.09928      0.00000     0.39920    0.00152     0.40072
      H   25    0.08104      0.00000     0.41684    0.00212     0.41896
      H   26    0.08965      0.00000     0.40858    0.00177     0.41035
      H   27    0.11922      0.00000     0.37952    0.00125     0.38078
      H   28    0.08567      0.00000     0.41256    0.00177     0.41433
      H   29    0.13351      0.00000     0.36538    0.00111     0.36649
      H   30    0.09283      0.00000     0.40536    0.00181     0.40717
      H   31    0.08398      0.00000     0.41412    0.00190     0.41602
      H   32    0.09212      0.00000     0.40663    0.00125     0.40788
      H   33    0.07880      0.00000     0.41901    0.00218     0.42120
      H   34    0.09383      0.00000     0.40502    0.00115     0.40617
      H   35    0.10342      0.00000     0.39553    0.00105     0.39658
      H   36    0.22742      0.00000     0.26743    0.00515     0.27258
 =======================================================================
   * Total *    0.00000     22.99313    51.75352    0.25335    75.00000

 Normal termination of Gaussian 16 at Sun Dec 13 17:30:18 2020.
